<event>
 7    1  0.6473813E-006  0.9881863E+02  0.7561462E-02  0.1282800E+00
          1   -1    0    0  501    0  0.00000000000E+00  0.00000000000E+00  0.14814278785E+03  0.14814278785E+03  0.00000000000E+00 0. -1.
         -1   -1    0    0    0  501 -0.00000000000E+00 -0.00000000000E+00 -0.74598140629E+02  0.74598140629E+02  0.00000000000E+00 0.  1.
         23    2    1    2    0    0  0.63965101324E+01 -0.35187381006E+01  0.60695091608E+02  0.13922807240E+03  0.12508902885E+03 0.  0.
          5    1    3    3  502    0  0.63350291358E+02  0.10440556283E+01  0.13298109156E+02  0.64874198064E+02  0.41800000000E+01 0. -1.
         -5    1    3    3    0  502 -0.56953781226E+02 -0.45627937289E+01  0.47396982453E+02  0.74353874332E+02  0.41800000000E+01 0. -1.
        -11    1    1    2    0    0  0.35116771751E+02 -0.70680620604E+00  0.21104094954E+02  0.40976457351E+02  0.00000000000E+00 0. -1.
         11    1    1    2    0    0 -0.41513281884E+02  0.42255443067E+01 -0.82545393410E+01  0.42536398733E+02  0.00000000000E+00 0.  1.
</event>
<event>
 7    1  0.6473813E-006  0.1089455E+03  0.7561462E-02  0.1262535E+00
          2   -1    0    0  501    0  0.00000000000E+00  0.00000000000E+00  0.10072244758E+03  0.10072244758E+03  0.00000000000E+00 0. -1.
         -2   -1    0    0    0  501 -0.00000000000E+00 -0.00000000000E+00 -0.18212008770E+03  0.18212008770E+03  0.00000000000E+00 0.  1.
         23    2    1    2    0    0  0.80808605963E+01  0.72922861015E+02 -0.71917544665E+02  0.16187460692E+03  0.12509281021E+03 0.  0.
          5    1    3    3  502    0  0.36513009037E+02 -0.14986294128E+02  0.69900543690E+01  0.40300398270E+02  0.41800000000E+01 0.  1.
         -5    1    3    3    0  502 -0.28432148441E+02  0.87909155143E+02 -0.78907599034E+02  0.12157420865E+03  0.41800000000E+01 0.  1.
        -11    1    1    2    0    0 -0.26407209095E+02 -0.47916811149E+02  0.36314059095E+02  0.65666371689E+02  0.00000000000E+00 0. -1.
         11    1    1    2    0    0  0.18326348498E+02 -0.25006049866E+02 -0.45794154549E+02  0.55301556669E+02  0.00000000000E+00 0.  1.
</event>
<event>
 7    1  0.6473813E-006  0.5737102E+02  0.7561462E-02  0.1409208E+00
         -2   -1    0    0    0  501 -0.00000000000E+00  0.00000000000E+00  0.11980599593E+03  0.11980599593E+03  0.00000000000E+00 0. -1.
          2   -1    0    0  501    0  0.00000000000E+00 -0.00000000000E+00 -0.12265891415E+03  0.12265891415E+03  0.00000000000E+00 0.  1.
         23    2    1    2    0    0  0.54443784130E+02 -0.71150249800E+00 -0.55243266995E+00  0.13641909694E+03  0.12508090567E+03 0.  0.
          5    1    3    3  502    0  0.55757309243E+01  0.20477339513E+01 -0.59354692640E+02  0.59797440815E+02  0.41800000000E+01 0. -1.
         -5    1    3    3    0  502  0.48868053206E+02 -0.27592364493E+01  0.58802259970E+02  0.76621656126E+02  0.41800000000E+01 0. -1.
        -11    1    1    2    0    0 -0.29026100532E+02 -0.10100197967E+02 -0.45418346806E+02  0.54839353913E+02  0.00000000000E+00 0.  1.
         11    1    1    2    0    0 -0.25417683599E+02  0.10811700465E+02  0.43117861257E+02  0.51206459220E+02  0.00000000000E+00 0. -1.
</event>
<event>
 7    1  0.6473813E-006  0.1260981E+03  0.7561462E-02  0.1233363E+00
          3   -1    0    0  501    0  0.00000000000E+00  0.00000000000E+00  0.33860027733E+03  0.33860027733E+03  0.00000000000E+00 0. -1.
         -3   -1    0    0    0  501 -0.00000000000E+00 -0.00000000000E+00 -0.47947395396E+02  0.47947395396E+02  0.00000000000E+00 0.  1.
         23    2    1    2    0    0  0.64676430627E+02  0.16666998976E+02  0.15053729113E+03  0.20680835336E+03  0.12508952580E+03 0.  0.
          5    1    3    3  502    0  0.93727682960E+02 -0.18876887897E+02  0.10253911255E+03  0.14026032030E+03  0.41800000000E+01 0. -1.
         -5    1    3    3    0  502 -0.29051252333E+02  0.35543886872E+02  0.47998178580E+02  0.66548033052E+02  0.41800000000E+01 0. -1.
        -11    1    1    2    0    0  0.15911693615E+02  0.16799239375E+02  0.16464374181E+02  0.28398451621E+02  0.00000000000E+00 0.  1.
         11    1    1    2    0    0 -0.80588124243E+02 -0.33466238351E+02  0.12365121663E+03  0.15134086775E+03  0.00000000000E+00 0. -1.
</event>
<event>
 7    1  0.6473813E-006  0.1479223E+03  0.7561462E-02  0.1203050E+00
          1   -1    0    0  501    0  0.00000000000E+00  0.00000000000E+00  0.23187859539E+03  0.23187859539E+03  0.00000000000E+00 0. -1.
         -1   -1    0    0    0  501 -0.00000000000E+00 -0.00000000000E+00 -0.94418354334E+02  0.94418354334E+02  0.00000000000E+00 0.  1.
         23    2    1    2    0    0  0.87654965360E+02  0.48827506715E+02  0.75261148791E+02  0.17714250256E+03  0.12509079635E+03 0.  0.
          5    1    3    3  502    0  0.60568538105E+02 -0.36380475432E+02  0.35913062727E+02  0.79368175456E+02  0.41800000000E+01 0. -1.
         -5    1    3    3    0  502  0.27086427255E+02  0.85207982147E+02  0.39348086064E+02  0.97774327101E+02  0.41800000000E+01 0. -1.
        -11    1    1    2    0    0 -0.74141054212E+02 -0.75401455931E+02  0.49173603476E+02  0.11662040454E+03  0.00000000000E+00 0.  1.
         11    1    1    2    0    0 -0.13513911148E+02  0.26573949216E+02  0.13025488788E+02  0.32534042626E+02  0.00000000000E+00 0. -1.
</event>
<event>
 7    1  0.6473813E-006  0.3779899E+03  0.7561462E-02  0.1051679E+00
          2   -1    0    0  501    0  0.00000000000E+00  0.00000000000E+00  0.17463535393E+04  0.17463535393E+04  0.00000000000E+00 0. -1.
         -2   -1    0    0    0  501 -0.00000000000E+00 -0.00000000000E+00 -0.89226934509E+02  0.89226934509E+02  0.00000000000E+00 0.  1.
         23    2    1    2    0    0 -0.27216568110E+03  0.24727887673E+03  0.61831136632E+03  0.73019740873E+03  0.12513316567E+03 0.  0.
          5    1    3    3  502    0 -0.27463872629E+03  0.19779026137E+03  0.53041207866E+03  0.62920732915E+03  0.41800000000E+01 0. -1.
         -5    1    3    3    0  502  0.24730451849E+01  0.49488615354E+02  0.87899287661E+02  0.10099007958E+03  0.41800000000E+01 0. -1.
        -11    1    1    2    0    0  0.13542396104E+03 -0.12733607497E+03  0.65121343442E+03  0.67722452878E+03  0.00000000000E+00 0.  1.
         11    1    1    2    0    0  0.13674172006E+03 -0.11994280176E+03  0.38760180406E+03  0.42815853630E+03  0.00000000000E+00 0. -1.
</event>
<event>
 7    1  0.6473813E-006  0.1493646E+03  0.7561462E-02  0.1201256E+00
          1   -1    0    0  501    0  0.00000000000E+00  0.00000000000E+00  0.10087877045E+03  0.10087877045E+03  0.00000000000E+00 0. -1.
         -1   -1    0    0    0  501 -0.00000000000E+00 -0.00000000000E+00 -0.46213113779E+03  0.46213113779E+03  0.00000000000E+00 0.  1.
         23    2    1    2    0    0 -0.11606350629E+03 -0.19818144977E+01 -0.37720408592E+03  0.41400691474E+03  0.12507652831E+03 0.  0.
          5    1    3    3  502    0  0.12296528993E+02 -0.16876862034E+02 -0.78803289553E+01  0.22706939068E+02  0.41800000000E+01 0.  1.
         -5    1    3    3    0  502 -0.12836003529E+03  0.14895047536E+02 -0.36932375696E+03  0.39129997567E+03  0.41800000000E+01 0.  1.
        -11    1    1    2    0    0  0.87005395372E+02 -0.41063761183E+02  0.10744714023E+02  0.96807128796E+02  0.00000000000E+00 0.  1.
         11    1    1    2    0    0  0.29058110923E+02  0.43045575681E+02  0.52070045577E+01  0.52195864707E+02  0.00000000000E+00 0. -1.
</event>
<event>
 7    1  0.6473813E-006  0.1221625E+03  0.7561462E-02  0.1239572E+00
          1   -1    0    0  501    0  0.00000000000E+00  0.00000000000E+00  0.15231981739E+03  0.15231981739E+03  0.00000000000E+00 0. -1.
         -1   -1    0    0    0  501 -0.00000000000E+00 -0.00000000000E+00 -0.12525564391E+03  0.12525564391E+03  0.00000000000E+00 0.  1.
         23    2    1    2    0    0 -0.19285959963E+02  0.66871777778E+02 -0.34763371169E+02  0.14730866942E+03  0.12509024421E+03 0.  0.
          5    1    3    3  502    0 -0.67648653664E+02  0.12384342958E+02 -0.26690235601E+02  0.73888790553E+02  0.41800000000E+01 0. -1.
         -5    1    3    3    0  502  0.48362693701E+02  0.54487434820E+02 -0.80731355684E+01  0.73419878869E+02  0.41800000000E+01 0. -1.
        -11    1    1    2    0    0 -0.11628649110E+02 -0.70382897449E+02  0.13216064569E+02  0.72550962062E+02  0.00000000000E+00 0.  1.
         11    1    1    2    0    0  0.30914609073E+02  0.35111196712E+01  0.48611480083E+02  0.57715829816E+02  0.00000000000E+00 0. -1.
</event>
<event>
 7    1  0.6473813E-006  0.1313359E+03  0.7561462E-02  0.1225487E+00
         -3   -1    0    0    0  501 -0.00000000000E+00  0.00000000000E+00  0.55142751094E+02  0.55142751094E+02  0.00000000000E+00 0.  1.
          3   -1    0    0  501    0  0.00000000000E+00 -0.00000000000E+00 -0.35709717497E+03  0.35709717497E+03  0.00000000000E+00 0. -1.
         23    2    1    2    0    0 -0.74538180307E+02  0.50088775516E+02 -0.15988009816E+03  0.22198774092E+03  0.12510829539E+03 0.  0.
          5    1    3    3  502    0  0.11869278303E+02 -0.26668642608E+02 -0.70303430069E+01  0.30314920234E+02  0.41800000000E+01 0. -1.
         -5    1    3    3    0  502 -0.86407458610E+02  0.76757418125E+02 -0.15284975515E+03  0.19167282069E+03  0.41800000000E+01 0. -1.
        -11    1    1    2    0    0  0.14268742365E+02 -0.55229532167E+02 -0.34014316862E+02  0.66414395906E+02  0.00000000000E+00 0.  1.
         11    1    1    2    0    0  0.60269437942E+02  0.51407566507E+01 -0.10806000886E+03  0.12383778924E+03  0.00000000000E+00 0. -1.
</event>
<event>
 7    1  0.6473813E-006  0.1023756E+03  0.7561462E-02  0.1275378E+00
          3   -1    0    0  501    0  0.00000000000E+00  0.00000000000E+00  0.58448402122E+03  0.58448402122E+03  0.00000000000E+00 0. -1.
         -3   -1    0    0    0  501 -0.00000000000E+00 -0.00000000000E+00 -0.23354485222E+02  0.23354485222E+02  0.00000000000E+00 0.  1.
         23    2    1    2    0    0  0.42115910027E+02 -0.19027018275E+01  0.28292259636E+03  0.31220350116E+03  0.12509380661E+03 0.  0.
          5    1    3    3  502    0 -0.21944338347E+02 -0.33162709936E+02  0.31686686280E+02  0.51018014496E+02  0.41800000000E+01 0.  1.
         -5    1    3    3    0  502  0.64060248374E+02  0.31260008108E+02  0.25123591008E+03  0.26118548666E+03  0.41800000000E+01 0.  1.
        -11    1    1    2    0    0  0.12120551390E+02 -0.28653511286E+02  0.14900161268E+03  0.15221501915E+03  0.00000000000E+00 0.  1.
         11    1    1    2    0    0 -0.54236461418E+02  0.30556213114E+02  0.12920532696E+03  0.14341998613E+03  0.00000000000E+00 0. -1.
</event>
<event>
 7    1  0.6473813E-006  0.1594392E+03  0.7561462E-02  0.1189331E+00
          2   -1    0    0  501    0  0.00000000000E+00  0.00000000000E+00  0.91578967259E+02  0.91578967259E+02  0.00000000000E+00 0.  1.
         -2   -1    0    0    0  501 -0.00000000000E+00 -0.00000000000E+00 -0.36738896965E+03  0.36738896965E+03  0.00000000000E+00 0. -1.
         23    2    1    2    0    0  0.91906101497E+02  0.89605368356E+02 -0.23649280944E+03  0.29673126246E+03  0.12507893376E+03 0.  0.
          5    1    3    3  502    0  0.22974986679E+02 -0.27387304185E+02 -0.20089171588E+02  0.41218462593E+02  0.41800000000E+01 0. -1.
         -5    1    3    3    0  502  0.68931114817E+02  0.11699267254E+03 -0.21640363785E+03  0.25551279987E+03  0.41800000000E+01 0. -1.
        -11    1    1    2    0    0 -0.62120345054E+02 -0.11148914486E+02  0.11467817327E+02  0.64146289044E+02  0.00000000000E+00 0.  1.
         11    1    1    2    0    0 -0.29785756443E+02 -0.78456453870E+02 -0.50785010277E+02  0.98090385409E+02  0.00000000000E+00 0. -1.
</event>
<event>
 7    1  0.6473813E-006  0.1094435E+03  0.7561462E-02  0.1261604E+00
         -1   -1    0    0    0  501 -0.00000000000E+00  0.00000000000E+00  0.20015447052E+02  0.20015447052E+02  0.00000000000E+00 0.  1.
          1   -1    0    0  501    0  0.00000000000E+00 -0.00000000000E+00 -0.72650951304E+03  0.72650951304E+03  0.00000000000E+00 0. -1.
         23    2    1    2    0    0  0.25552988121E+02 -0.35504288264E+02 -0.48139435629E+03  0.49930115992E+03  0.12509041667E+03 0.  0.
          5    1    3    3  502    0 -0.34343243681E+02  0.15928088435E+02 -0.28590191226E+03  0.28842770016E+03  0.41800000000E+01 0.  1.
         -5    1    3    3    0  502  0.59896231802E+02 -0.51432376699E+02 -0.19549244403E+03  0.21087345976E+03  0.41800000000E+01 0.  1.
        -11    1    1    2    0    0  0.30891300008E+02  0.33056135514E+02 -0.11214687742E+03  0.12092932906E+03  0.00000000000E+00 0. -1.
         11    1    1    2    0    0 -0.56444288129E+02  0.24481527503E+01 -0.11295283227E+03  0.12629447111E+03  0.00000000000E+00 0.  1.
</event>
<event>
 7    1  0.6473813E-006  0.2405658E+03  0.7561462E-02  0.1119416E+00
         -2   -1    0    0    0  501 -0.00000000000E+00  0.00000000000E+00  0.34322862257E+03  0.34322862257E+03  0.00000000000E+00 0.  1.
          2   -1    0    0  501    0  0.00000000000E+00 -0.00000000000E+00 -0.23456736808E+03  0.23456736808E+03  0.00000000000E+00 0. -1.
         23    2    1    2    0    0  0.11906467343E+02  0.23965067382E+03  0.14919170311E+03  0.30899779350E+03  0.12508901905E+03 0.  0.
          5    1    3    3  502    0  0.10792674828E+02  0.13878108832E+03  0.13570662095E+02  0.13992250560E+03  0.41800000000E+01 0.  1.
         -5    1    3    3    0  502  0.11137925148E+01  0.10086958551E+03  0.13562104101E+03  0.16907528790E+03  0.41800000000E+01 0.  1.
        -11    1    1    2    0    0 -0.12722218955E+01 -0.19510100680E+03  0.16327710260E+02  0.19578716895E+03  0.00000000000E+00 0.  1.
         11    1    1    2    0    0 -0.10634245447E+02 -0.44549667017E+02 -0.56858158871E+02  0.73011028193E+02  0.00000000000E+00 0. -1.
</event>
<event>
 7    1  0.6473813E-006  0.8522580E+02  0.7561462E-02  0.1314843E+00
          3   -1    0    0  501    0  0.00000000000E+00  0.00000000000E+00  0.17767535537E+03  0.17767535537E+03  0.00000000000E+00 0. -1.
         -3   -1    0    0    0  501 -0.00000000000E+00 -0.00000000000E+00 -0.98181457117E+02  0.98181457117E+02  0.00000000000E+00 0.  1.
         23    2    1    2    0    0 -0.22873977616E+02 -0.22191426031E+02 -0.29069747701E+02  0.13231448971E+03  0.12508555358E+03 0.  0.
          5    1    3    3  502    0  0.28204289527E+02 -0.58586098075E+02 -0.23285094784E+02  0.69191624309E+02  0.41800000000E+01 0.  1.
         -5    1    3    3    0  502 -0.51078267143E+02  0.36394672044E+02 -0.57846529169E+01  0.63122865404E+02  0.41800000000E+01 0.  1.
        -11    1    1    2    0    0  0.20702960313E+02  0.57255031752E+00  0.11803634553E+03  0.11983955626E+03  0.00000000000E+00 0. -1.
         11    1    1    2    0    0  0.21710173030E+01  0.21618875714E+02 -0.94726995712E+01  0.23702766514E+02  0.00000000000E+00 0.  1.
</event>
<event>
 7    1  0.6473813E-006  0.7011235E+02  0.7561462E-02  0.1359711E+00
         -1   -1    0    0    0  501 -0.00000000000E+00  0.00000000000E+00  0.10280418495E+03  0.10280418495E+03  0.00000000000E+00 0.  1.
          1   -1    0    0  501    0  0.00000000000E+00 -0.00000000000E+00 -0.21965972046E+03  0.21965972046E+03  0.00000000000E+00 0. -1.
         23    2    1    2    0    0 -0.83388836787E+01  0.29390457233E+02  0.44044803483E+02  0.13609231626E+03  0.12509131814E+03 0.  0.
          5    1    3    3  502    0 -0.22218760794E+02  0.30849308082E+02 -0.37317381241E+02  0.53436059763E+02  0.41800000000E+01 0.  1.
         -5    1    3    3    0  502  0.13879877115E+02 -0.14588508483E+01  0.81362184724E+02  0.82656256494E+02  0.41800000000E+01 0.  1.
        -11    1    1    2    0    0 -0.25173668669E+02  0.16856506300E+02 -0.92099165988E+02  0.96954173580E+02  0.00000000000E+00 0. -1.
         11    1    1    2    0    0  0.33512552348E+02 -0.46246963533E+02 -0.68801173001E+02  0.89417415571E+02  0.00000000000E+00 0.  1.
</event>
<event>
 7    1  0.6473813E-006  0.1733477E+03  0.7561462E-02  0.1174401E+00
         -1   -1    0    0    0  501 -0.00000000000E+00  0.00000000000E+00  0.91141730194E+02  0.91141730194E+02  0.00000000000E+00 0.  1.
          1   -1    0    0  501    0  0.00000000000E+00 -0.00000000000E+00 -0.36146181818E+03  0.36146181818E+03  0.00000000000E+00 0. -1.
         23    2    1    2    0    0  0.10418707609E+03 -0.87722053903E+02 -0.81812402682E+02  0.20221499557E+03  0.12509008607E+03 0.  0.
          5    1    3    3  502    0  0.72134899038E+02 -0.11750847087E+03 -0.77041662619E+02  0.15800181823E+03  0.41800000000E+01 0. -1.
         -5    1    3    3    0  502  0.32052177053E+02  0.29786416965E+02 -0.47707400624E+01  0.44213177336E+02  0.41800000000E+01 0. -1.
        -11    1    1    2    0    0  0.28439059328E+01  0.51826265989E+02 -0.60413016241E+02  0.79647863617E+02  0.00000000000E+00 0.  1.
         11    1    1    2    0    0 -0.10703098202E+03  0.35895787913E+02 -0.12809466906E+03  0.17074068919E+03  0.00000000000E+00 0. -1.
</event>
<event>
 7    1  0.6473813E-006  0.1423968E+03  0.7561462E-02  0.1210140E+00
          2   -1    0    0  501    0  0.00000000000E+00  0.00000000000E+00  0.57926851019E+03  0.57926851019E+03  0.00000000000E+00 0.  1.
         -2   -1    0    0    0  501 -0.00000000000E+00 -0.00000000000E+00 -0.47317077837E+02  0.47317077837E+02  0.00000000000E+00 0. -1.
         23    2    1    2    0    0  0.12273020683E+03  0.66397032195E+01  0.23983607096E+03  0.29711359006E+03  0.12509338567E+03 0.  0.
          5    1    3    3  502    0  0.38726207659E+02  0.52956505351E+02  0.15734956913E+03  0.17052996782E+03  0.41800000000E+01 0.  1.
         -5    1    3    3    0  502  0.84003999168E+02 -0.46316802131E+02  0.82486501832E+02  0.12658362224E+03  0.41800000000E+01 0.  1.
        -11    1    1    2    0    0 -0.27809927334E+02 -0.38572929033E+01  0.69676903249E+01  0.28927832192E+02  0.00000000000E+00 0. -1.
         11    1    1    2    0    0 -0.94920279494E+02 -0.27824103162E+01  0.28514767107E+03  0.30054416578E+03  0.00000000000E+00 0.  1.
</event>
<event>
 7    1  0.6473813E-006  0.1282945E+03  0.7561462E-02  0.1230009E+00
         -1   -1    0    0    0  501 -0.00000000000E+00  0.00000000000E+00  0.14305407304E+03  0.14305407304E+03  0.00000000000E+00 0.  1.
          1   -1    0    0  501    0  0.00000000000E+00 -0.00000000000E+00 -0.19087557793E+03  0.19087557793E+03  0.00000000000E+00 0. -1.
         23    2    1    2    0    0  0.11860910313E+03 -0.29553533831E+02  0.16630018841E+02  0.16907365790E+03  0.11561926121E+03 0.  0.
          5    1    3    3  502    0  0.80161959439E+01 -0.50910347924E+01 -0.40738458805E+02  0.42038939787E+02  0.41800000000E+01 0. -1.
         -5    1    3    3    0  502  0.11059290718E+03 -0.24462499038E+02  0.57368477646E+02  0.12703471811E+03  0.41800000000E+01 0.  1.
        -11    1    1    2    0    0 -0.10250745707E+03  0.43703138925E+02 -0.81010535325E+02  0.13776955375E+03  0.00000000000E+00 0. -1.
         11    1    1    2    0    0 -0.16101646059E+02 -0.14149605094E+02  0.16559011592E+02  0.27086439321E+02  0.00000000000E+00 0.  1.
</event>
<event>
 7    1  0.6473813E-006  0.1419980E+03  0.7561462E-02  0.1210666E+00
         -1   -1    0    0    0  501 -0.00000000000E+00  0.00000000000E+00  0.87436142214E+02  0.87436142214E+02  0.00000000000E+00 0.  1.
          1   -1    0    0  501    0  0.00000000000E+00 -0.00000000000E+00 -0.25454890425E+03  0.25454890425E+03  0.00000000000E+00 0. -1.
         23    2    1    2    0    0  0.95364787895E+02 -0.27721941600E+02 -0.66181942945E+02  0.17289253552E+03  0.12509528548E+03 0.  0.
          5    1    3    3  502    0  0.61729985451E+02  0.43628996892E+02 -0.53940490038E+02  0.92957674988E+02  0.41800000000E+01 0. -1.
         -5    1    3    3    0  502  0.33634802444E+02 -0.71350938492E+02 -0.12241452907E+02  0.79934860533E+02  0.41800000000E+01 0. -1.
        -11    1    1    2    0    0 -0.42768026513E+02 -0.29207412027E+02 -0.66484499194E+02  0.84275534067E+02  0.00000000000E+00 0. -1.
         11    1    1    2    0    0 -0.52596761383E+02  0.56929353627E+02 -0.34446319896E+02  0.84816976878E+02  0.00000000000E+00 0.  1.
</event>
<event>
 7    1  0.6473813E-006  0.9561037E+02  0.7561462E-02  0.1289807E+00
          3   -1    0    0  501    0  0.00000000000E+00  0.00000000000E+00  0.13118507360E+03  0.13118507360E+03  0.00000000000E+00 0.  1.
         -3   -1    0    0    0  501 -0.00000000000E+00 -0.00000000000E+00 -0.97907832971E+02  0.97907832971E+02  0.00000000000E+00 0. -1.
         23    2    1    2    0    0 -0.14639358935E+01  0.24399253075E+02 -0.29777721592E+01  0.12748938250E+03  0.12508880392E+03 0.  0.
          5    1    3    3  502    0  0.41173438059E+02  0.57517128848E+02 -0.14001675340E+02  0.72228743758E+02  0.41800000000E+01 0. -1.
         -5    1    3    3    0  502 -0.42637373953E+02 -0.33117875773E+02  0.11023903181E+02  0.55260638746E+02  0.41800000000E+01 0. -1.
        -11    1    1    2    0    0  0.14150389291E+02  0.17459209323E+02  0.50768057958E+02  0.55519845246E+02  0.00000000000E+00 0.  1.
         11    1    1    2    0    0 -0.12686453398E+02 -0.41858462398E+02 -0.14513045166E+02  0.46083678825E+02  0.00000000000E+00 0. -1.
</event>
<event>
 6    1  0.6473813E-006  0.9477403E+02  0.7561462E-02  0.1291686E+00
          1   -1    0    0  501    0  0.00000000000E+00  0.00000000000E+00  0.27063219709E+03  0.27063219709E+03  0.00000000000E+00 0. -1.
         -1   -1    0    0    0  501 -0.00000000000E+00 -0.00000000000E+00 -0.10700253978E+03  0.10700253978E+03  0.00000000000E+00 0.  1.
          5    1    1    2  502    0  0.42943336784E+02 -0.21433302834E+02  0.11600680060E+02  0.49553655994E+02  0.41800000000E+01 0. -1.
         -5    1    1    2    0  502 -0.60397626648E+02  0.32829782930E+02 -0.62946039932E+02  0.93302434561E+02  0.41800000000E+01 0.  1.
        -11    1    1    2    0    0 -0.26776266035E+02 -0.88353925503E+01  0.19344951859E+02  0.34194440290E+02  0.00000000000E+00 0.  1.
         11    1    1    2    0    0  0.44230555899E+02 -0.25610875458E+01  0.19563006533E+03  0.20058420602E+03  0.00000000000E+00 0. -1.
</event>
<event>
 7    1  0.6473813E-006  0.3483981E+03  0.7561462E-02  0.1063274E+00
         -1   -1    0    0    0  501 -0.00000000000E+00  0.00000000000E+00  0.23540266358E+03  0.23540266358E+03  0.00000000000E+00 0.  1.
          1   -1    0    0  501    0  0.00000000000E+00 -0.00000000000E+00 -0.69365500335E+03  0.69365500335E+03  0.00000000000E+00 0. -1.
         23    2    1    2    0    0 -0.11456369717E+03 -0.14550135263E+03  0.49334253906E+02  0.22213663169E+03  0.11231798700E+03 0.  0.
          5    1    3    3  502    0 -0.69190004377E+02 -0.57657406823E+01  0.18217905595E+02  0.71901772966E+02  0.41800000000E+01 0. -1.
         -5    1    3    3    0  502 -0.45373692789E+02 -0.13973561194E+03  0.31116348311E+02  0.15023485872E+03  0.41800000000E+01 0.  1.
        -11    1    1    2    0    0  0.18761468685E+03 -0.10797753747E+03 -0.30644540060E+03  0.37518955591E+03  0.00000000000E+00 0.  1.
         11    1    1    2    0    0 -0.73050989683E+02  0.25347889010E+03 -0.20114119308E+03  0.33173147932E+03  0.00000000000E+00 0. -1.
</event>
<event>
 7    1  0.6473813E-006  0.9471273E+02  0.7561462E-02  0.1291824E+00
          2   -1    0    0  501    0  0.00000000000E+00  0.00000000000E+00  0.22951124374E+03  0.22951124374E+03  0.00000000000E+00 0. -1.
         -2   -1    0    0    0  501 -0.00000000000E+00 -0.00000000000E+00 -0.65734298672E+02  0.65734298672E+02  0.00000000000E+00 0.  1.
         23    2    1    2    0    0  0.37987426225E+01 -0.20080873965E+02  0.26133378739E+02  0.12941413649E+03  0.12508954110E+03 0.  0.
          5    1    3    3  502    0  0.59157638530E+02  0.14201069784E+02  0.18469977330E+02  0.63717415531E+02  0.41800000000E+01 0. -1.
         -5    1    3    3    0  502 -0.55358895907E+02 -0.34281943749E+02  0.76634014093E+01  0.65696720956E+02  0.41800000000E+01 0. -1.
        -11    1    1    2    0    0 -0.15921789096E+02 -0.17528708370E+02  0.12041906779E+03  0.12272534731E+03  0.00000000000E+00 0. -1.
         11    1    1    2    0    0  0.12123046474E+02  0.37609582335E+02  0.17224498538E+02  0.43106058613E+02  0.00000000000E+00 0.  1.
</event>
<event>
 7    1  0.6473813E-006  0.9750554E+02  0.7561462E-02  0.1285631E+00
          3   -1    0    0  501    0  0.00000000000E+00  0.00000000000E+00  0.77366568313E+02  0.77366568313E+02  0.00000000000E+00 0. -1.
         -3   -1    0    0    0  501 -0.00000000000E+00 -0.00000000000E+00 -0.21623041723E+03  0.21623041723E+03  0.00000000000E+00 0.  1.
         23    2    1    2    0    0  0.53037523754E+02  0.46269001308E+02 -0.82104875782E+02  0.16534766825E+03  0.12507934027E+03 0.  0.
          5    1    3    3  502    0  0.19823867441E+02  0.44621101428E+02 -0.11084622730E+03  0.12119565554E+03  0.41800000000E+01 0.  1.
         -5    1    3    3    0  502  0.33213656313E+02  0.16478998806E+01  0.28741351523E+02  0.44152012718E+02  0.41800000000E+01 0.  1.
        -11    1    1    2    0    0 -0.77221917956E+02 -0.42087742181E+02 -0.54812191144E+02  0.10362904493E+03  0.00000000000E+00 0. -1.
         11    1    1    2    0    0  0.24184394202E+02 -0.41812591271E+01 -0.19467819876E+01  0.24620272357E+02  0.00000000000E+00 0.  1.
</event>
<event>
 7    1  0.6473813E-006  0.1083079E+03  0.7561462E-02  0.1263736E+00
         -1   -1    0    0    0  501 -0.00000000000E+00  0.00000000000E+00  0.84607946383E+02  0.84607946383E+02  0.00000000000E+00 0.  1.
          1   -1    0    0  501    0  0.00000000000E+00 -0.00000000000E+00 -0.22723530419E+03  0.22723530419E+03  0.00000000000E+00 0. -1.
         23    2    1    2    0    0  0.17944980605E+01 -0.62155577182E+02 -0.29969898100E+02  0.14287265333E+03  0.12509142369E+03 0.  0.
          5    1    3    3  502    0 -0.48608011087E+02  0.10846482483E+02 -0.30458076076E+01  0.50071291855E+02  0.41800000000E+01 0. -1.
         -5    1    3    3    0  502  0.50402509147E+02 -0.73002059665E+02 -0.26924090492E+02  0.92801361480E+02  0.41800000000E+01 0. -1.
        -11    1    1    2    0    0  0.20369453581E+02  0.46279892546E+02  0.25038105332E+01  0.50626200336E+02  0.00000000000E+00 0.  1.
         11    1    1    2    0    0 -0.22163951641E+02  0.15875684636E+02 -0.11516127024E+03  0.11834439691E+03  0.00000000000E+00 0. -1.
</event>
<event>
 6    1  0.6473813E-006  0.1335476E+03  0.7561462E-02  0.1222285E+00
          1   -1    0    0  501    0  0.00000000000E+00  0.00000000000E+00  0.78558363850E+02  0.78558363850E+02  0.00000000000E+00 0. -1.
         -1   -1    0    0    0  501 -0.00000000000E+00 -0.00000000000E+00 -0.25337285969E+03  0.25337285969E+03  0.00000000000E+00 0.  1.
          5    1    1    2  502    0  0.42107626172E+02  0.67695092043E+02 -0.20587103296E+02  0.82443792311E+02  0.41800000000E+01 0. -1.
         -5    1    1    2    0  502  0.28542574254E+02 -0.75066042784E+02 -0.63385615917E+02  0.10239530277E+03  0.41800000000E+01 0.  1.
        -11    1    1    2    0    0 -0.45541854290E+01  0.34935950418E+02 -0.54576736236E+01  0.35651752242E+02  0.00000000000E+00 0. -1.
         11    1    1    2    0    0 -0.66096014997E+02 -0.27564999677E+02 -0.85384103003E+02  0.11144037622E+03  0.00000000000E+00 0.  1.
</event>
<event>
 6    1  0.6473813E-006  0.6952788E+02  0.7561462E-02  0.1361706E+00
          1   -1    0    0  501    0  0.00000000000E+00  0.00000000000E+00  0.60076335009E+03  0.60076335009E+03  0.00000000000E+00 0. -1.
         -1   -1    0    0    0  501 -0.00000000000E+00 -0.00000000000E+00 -0.38576206806E+02  0.38576206806E+02  0.00000000000E+00 0.  1.
          5    1    1    2  502    0  0.52696697083E+01  0.14254333491E+02  0.14935003378E+03  0.15017942746E+03  0.41800000000E+01 0. -1.
         -5    1    1    2    0  502  0.19503460866E+01  0.26249410283E+02 -0.27304359496E+02  0.38155416883E+02  0.41800000000E+01 0.  1.
        -11    1    1    2    0    0  0.36388661388E+02  0.10531954250E+01  0.20876612481E+03  0.21191634851E+03  0.00000000000E+00 0.  1.
         11    1    1    2    0    0 -0.43608677183E+02 -0.41556939199E+02  0.23137534419E+03  0.23908836404E+03  0.00000000000E+00 0. -1.
</event>
<event>
 7    1  0.6473813E-006  0.2362301E+03  0.7561462E-02  0.1122330E+00
         -2   -1    0    0    0  501 -0.00000000000E+00  0.00000000000E+00  0.94149387813E+02  0.94149387813E+02  0.00000000000E+00 0. -1.
          2   -1    0    0  501    0  0.00000000000E+00 -0.00000000000E+00 -0.76727170711E+03  0.76727170711E+03  0.00000000000E+00 0.  1.
         23    2    1    2    0    0 -0.55144492942E+02 -0.21132285811E+03 -0.16502907314E+03  0.30096700706E+03  0.12509308093E+03 0.  0.
          5    1    3    3  502    0  0.79925418688E-01 -0.19343517737E+03 -0.12587985064E+03  0.23082543930E+03  0.41800000000E+01 0. -1.
         -5    1    3    3    0  502 -0.55224418361E+02 -0.17887680743E+02 -0.39149222497E+02  0.70141567760E+02  0.41800000000E+01 0. -1.
        -11    1    1    2    0    0  0.33989930027E+02  0.17866567428E+03 -0.47748189595E+03  0.51094588703E+03  0.00000000000E+00 0.  1.
         11    1    1    2    0    0  0.21154562915E+02  0.32657183832E+02 -0.30611350205E+02  0.49508200830E+02  0.00000000000E+00 0. -1.
</event>
<event>
 7    1  0.6473813E-006  0.1264235E+03  0.7561462E-02  0.1232861E+00
          1   -1    0    0  501    0  0.00000000000E+00  0.00000000000E+00  0.48386134004E+03  0.48386134004E+03  0.00000000000E+00 0. -1.
         -1   -1    0    0    0  501 -0.00000000000E+00 -0.00000000000E+00 -0.46517115206E+02  0.46517115206E+02  0.00000000000E+00 0.  1.
         23    2    1    2    0    0  0.36165754721E+02  0.88039014406E+02  0.16735761281E+03  0.22959749074E+03  0.12509039658E+03 0.  0.
          5    1    3    3  502    0  0.56156962572E+02  0.38317884721E+02  0.16180784303E+03  0.17555943495E+03  0.41800000000E+01 0.  1.
         -5    1    3    3    0  502 -0.19991207850E+02  0.49721129685E+02  0.55497697782E+01  0.54038055786E+02  0.41800000000E+01 0.  1.
        -11    1    1    2    0    0  0.13988308121E+01 -0.93071294052E+02  0.16936362565E+03  0.19325697969E+03  0.00000000000E+00 0.  1.
         11    1    1    2    0    0 -0.37564585534E+02  0.50322796455E+01  0.10062298637E+03  0.10752398482E+03  0.00000000000E+00 0. -1.
</event>
<event>
 7    1  0.6473813E-006  0.7303265E+02  0.7561462E-02  0.1350074E+00
         -3   -1    0    0    0  501 -0.00000000000E+00  0.00000000000E+00  0.66451089636E+03  0.66451089636E+03  0.00000000000E+00 0.  1.
          3   -1    0    0  501    0  0.00000000000E+00 -0.00000000000E+00 -0.17217480441E+02  0.17217480441E+02  0.00000000000E+00 0. -1.
         23    2    1    2    0    0  0.16805739122E+01 -0.17552058316E+02  0.56820641126E+03  0.58208430444E+03  0.12511080130E+03 0.  0.
          5    1    3    3  502    0  0.61845043453E+01 -0.56504894151E+02  0.12801205066E+03  0.14012711612E+03  0.41800000000E+01 0.  1.
         -5    1    3    3    0  502 -0.45039304331E+01  0.38952835835E+02  0.44019436059E+03  0.44195718832E+03  0.41800000000E+01 0.  1.
        -11    1    1    2    0    0 -0.10883729363E+02  0.31273350087E+02  0.75912224782E+02  0.82819948454E+02  0.00000000000E+00 0. -1.
         11    1    1    2    0    0  0.92031554511E+01 -0.13721291771E+02  0.31747798836E+01  0.16824123913E+02  0.00000000000E+00 0.  1.
</event>
<event>
 7    1  0.6473813E-006  0.1303103E+03  0.7561462E-02  0.1226996E+00
         -1   -1    0    0    0  501 -0.00000000000E+00  0.00000000000E+00  0.27148117875E+02  0.27148117875E+02  0.00000000000E+00 0.  1.
          1   -1    0    0  501    0  0.00000000000E+00 -0.00000000000E+00 -0.74462375110E+03  0.74462375110E+03  0.00000000000E+00 0. -1.
         23    2    1    2    0    0 -0.33232471168E+02  0.82526085288E+02 -0.36537014288E+03  0.39630528160E+03  0.12509029949E+03 0.  0.
          5    1    3    3  502    0 -0.26561597956E+02  0.11532834281E+03 -0.30442732101E+03  0.32664906447E+03  0.41800000000E+01 0. -1.
         -5    1    3    3    0  502 -0.66708732123E+01 -0.32802257523E+02 -0.60942821866E+02  0.69656217131E+02  0.41800000000E+01 0. -1.
        -11    1    1    2    0    0  0.16430160676E+01 -0.76238906511E+02 -0.32357279402E+03  0.33243709690E+03  0.00000000000E+00 0. -1.
         11    1    1    2    0    0  0.31589455100E+02 -0.62871787771E+01 -0.28532696335E+02  0.43029490476E+02  0.00000000000E+00 0.  1.
</event>
<event>
 7    1  0.6473813E-006  0.1090573E+03  0.7561462E-02  0.1262326E+00
          2   -1    0    0  501    0  0.00000000000E+00  0.00000000000E+00  0.22800866021E+03  0.22800866021E+03  0.00000000000E+00 0. -1.
         -2   -1    0    0    0  501 -0.00000000000E+00 -0.00000000000E+00 -0.84404293910E+02  0.84404293910E+02  0.00000000000E+00 0.  1.
         23    2    1    2    0    0 -0.70450663887E+02  0.33672399851E+02  0.44879414683E+02  0.15413925223E+03  0.12509044993E+03 0.  0.
          5    1    3    3  502    0 -0.85067237138E+02 -0.17142202577E+02  0.36410711894E+01  0.86954124358E+02  0.41800000000E+01 0. -1.
         -5    1    3    3    0  502  0.14616573251E+02  0.50814602429E+02  0.41238343493E+02  0.67185127875E+02  0.41800000000E+01 0. -1.
        -11    1    1    2    0    0  0.51492847424E+02 -0.26646765129E+02  0.49128567491E+00  0.57981072682E+02  0.00000000000E+00 0.  1.
         11    1    1    2    0    0  0.18957816463E+02 -0.70256347221E+01  0.98233665941E+02  0.10029262920E+03  0.00000000000E+00 0. -1.
</event>
<event>
 7    1  0.6473813E-006  0.1077683E+03  0.7561462E-02  0.1264759E+00
          2   -1    0    0  501    0  0.00000000000E+00  0.00000000000E+00  0.57693756437E+03  0.57693756437E+03  0.00000000000E+00 0. -1.
         -2   -1    0    0    0  501 -0.00000000000E+00 -0.00000000000E+00 -0.29734864196E+02  0.29734864196E+02  0.00000000000E+00 0.  1.
         23    2    1    2    0    0 -0.24038326357E+01  0.43459743377E+02  0.16525332297E+03  0.21178275140E+03  0.12509494527E+03 0.  0.
          5    1    3    3  502    0  0.46828138608E+02  0.46378088912E+02  0.14300451361E+03  0.15751687215E+03  0.41800000000E+01 0. -1.
         -5    1    3    3    0  502 -0.49231971244E+02 -0.29183455353E+01  0.22248809355E+02  0.54265879251E+02  0.41800000000E+01 0. -1.
        -11    1    1    2    0    0  0.32560646847E+02  0.13738311492E+02  0.14888524981E+03  0.15302207206E+03  0.00000000000E+00 0.  1.
         11    1    1    2    0    0 -0.30156814211E+02 -0.57198054869E+02  0.23306412739E+03  0.24186760511E+03  0.00000000000E+00 0. -1.
</event>
<event>
 7    1  0.6473813E-006  0.1637804E+03  0.7561462E-02  0.1184494E+00
         -1   -1    0    0    0  501 -0.00000000000E+00  0.00000000000E+00  0.28757518007E+03  0.28757518007E+03  0.00000000000E+00 0.  1.
          1   -1    0    0  501    0  0.00000000000E+00 -0.00000000000E+00 -0.10148163131E+03  0.10148163131E+03  0.00000000000E+00 0. -1.
         23    2    1    2    0    0  0.94376873920E+02 -0.92856137161E+02  0.10003295649E+03  0.20780580366E+03  0.12508958034E+03 0.  0.
          5    1    3    3  502    0  0.10074404545E+03 -0.15465071575E+02  0.73144884994E+02  0.12552361424E+03  0.41800000000E+01 0. -1.
         -5    1    3    3    0  502 -0.63671715253E+01 -0.77391065586E+02  0.26888071499E+02  0.82282189414E+02  0.41800000000E+01 0. -1.
        -11    1    1    2    0    0 -0.43187969775E+02  0.85874776376E+02  0.21383192237E+02  0.98472934663E+02  0.00000000000E+00 0.  1.
         11    1    1    2    0    0 -0.51188904145E+02  0.69813607855E+01  0.64677400030E+02  0.82778073067E+02  0.00000000000E+00 0. -1.
</event>
<event>
 7    1  0.6473813E-006  0.8787612E+02  0.7561462E-02  0.1308078E+00
          1   -1    0    0  501    0  0.00000000000E+00  0.00000000000E+00  0.37595126315E+03  0.37595126315E+03  0.00000000000E+00 0. -1.
         -1   -1    0    0    0  501 -0.00000000000E+00 -0.00000000000E+00 -0.41292212706E+02  0.41292212706E+02  0.00000000000E+00 0.  1.
         23    2    1    2    0    0 -0.47916278764E+02  0.23316970709E+02  0.12852028478E+03  0.18709613776E+03  0.12509136769E+03 0.  0.
          5    1    3    3  502    0  0.24486147678E+02 -0.14883565140E+02 -0.59968658372E+01  0.29572398267E+02  0.41800000000E+01 0.  1.
         -5    1    3    3    0  502 -0.72402426443E+02  0.38200535849E+02  0.13451715062E+03  0.15752373949E+03  0.41800000000E+01 0.  1.
        -11    1    1    2    0    0  0.54198471270E+01  0.96319960202E+01 -0.50996792550E+01  0.12171968564E+02  0.00000000000E+00 0.  1.
         11    1    1    2    0    0  0.42496431637E+02 -0.32948966729E+02  0.21123844492E+03  0.21797536953E+03  0.00000000000E+00 0. -1.
</event>
<event>
 7    1  0.6473813E-006  0.1101744E+03  0.7561462E-02  0.1260247E+00
          1   -1    0    0  501    0  0.00000000000E+00  0.00000000000E+00  0.64856590724E+02  0.64856590724E+02  0.00000000000E+00 0. -1.
         -1   -1    0    0    0  501 -0.00000000000E+00 -0.00000000000E+00 -0.21421726837E+03  0.21421726837E+03  0.00000000000E+00 0.  1.
         23    2    1    2    0    0 -0.22570065689E+02 -0.39993757127E+02 -0.10596914490E+03  0.17023922296E+03  0.12507207877E+03 0.  0.
          5    1    3    3  502    0 -0.47875787542E+02  0.30789988320E+02 -0.55430346442E+02  0.79561989167E+02  0.41800000000E+01 0.  1.
         -5    1    3    3    0  502  0.25305721853E+02 -0.70783745447E+02 -0.50538798458E+02  0.90677233789E+02  0.41800000000E+01 0.  1.
        -11    1    1    2    0    0 -0.12311520931E+02  0.50163522473E+02  0.75646030043E+00  0.51657765793E+02  0.00000000000E+00 0. -1.
         11    1    1    2    0    0  0.34881586620E+02 -0.10169765346E+02 -0.44147993042E+02  0.57176870341E+02  0.00000000000E+00 0.  1.
</event>
<event>
 7    1  0.6473813E-006  0.9589197E+02  0.7561462E-02  0.1289180E+00
         -2   -1    0    0    0  501 -0.00000000000E+00  0.00000000000E+00  0.41598131002E+02  0.41598131002E+02  0.00000000000E+00 0.  1.
          2   -1    0    0  501    0  0.00000000000E+00 -0.00000000000E+00 -0.46676267095E+03  0.46676267095E+03  0.00000000000E+00 0. -1.
         23    2    1    2    0    0 -0.19453350720E+02 -0.26591037919E+02 -0.85192700065E+02  0.15489100877E+03  0.12509161563E+03 0.  0.
          5    1    3    3  502    0 -0.23612996238E+02  0.33045926269E+02 -0.85734846631E+02  0.94960745370E+02  0.41800000000E+01 0.  1.
         -5    1    3    3    0  502  0.41596455186E+01 -0.59636964188E+02  0.54214656570E+00  0.59930263401E+02  0.41800000000E+01 0.  1.
        -11    1    1    2    0    0  0.52511499786E+02  0.24377603691E+02 -0.26879987209E+03  0.27496380927E+03  0.00000000000E+00 0.  1.
         11    1    1    2    0    0 -0.33058149067E+02  0.22134342272E+01 -0.71171967793E+02  0.78505983914E+02  0.00000000000E+00 0. -1.
</event>
<event>
 7    1  0.6473813E-006  0.1548452E+03  0.7561462E-02  0.1194643E+00
          2   -1    0    0  501    0  0.00000000000E+00  0.00000000000E+00  0.82996028208E+02  0.82996028208E+02  0.00000000000E+00 0.  1.
         -2   -1    0    0    0  501 -0.00000000000E+00 -0.00000000000E+00 -0.54189675457E+03  0.54189675457E+03  0.00000000000E+00 0. -1.
         23    2    1    2    0    0 -0.11574327196E+03 -0.72999456979E+02 -0.41440251626E+03  0.45398554486E+03  0.12509198108E+03 0.  0.
          5    1    3    3  502    0 -0.18603826100E+02  0.61996787087E+01 -0.23064944691E+03  0.23151928239E+03  0.41800000000E+01 0. -1.
         -5    1    3    3    0  502 -0.97139445864E+02 -0.79199135688E+02 -0.18375306936E+03  0.22246626246E+03  0.41800000000E+01 0. -1.
        -11    1    1    2    0    0  0.76183427429E+02 -0.54488798448E+01 -0.28966699312E+02  0.81686440585E+02  0.00000000000E+00 0. -1.
         11    1    1    2    0    0  0.39559844535E+02  0.78448336824E+02 -0.15531510786E+02  0.89220797336E+02  0.00000000000E+00 0.  1.
</event>
<event>
 7    1  0.6473813E-006  0.1129204E+03  0.7561462E-02  0.1255255E+00
         -1   -1    0    0    0  501 -0.00000000000E+00  0.00000000000E+00  0.55444987509E+02  0.55444987509E+02  0.00000000000E+00 0.  1.
          1   -1    0    0  501    0  0.00000000000E+00 -0.00000000000E+00 -0.35425050081E+03  0.35425050081E+03  0.00000000000E+00 0. -1.
         23    2    1    2    0    0 -0.18474882326E+02 -0.77934404415E+02 -0.11271642814E+03  0.18647093785E+03  0.12510525498E+03 0.  0.
          5    1    3    3  502    0  0.82716493846E+01 -0.10475768995E+03 -0.58930600929E+02  0.12055240318E+03  0.41800000000E+01 0.  1.
         -5    1    3    3    0  502 -0.26746531710E+02  0.26823285531E+02 -0.53785827210E+02  0.65918534676E+02  0.41800000000E+01 0.  1.
        -11    1    1    2    0    0  0.22689279542E+02  0.60138146956E+02 -0.19319298202E+03  0.20360483400E+03  0.00000000000E+00 0. -1.
         11    1    1    2    0    0 -0.42143972164E+01  0.17796257459E+02  0.71038968626E+01  0.19619716463E+02  0.00000000000E+00 0.  1.
</event>
<event>
 7    1  0.6473813E-006  0.1234034E+03  0.7561462E-02  0.1237586E+00
         -1   -1    0    0    0  501 -0.00000000000E+00  0.00000000000E+00  0.69292228692E+02  0.69292228692E+02  0.00000000000E+00 0.  1.
          1   -1    0    0  501    0  0.00000000000E+00 -0.00000000000E+00 -0.44641022743E+03  0.44641022743E+03  0.00000000000E+00 0. -1.
         23    2    1    2    0    0 -0.67796163992E+02  0.91276536996E+02 -0.83835235239E+02  0.18869046062E+03  0.12509203493E+03 0.  0.
          5    1    3    3  502    0  0.37274613434E+01  0.24086366349E+02  0.29645576158E+02  0.38605434820E+02  0.41800000000E+01 0.  1.
         -5    1    3    3    0  502 -0.71523625335E+02  0.67190170647E+02 -0.11348081140E+03  0.15008502580E+03  0.41800000000E+01 0.  1.
        -11    1    1    2    0    0  0.33340725077E+02 -0.81475446778E+02 -0.27072582200E+03  0.28467933377E+03  0.00000000000E+00 0. -1.
         11    1    1    2    0    0  0.34455438914E+02 -0.98010902179E+01 -0.22556941503E+02  0.42332661743E+02  0.00000000000E+00 0.  1.
</event>
<event>
 7    1  0.6473813E-006  0.2799481E+03  0.7561462E-02  0.1095717E+00
          1   -1    0    0  501    0  0.00000000000E+00  0.00000000000E+00  0.27860774833E+03  0.27860774833E+03  0.00000000000E+00 0. -1.
         -1   -1    0    0    0  501 -0.00000000000E+00 -0.00000000000E+00 -0.29388640161E+03  0.29388640161E+03  0.00000000000E+00 0.  1.
         23    2    1    2    0    0 -0.18931548031E+03  0.17719381853E+03 -0.58365860830E+02  0.29375710730E+03  0.12509462007E+03 0.  0.
          5    1    3    3  502    0  0.16323924365E+02  0.11544451422E+02 -0.16730028492E+02  0.26402861940E+02  0.41800000000E+01 0. -1.
         -5    1    3    3    0  502 -0.20563940468E+03  0.16564936711E+03 -0.41635832339E+02  0.26735424536E+03  0.41800000000E+01 0. -1.
        -11    1    1    2    0    0  0.24224757710E+02 -0.80474754040E+02  0.12127872163E+02  0.84912367810E+02  0.00000000000E+00 0.  1.
         11    1    1    2    0    0  0.16509072260E+03 -0.96719064488E+02  0.30959335379E+02  0.19382467483E+03  0.00000000000E+00 0. -1.
</event>
<event>
 7    1  0.6473813E-006  0.9817839E+02  0.7561462E-02  0.1284174E+00
         -1   -1    0    0    0  501 -0.00000000000E+00  0.00000000000E+00  0.19150301340E+03  0.19150301340E+03  0.00000000000E+00 0.  1.
          1   -1    0    0  501    0  0.00000000000E+00 -0.00000000000E+00 -0.66302862305E+02  0.66302862305E+02  0.00000000000E+00 0. -1.
         23    2    1    2    0    0 -0.38780208796E+01 -0.27474195715E+02  0.62475952960E+02  0.14255079760E+03  0.12509042618E+03 0.  0.
          5    1    3    3  502    0  0.45927584545E+02  0.25627679372E+02  0.40106789686E+02  0.66273282332E+02  0.41800000000E+01 0. -1.
         -5    1    3    3    0  502 -0.49805605425E+02 -0.53101875087E+02  0.22369163274E+02  0.76277515266E+02  0.41800000000E+01 0. -1.
        -11    1    1    2    0    0 -0.30094650066E+02  0.66320319101E+01 -0.99380965629E+01  0.32379585747E+02  0.00000000000E+00 0. -1.
         11    1    1    2    0    0  0.33972670946E+02  0.20842163804E+02  0.72662294696E+02  0.82875492359E+02  0.00000000000E+00 0.  1.
</event>
<event>
 7    1  0.6473813E-006  0.1216521E+03  0.7561462E-02  0.1240396E+00
          1   -1    0    0  501    0  0.00000000000E+00  0.00000000000E+00  0.21974290064E+02  0.21974290064E+02  0.00000000000E+00 0. -1.
         -1   -1    0    0    0  501 -0.00000000000E+00 -0.00000000000E+00 -0.72094045107E+03  0.72094045107E+03  0.00000000000E+00 0.  1.
         23    2    1    2    0    0 -0.26569450902E+02  0.48557041882E+02 -0.46829230640E+03  0.48786257342E+03  0.12509390181E+03 0.  0.
          5    1    3    3  502    0  0.23365512384E+02 -0.31911423489E+02 -0.10137049943E+03  0.10889323520E+03  0.41800000000E+01 0.  1.
         -5    1    3    3    0  502 -0.49934963286E+02  0.80468465370E+02 -0.36692180697E+03  0.37896933821E+03  0.41800000000E+01 0.  1.
        -11    1    1    2    0    0  0.12033536833E+02  0.28176905768E+02 -0.69460802919E+02  0.75918029278E+02  0.00000000000E+00 0.  1.
         11    1    1    2    0    0  0.14535914069E+02 -0.76733947650E+02 -0.16121305169E+03  0.17913413844E+03  0.00000000000E+00 0. -1.
</event>
<event>
 7    1  0.6473813E-006  0.8827533E+02  0.7561462E-02  0.1307083E+00
         -2   -1    0    0    0  501 -0.00000000000E+00  0.00000000000E+00  0.57092935262E+02  0.57092935262E+02  0.00000000000E+00 0.  1.
          2   -1    0    0  501    0  0.00000000000E+00 -0.00000000000E+00 -0.26917540981E+03  0.26917540981E+03  0.00000000000E+00 0. -1.
         23    2    1    2    0    0  0.58525370400E+02  0.10244187429E+02 -0.10210320048E+03  0.17205231750E+03  0.12508706589E+03 0.  0.
          5    1    3    3  502    0  0.69943398826E+02  0.88438490507E+01 -0.12643103379E+03  0.14481909892E+03  0.41800000000E+01 0.  1.
         -5    1    3    3    0  502 -0.11418028426E+02  0.14003383787E+01  0.24327833314E+02  0.27233218585E+02  0.41800000000E+01 0.  1.
        -11    1    1    2    0    0  0.19504731978E+01 -0.30002156330E+02 -0.36228129827E+01  0.30282973831E+02  0.00000000000E+00 0.  1.
         11    1    1    2    0    0 -0.60475843597E+02  0.19757968901E+02 -0.10635646108E+03  0.12393305373E+03  0.00000000000E+00 0. -1.
</event>
<event>
 7    1  0.6473813E-006  0.9894385E+02  0.7561462E-02  0.1282533E+00
         -1   -1    0    0    0  501 -0.00000000000E+00  0.00000000000E+00  0.98758131088E+01  0.98758131088E+01  0.00000000000E+00 0.  1.
          1   -1    0    0  501    0  0.00000000000E+00 -0.00000000000E+00 -0.12824389706E+04  0.12824389706E+04  0.00000000000E+00 0. -1.
         23    2    1    2    0    0 -0.17711370096E+02  0.29441299035E+02 -0.71852932521E+03  0.73014570385E+03  0.12509146632E+03 0.  0.
          5    1    3    3  502    0  0.10839641350E+02  0.59685447741E+02 -0.17992879024E+03  0.18992549185E+03  0.41800000000E+01 0.  1.
         -5    1    3    3    0  502 -0.28551011446E+02 -0.30244148706E+02 -0.53860053497E+03  0.54022021200E+03  0.41800000000E+01 0.  1.
        -11    1    1    2    0    0 -0.13510234196E+02  0.27332095449E+02 -0.17328101832E+03  0.17594283497E+03  0.00000000000E+00 0. -1.
         11    1    1    2    0    0  0.31221604293E+02 -0.56773394484E+02 -0.38075281396E+03  0.38622624488E+03  0.00000000000E+00 0.  1.
</event>
<event>
 7    1  0.6473813E-006  0.1537050E+03  0.7561462E-02  0.1195993E+00
          3   -1    0    0  501    0  0.00000000000E+00  0.00000000000E+00  0.73997402410E+02  0.73997402410E+02  0.00000000000E+00 0. -1.
         -3   -1    0    0    0  501 -0.00000000000E+00 -0.00000000000E+00 -0.37334362440E+03  0.37334362440E+03  0.00000000000E+00 0.  1.
         23    2    1    2    0    0 -0.24703225269E+01  0.12495963333E+03 -0.14588796332E+03  0.22924089205E+03  0.12508827399E+03 0.  0.
          5    1    3    3  502    0  0.34121193819E+02  0.11756939250E+03 -0.61918439861E+02  0.13725226233E+03  0.41800000000E+01 0. -1.
         -5    1    3    3    0  502 -0.36591516346E+02  0.73902408332E+01 -0.83969523458E+02  0.91988629721E+02  0.41800000000E+01 0. -1.
        -11    1    1    2    0    0 -0.37775167396E+02 -0.63657642772E+02 -0.43272253791E+02  0.85742327372E+02  0.00000000000E+00 0. -1.
         11    1    1    2    0    0  0.40245489923E+02 -0.61301990558E+02 -0.11018600488E+03  0.13235780739E+03  0.00000000000E+00 0.  1.
</event>
<event>
 7    1  0.6473813E-006  0.1038918E+03  0.7561462E-02  0.1272319E+00
          2   -1    0    0  501    0  0.00000000000E+00  0.00000000000E+00  0.15811587673E+03  0.15811587673E+03  0.00000000000E+00 0. -1.
         -2   -1    0    0    0  501 -0.00000000000E+00 -0.00000000000E+00 -0.79744810952E+02  0.79744810952E+02  0.00000000000E+00 0.  1.
         23    2    1    2    0    0  0.11544283931E+02  0.21411402093E+02  0.24362065552E+02  0.12970745657E+03  0.12505516951E+03 0.  0.
          5    1    3    3  502    0 -0.21264380125E+02 -0.42657781614E+02  0.31449987280E+02  0.57257613418E+02  0.41800000000E+01 0.  1.
         -5    1    3    3    0  502  0.32808664056E+02  0.64069183707E+02 -0.70879217283E+01  0.72449843150E+02  0.41800000000E+01 0.  1.
        -11    1    1    2    0    0  0.21000669966E+01 -0.53199872833E+02  0.50501591956E+02  0.73382883160E+02  0.00000000000E+00 0.  1.
         11    1    1    2    0    0 -0.13644350927E+02  0.31788470740E+02  0.35074082728E+01  0.34770347956E+02  0.00000000000E+00 0. -1.
</event>
<event>
 7    1  0.6473813E-006  0.1173553E+03  0.7561462E-02  0.1247525E+00
         -1   -1    0    0    0  501 -0.00000000000E+00  0.00000000000E+00  0.23895835461E+02  0.23895835461E+02  0.00000000000E+00 0.  1.
          1   -1    0    0  501    0  0.00000000000E+00 -0.00000000000E+00 -0.60399886510E+03  0.60399886510E+03  0.00000000000E+00 0. -1.
         23    2    1    2    0    0  0.39965313203E+02 -0.26011419442E+02 -0.29091269903E+03  0.32023753407E+03  0.12509220428E+03 0.  0.
          5    1    3    3  502    0 -0.38411529499E+02 -0.34228400186E+02 -0.81755868977E+02  0.96687762876E+02  0.41800000000E+01 0.  1.
         -5    1    3    3    0  502  0.78376842702E+02  0.82169807435E+01 -0.20915683006E+03  0.22354977120E+03  0.41800000000E+01 0.  1.
        -11    1    1    2    0    0 -0.55214331500E+02 -0.17618010342E+02 -0.17959836044E+03  0.18871827618E+03  0.00000000000E+00 0.  1.
         11    1    1    2    0    0  0.15249018297E+02  0.43629429784E+02 -0.10959197017E+03  0.11893889031E+03  0.00000000000E+00 0. -1.
</event>
<event>
 7    1  0.6473813E-006  0.1537685E+03  0.7561462E-02  0.1195917E+00
          2   -1    0    0  501    0  0.00000000000E+00  0.00000000000E+00  0.32214252800E+02  0.32214252800E+02  0.00000000000E+00 0. -1.
         -2   -1    0    0    0  501 -0.00000000000E+00 -0.00000000000E+00 -0.89717037138E+03  0.89717037138E+03  0.00000000000E+00 0.  1.
         23    2    1    2    0    0  0.12369112183E+03 -0.68387350407E+01 -0.58513412647E+03  0.61104401449E+03  0.12508628929E+03 0.  0.
          5    1    3    3  502    0  0.10334486246E+03  0.38688721613E+02 -0.50206884568E+03  0.51406962172E+03  0.41800000000E+01 0. -1.
         -5    1    3    3    0  502  0.20346259371E+02 -0.45527456654E+02 -0.83065280794E+02  0.96974392770E+02  0.41800000000E+01 0. -1.
        -11    1    1    2    0    0 -0.69141640996E+02 -0.35771947724E+02 -0.10827909925E+03  0.13335877211E+03  0.00000000000E+00 0. -1.
         11    1    1    2    0    0 -0.54549480833E+02  0.42610682765E+02 -0.17154289286E+03  0.18498183758E+03  0.00000000000E+00 0.  1.
</event>
<event>
 7    1  0.6473813E-006  0.1353658E+03  0.7561462E-02  0.1219704E+00
          1   -1    0    0  501    0  0.00000000000E+00  0.00000000000E+00  0.54732106588E+02  0.54732106588E+02  0.00000000000E+00 0. -1.
         -1   -1    0    0    0  501 -0.00000000000E+00 -0.00000000000E+00 -0.45282233744E+03  0.45282233744E+03  0.00000000000E+00 0.  1.
         23    2    1    2    0    0 -0.68706810836E+02  0.65244928569E+02 -0.31696539456E+03  0.35368136607E+03  0.12508365520E+03 0.  0.
          5    1    3    3  502    0 -0.93573415335E+02  0.83215835487E+02 -0.26631328944E+03  0.29431462734E+03  0.41800000000E+01 0.  1.
         -5    1    3    3    0  502  0.24866604500E+02 -0.17970906918E+02 -0.50652105123E+02  0.59366738736E+02  0.41800000000E+01 0.  1.
        -11    1    1    2    0    0  0.78114294870E+02 -0.40473599810E+02 -0.90069461742E+02  0.12590656569E+03  0.00000000000E+00 0.  1.
         11    1    1    2    0    0 -0.94074840339E+01 -0.24771328759E+02  0.89446254459E+01  0.27966512273E+02  0.00000000000E+00 0. -1.
</event>
<event>
 7    1  0.6473813E-006  0.2003510E+03  0.7561462E-02  0.1149443E+00
         -2   -1    0    0    0  501 -0.00000000000E+00  0.00000000000E+00  0.25898479327E+02  0.25898479327E+02  0.00000000000E+00 0.  1.
          2   -1    0    0  501    0  0.00000000000E+00 -0.00000000000E+00 -0.17777967915E+04  0.17777967915E+04  0.00000000000E+00 0. -1.
         23    2    1    2    0    0  0.16930381801E+03 -0.66305936317E+02 -0.78343621230E+03  0.81392897235E+03  0.12509121990E+03 0.  0.
          5    1    3    3  502    0  0.83700405596E+02 -0.75221804507E+02 -0.60953404291E+03  0.61984941690E+03  0.41800000000E+01 0. -1.
         -5    1    3    3    0  502  0.85603412409E+02  0.89158681893E+01 -0.17390216939E+03  0.19407955544E+03  0.41800000000E+01 0. -1.
        -11    1    1    2    0    0 -0.10159387339E+03  0.84128943452E+02 -0.70030525850E+03  0.71261942811E+03  0.00000000000E+00 0.  1.
         11    1    1    2    0    0 -0.67709944611E+02 -0.17823007134E+02 -0.26815684142E+03  0.27714687042E+03  0.00000000000E+00 0. -1.
</event>
<event>
 7    1  0.6473813E-006  0.1072711E+03  0.7561462E-02  0.1265709E+00
         -4   -1    0    0    0  501 -0.00000000000E+00  0.00000000000E+00  0.20108727457E+03  0.20108727457E+03  0.00000000000E+00 0.  1.
          4   -1    0    0  501    0  0.00000000000E+00 -0.00000000000E+00 -0.62648876320E+02  0.62648876320E+02  0.00000000000E+00 0. -1.
         23    2    1    2    0    0 -0.29171273768E+02 -0.86390265527E+01  0.71629493773E+02  0.14732383570E+03  0.12509169515E+03 0.  0.
          5    1    3    3  502    0  0.54295288809E+01 -0.63070911388E+02  0.42947783281E+02  0.76612036495E+02  0.41800000000E+01 0.  1.
         -5    1    3    3    0  502 -0.34600802649E+02  0.54431884835E+02  0.28681710492E+02  0.70711799209E+02  0.41800000000E+01 0.  1.
        -11    1    1    2    0    0 -0.27619119835E+02 -0.49831766286E+01  0.52422653655E+00  0.28069959802E+02  0.00000000000E+00 0. -1.
         11    1    1    2    0    0  0.56790393603E+02  0.13622203181E+02  0.66284677936E+02  0.88342355381E+02  0.00000000000E+00 0.  1.
</event>
<event>
 7    1  0.6473813E-006  0.1491473E+03  0.7561462E-02  0.1201525E+00
         -1   -1    0    0    0  501 -0.00000000000E+00  0.00000000000E+00  0.24529394672E+02  0.24529394672E+02  0.00000000000E+00 0.  1.
          1   -1    0    0  501    0  0.00000000000E+00 -0.00000000000E+00 -0.94746550618E+03  0.94746550618E+03  0.00000000000E+00 0. -1.
         23    2    1    2    0    0 -0.96470323889E+02 -0.45369779546E+02 -0.45719053516E+03  0.48583523364E+03  0.12509096097E+03 0.  0.
          5    1    3    3  502    0  0.21994432827E+02  0.14426370063E+02 -0.40228327387E+02  0.48245890529E+02  0.41800000000E+01 0. -1.
         -5    1    3    3    0  502 -0.11846475672E+03 -0.59796149609E+02 -0.41696220777E+03  0.43758934311E+03  0.41800000000E+01 0. -1.
        -11    1    1    2    0    0  0.16720698496E+01 -0.22337419862E+02 -0.60997286727E+02  0.64980190303E+02  0.00000000000E+00 0. -1.
         11    1    1    2    0    0  0.94798254039E+02  0.67707199408E+02 -0.40474828961E+03  0.42117947691E+03  0.00000000000E+00 0.  1.
</event>
<event>
 7    1  0.6473813E-006  0.1028417E+03  0.7561462E-02  0.1274431E+00
          1   -1    0    0  501    0  0.00000000000E+00  0.00000000000E+00  0.45485570859E+03  0.45485570859E+03  0.00000000000E+00 0. -1.
         -1   -1    0    0    0  501 -0.00000000000E+00 -0.00000000000E+00 -0.37944486628E+02  0.37944486628E+02  0.00000000000E+00 0.  1.
         23    2    1    2    0    0 -0.39123943691E+02 -0.16057162346E+02  0.11605244640E+03  0.17579649193E+03  0.12509085030E+03 0.  0.
          5    1    3    3  502    0 -0.68495357065E+02  0.23389427621E+02  0.34076925610E+02  0.80108604550E+02  0.41800000000E+01 0. -1.
         -5    1    3    3    0  502  0.29371413374E+02 -0.39446589967E+02  0.81975520786E+02  0.95687887383E+02  0.41800000000E+01 0. -1.
        -11    1    1    2    0    0  0.51327429160E+02 -0.12451061715E+02  0.26208794796E+03  0.26735673993E+03  0.00000000000E+00 0. -1.
         11    1    1    2    0    0 -0.12203485469E+02  0.28508224062E+02  0.38770827602E+02  0.49646963348E+02  0.00000000000E+00 0.  1.
</event>
<event>
 7    1  0.6473813E-006  0.2119867E+03  0.7561462E-02  0.1140002E+00
          2   -1    0    0  501    0  0.00000000000E+00  0.00000000000E+00  0.25911182555E+03  0.25911182555E+03  0.00000000000E+00 0.  1.
         -2   -1    0    0    0  501 -0.00000000000E+00 -0.00000000000E+00 -0.30069031139E+03  0.30069031139E+03  0.00000000000E+00 0. -1.
         23    2    1    2    0    0 -0.18228266653E+03  0.66028803453E+02 -0.19103204988E+03  0.29954750582E+03  0.12509472713E+03 0.  0.
          5    1    3    3  502    0 -0.81804143332E+02 -0.26200709079E+02 -0.36588698240E+02  0.93459083354E+02  0.41800000000E+01 0. -1.
         -5    1    3    3    0  502 -0.10047852320E+03  0.92229512532E+02 -0.15444335164E+03  0.20608842246E+03  0.41800000000E+01 0. -1.
        -11    1    1    2    0    0  0.12288332211E+03 -0.70988338140E+02  0.14100087402E+03  0.20005224687E+03  0.00000000000E+00 0.  1.
         11    1    1    2    0    0  0.59399344423E+02  0.49595346874E+01  0.84526900225E+01  0.60202384261E+02  0.00000000000E+00 0. -1.
</event>
<event>
 6    1  0.6473813E-006  0.7513450E+02  0.7561462E-02  0.1343455E+00
          2   -1    0    0  501    0  0.00000000000E+00  0.00000000000E+00  0.25769866284E+03  0.25769866284E+03  0.00000000000E+00 0. -1.
         -2   -1    0    0    0  501 -0.00000000000E+00 -0.00000000000E+00 -0.25999996800E+02  0.25999996800E+02  0.00000000000E+00 0.  1.
          5    1    1    2  502    0 -0.39265539991E+02 -0.58844639026E+02  0.14646194763E+03  0.16270540457E+03  0.41800000000E+01 0. -1.
         -5    1    1    2    0  502  0.41266343413E+02  0.32616663005E+02  0.33027980024E+02  0.62250121837E+02  0.41800000000E+01 0.  1.
        -11    1    1    2    0    0 -0.32405023390E+01  0.15297513012E+02  0.34774349547E+02  0.38128337836E+02  0.00000000000E+00 0. -1.
         11    1    1    2    0    0  0.12396989176E+01  0.10930463009E+02  0.17434388830E+02  0.20614795387E+02  0.00000000000E+00 0.  1.
</event>
<event>
 7    1  0.6473813E-006  0.1988490E+03  0.7561462E-02  0.1150714E+00
         -1   -1    0    0    0  501 -0.00000000000E+00  0.00000000000E+00  0.30039483376E+03  0.30039483376E+03  0.00000000000E+00 0.  1.
          1   -1    0    0  501    0  0.00000000000E+00 -0.00000000000E+00 -0.39468219106E+03  0.39468219106E+03  0.00000000000E+00 0. -1.
         23    2    1    2    0    0 -0.16973715351E+03  0.62889017385E+02  0.22522484941E+03  0.31486443968E+03  0.12509057836E+03 0.  0.
          5    1    3    3  502    0 -0.26302268810E+02 -0.17891123644E+02  0.10817311498E+03  0.11283083290E+03  0.41800000000E+01 0.  1.
         -5    1    3    3    0  502 -0.14343488470E+03  0.80780141029E+02  0.11705173443E+03  0.20203360678E+03  0.41800000000E+01 0.  1.
        -11    1    1    2    0    0  0.15121420561E+03 -0.83902374941E+02 -0.29930965948E+03  0.34567559468E+03  0.00000000000E+00 0. -1.
         11    1    1    2    0    0  0.18522947904E+02  0.21013357555E+02 -0.20202547230E+02  0.34536990451E+02  0.00000000000E+00 0.  1.
</event>
<event>
 7    1  0.6473813E-006  0.8243254E+02  0.7561462E-02  0.1322287E+00
          1   -1    0    0  501    0  0.00000000000E+00  0.00000000000E+00  0.99384973698E+02  0.99384973698E+02  0.00000000000E+00 0. -1.
         -1   -1    0    0    0  501 -0.00000000000E+00 -0.00000000000E+00 -0.29028713236E+03  0.29028713236E+03  0.00000000000E+00 0.  1.
         23    2    1    2    0    0  0.16708422296E+02 -0.44289324977E+02 -0.24604328121E+03  0.27442257682E+03  0.11193631562E+03 0.  0.
          5    1    3    3  502    0 -0.17980055845E+02 -0.29708317011E+02 -0.11463036071E+02  0.36806794261E+02  0.41800000000E+01 0. -1.
         -5    1    3    3    0  502  0.34688478141E+02 -0.14581007966E+02 -0.23458024514E+03  0.23761578256E+03  0.41800000000E+01 0.  1.
        -11    1    1    2    0    0 -0.25712688365E+02  0.64753305183E+02  0.60483666644E+02  0.92262705390E+02  0.00000000000E+00 0. -1.
         11    1    1    2    0    0  0.90042660683E+01 -0.20463980206E+02 -0.53425440919E+01  0.22986823849E+02  0.00000000000E+00 0.  1.
</event>
<event>
 6    1  0.6473813E-006  0.9583226E+02  0.7561462E-02  0.1289313E+00
         -2   -1    0    0    0  501 -0.00000000000E+00  0.00000000000E+00  0.11010290928E+02  0.11010290928E+02  0.00000000000E+00 0.  1.
          2   -1    0    0  501    0  0.00000000000E+00 -0.00000000000E+00 -0.16719529335E+04  0.16719529335E+04  0.00000000000E+00 0. -1.
          5    1    1    2  502    0  0.51944062095E+01 -0.52607608846E+02 -0.11814247004E+04  0.11826141964E+04  0.41800000000E+01 0. -1.
         -5    1    1    2    0  502 -0.42132033284E+02  0.69937236050E+02 -0.24617895488E+03  0.25939906600E+03  0.41800000000E+01 0.  1.
        -11    1    1    2    0    0  0.31227163757E+02 -0.29800876952E+02 -0.20462247953E+03  0.20912576875E+03  0.00000000000E+00 0. -1.
         11    1    1    2    0    0  0.57104633172E+01  0.12471249747E+02 -0.28716507750E+02  0.31824193295E+02  0.00000000000E+00 0.  1.
</event>
<event>
 7    1  0.6473813E-006  0.1317497E+03  0.7561462E-02  0.1224882E+00
         -2   -1    0    0    0  501 -0.00000000000E+00  0.00000000000E+00  0.24164139681E+03  0.24164139681E+03  0.00000000000E+00 0.  1.
          2   -1    0    0  501    0  0.00000000000E+00 -0.00000000000E+00 -0.96285222959E+02  0.96285222959E+02  0.00000000000E+00 0. -1.
         23    2    1    2    0    0  0.41296144333E+02 -0.92536052756E+02  0.11305312947E+03  0.19671225816E+03  0.12508561002E+03 0.  0.
          5    1    3    3  502    0  0.54897361719E+02 -0.11700411600E+03  0.10683058171E+03  0.16773171755E+03  0.41800000000E+01 0. -1.
         -5    1    3    3    0  502 -0.13601217386E+02  0.24468063247E+02  0.62225477584E+01  0.28980540610E+02  0.41800000000E+01 0. -1.
        -11    1    1    2    0    0  0.32333651730E+01  0.23576930091E+02  0.51658590053E+02  0.56876499621E+02  0.00000000000E+00 0.  1.
         11    1    1    2    0    0 -0.44529509506E+02  0.68959122666E+02 -0.19355545670E+02  0.84337861983E+02  0.00000000000E+00 0. -1.
</event>
<event>
 7    1  0.8336640E-006  0.2565758E+03  0.7561462E-02  0.1109218E+00
         -1   -1    0    0    0  501 -0.00000000000E+00  0.00000000000E+00  0.34034386848E+03  0.34034386848E+03  0.00000000000E+00 0.  1.
          1   -1    0    0  501    0  0.00000000000E+00 -0.00000000000E+00 -0.23299943247E+03  0.23299943247E+03  0.00000000000E+00 0. -1.
         23    2    1    2    0    0 -0.15993614395E+03 -0.17200036163E+03  0.16709139477E+03  0.31421419920E+03  0.12508930500E+03 0.  0.
          5    1    3    3  502    0 -0.17349106290E+03 -0.17594313885E+03  0.16897068986E+03  0.29937218215E+03  0.41800000000E+01 0. -1.
         -5    1    3    3    0  502  0.13554918946E+02  0.39427772177E+01 -0.18792950930E+01  0.14842017041E+02  0.41800000000E+01 0. -1.
        -11    1    1    2    0    0  0.11091436585E+03  0.53669454527E+02 -0.39907302471E+02  0.12951833728E+03  0.00000000000E+00 0.  1.
         11    1    1    2    0    0  0.49021778100E+02  0.11833090711E+03 -0.19839656287E+02  0.12961076447E+03  0.00000000000E+00 0. -1.
</event>
<event>
 7    1  0.6473813E-006  0.8933781E+02  0.7561462E-02  0.1304463E+00
          1   -1    0    0  501    0  0.00000000000E+00  0.00000000000E+00  0.11364741604E+02  0.11364741604E+02  0.00000000000E+00 0. -1.
         -1   -1    0    0    0  501 -0.00000000000E+00 -0.00000000000E+00 -0.16380589251E+04  0.16380589251E+04  0.00000000000E+00 0.  1.
         23    2    1    2    0    0  0.45120343960E+02  0.11107530942E+02 -0.12917976556E+04  0.12986713346E+04  0.12508728783E+03 0.  0.
          5    1    3    3  502    0 -0.10937545383E+02  0.40845855641E+02 -0.17576229290E+03  0.18082552316E+03  0.41800000000E+01 0. -1.
         -5    1    3    3    0  502  0.56057889343E+02 -0.29738324699E+02 -0.11160353627E+04  0.11178458115E+04  0.41800000000E+01 0. -1.
        -11    1    1    2    0    0 -0.48213552555E+02 -0.27772186969E+02 -0.32761313847E+03  0.33230439287E+03  0.00000000000E+00 0.  1.
         11    1    1    2    0    0  0.30932085950E+01  0.16664656028E+02 -0.72833893688E+01  0.18447939197E+02  0.00000000000E+00 0. -1.
</event>
<event>
 7    1  0.6473813E-006  0.1158252E+03  0.7561462E-02  0.1250147E+00
         -1   -1    0    0    0  501 -0.00000000000E+00  0.00000000000E+00  0.30636724746E+03  0.30636724746E+03  0.00000000000E+00 0.  1.
          1   -1    0    0  501    0  0.00000000000E+00 -0.00000000000E+00 -0.66641261211E+02  0.66641261211E+02  0.00000000000E+00 0. -1.
         23    2    1    2    0    0  0.44118659854E+02  0.34421126860E+01  0.23812296006E+03  0.27259558505E+03  0.12508998598E+03 0.  0.
          5    1    3    3  502    0 -0.39461871593E+02 -0.21604063291E+02  0.75084262280E+02  0.87630438219E+02  0.41800000000E+01 0. -1.
         -5    1    3    3    0  502  0.83580531447E+02  0.25046175977E+02  0.16303869778E+03  0.18496514683E+03  0.41800000000E+01 0. -1.
        -11    1    1    2    0    0  0.17939307416E+02 -0.27268810521E+02  0.80726346871E+01  0.33624012381E+02  0.00000000000E+00 0.  1.
         11    1    1    2    0    0 -0.62057967270E+02  0.23826697835E+02 -0.64696084923E+01  0.66788911246E+02  0.00000000000E+00 0. -1.
</event>
<event>
 7    1  0.6473813E-006  0.1175202E+03  0.7561462E-02  0.1247245E+00
         -1   -1    0    0    0  501 -0.00000000000E+00  0.00000000000E+00  0.88737926176E+02  0.88737926176E+02  0.00000000000E+00 0.  1.
          1   -1    0    0  501    0  0.00000000000E+00 -0.00000000000E+00 -0.16569653691E+03  0.16569653691E+03  0.00000000000E+00 0. -1.
         23    2    1    2    0    0  0.25269642823E+02 -0.41882854848E+02 -0.19282717745E+02  0.13569141673E+03  0.12509040327E+03 0.  0.
          5    1    3    3  502    0  0.74677261885E+02 -0.23769755606E+02  0.26557677504E+01  0.78525283996E+02  0.41800000000E+01 0. -1.
         -5    1    3    3    0  502 -0.49407619062E+02 -0.18113099243E+02 -0.21938485495E+02  0.57166132731E+02  0.41800000000E+01 0. -1.
        -11    1    1    2    0    0 -0.45989552656E+01 -0.29294402112E+02 -0.17635451818E+02  0.34501036875E+02  0.00000000000E+00 0. -1.
         11    1    1    2    0    0 -0.20670687558E+02  0.71177256960E+02 -0.40040441167E+02  0.84242009480E+02  0.00000000000E+00 0.  1.
</event>
<event>
 7    1  0.6473813E-006  0.1178491E+03  0.7561462E-02  0.1246688E+00
         -2   -1    0    0    0  501 -0.00000000000E+00  0.00000000000E+00  0.78224105242E+02  0.78224105242E+02  0.00000000000E+00 0.  1.
          2   -1    0    0  501    0  0.00000000000E+00 -0.00000000000E+00 -0.33253368917E+03  0.33253368917E+03  0.00000000000E+00 0. -1.
         23    2    1    2    0    0 -0.10519630108E+03 -0.38023496770E+02 -0.88223646395E+02  0.18958868880E+03  0.12509360924E+03 0.  0.
          5    1    3    3  502    0 -0.60318188258E+02 -0.32288816192E+02 -0.11714797426E+03  0.13572756447E+03  0.41800000000E+01 0.  1.
         -5    1    3    3    0  502 -0.44878112820E+02 -0.57346805777E+01  0.28924327862E+02  0.53861124328E+02  0.41800000000E+01 0.  1.
        -11    1    1    2    0    0  0.23065125870E+02 -0.11539756669E+02 -0.10341911135E+03  0.10658648417E+03  0.00000000000E+00 0. -1.
         11    1    1    2    0    0  0.82131175208E+02  0.49563253438E+02 -0.62666826188E+02  0.11458262144E+03  0.00000000000E+00 0.  1.
</event>
<event>
 7    1  0.6473813E-006  0.9002407E+02  0.7561462E-02  0.1302793E+00
          2   -1    0    0  501    0  0.00000000000E+00  0.00000000000E+00  0.14447114534E+03  0.14447114534E+03  0.00000000000E+00 0. -1.
         -2   -1    0    0    0  501 -0.00000000000E+00 -0.00000000000E+00 -0.10216947922E+03  0.10216947922E+03  0.00000000000E+00 0.  1.
         23    2    1    2    0    0  0.42995694460E+01  0.99223080381E+01 -0.29014848952E+02  0.12886621331E+03  0.12509077096E+03 0.  0.
          5    1    3    3  502    0  0.33610428251E+02 -0.35969314284E+02  0.22045642403E+02  0.54101157162E+02  0.41800000000E+01 0.  1.
         -5    1    3    3    0  502 -0.29310858805E+02  0.45891622323E+02 -0.51060491355E+02  0.74765056147E+02  0.41800000000E+01 0.  1.
        -11    1    1    2    0    0  0.33519473206E+01 -0.42465850008E+02  0.72759776902E+02  0.84312330667E+02  0.00000000000E+00 0. -1.
         11    1    1    2    0    0 -0.76515167666E+01  0.32543541970E+02 -0.14432618293E+01  0.33462080591E+02  0.00000000000E+00 0.  1.
</event>
<event>
 7    1  0.6473813E-006  0.4145891E+03  0.7561462E-02  0.1038842E+00
         -3   -1    0    0    0  501 -0.00000000000E+00  0.00000000000E+00  0.75577060880E+03  0.75577060880E+03  0.00000000000E+00 0.  1.
          3   -1    0    0  501    0  0.00000000000E+00 -0.00000000000E+00 -0.24708322778E+03  0.24708322778E+03  0.00000000000E+00 0. -1.
         23    2    1    2    0    0 -0.10882051736E+01 -0.40128066993E+03  0.39273131221E+03  0.57525051740E+03  0.12509162216E+03 0.  0.
          5    1    3    3  502    0  0.34514340821E+02 -0.37249027288E+03  0.34348370449E+03  0.50787672792E+03  0.41800000000E+01 0.  1.
         -5    1    3    3    0  502 -0.35602545995E+02 -0.28790397055E+02  0.49247607716E+02  0.67373789485E+02  0.41800000000E+01 0.  1.
        -11    1    1    2    0    0 -0.39072763978E+02  0.17937700603E+03  0.75463393433E+02  0.19848807250E+03  0.00000000000E+00 0.  1.
         11    1    1    2    0    0  0.40160969152E+02  0.22190366390E+03  0.40492675380E+02  0.22911524667E+03  0.00000000000E+00 0. -1.
</event>
<event>
 7    1  0.6473813E-006  0.1290834E+03  0.7561462E-02  0.1228822E+00
         -3   -1    0    0    0  501 -0.00000000000E+00  0.00000000000E+00  0.78853783390E+02  0.78853783390E+02  0.00000000000E+00 0.  1.
          3   -1    0    0  501    0  0.00000000000E+00 -0.00000000000E+00 -0.27922740667E+03  0.27922740667E+03  0.00000000000E+00 0. -1.
         23    2    1    2    0    0  0.84095544697E+02 -0.21422464105E+02 -0.48690886871E+02  0.15984077126E+03  0.12508911658E+03 0.  0.
          5    1    3    3  502    0  0.45970184758E+02  0.38299215610E+02  0.17820227880E+02  0.62570925554E+02  0.41800000000E+01 0.  1.
         -5    1    3    3    0  502  0.38125359938E+02 -0.59721679714E+02 -0.66511114751E+02  0.97269845706E+02  0.41800000000E+01 0.  1.
        -11    1    1    2    0    0 -0.18160102692E+02  0.51596132743E+02 -0.57259099857E+02  0.79186834514E+02  0.00000000000E+00 0.  1.
         11    1    1    2    0    0 -0.65935442004E+02 -0.30173668638E+02 -0.94423636548E+02  0.11905358428E+03  0.00000000000E+00 0. -1.
</event>
<event>
 7    1  0.6473813E-006  0.9517229E+02  0.7561462E-02  0.1290789E+00
         -2   -1    0    0    0  501 -0.00000000000E+00  0.00000000000E+00  0.78568215635E+02  0.78568215635E+02  0.00000000000E+00 0.  1.
          2   -1    0    0  501    0  0.00000000000E+00 -0.00000000000E+00 -0.25804045392E+03  0.25804045392E+03  0.00000000000E+00 0. -1.
         23    2    1    2    0    0  0.63274528626E+02 -0.56644489391E+02 -0.62138879685E+02  0.16346252943E+03  0.12508594649E+03 0.  0.
          5    1    3    3  502    0 -0.23411880079E+01  0.10439806707E+02 -0.68366197926E+02  0.69324455600E+02  0.41800000000E+01 0. -1.
         -5    1    3    3    0  502  0.65615716634E+02 -0.67084296099E+02  0.62273182410E+01  0.94138073833E+02  0.41800000000E+01 0. -1.
        -11    1    1    2    0    0 -0.34549795303E+02  0.31205356261E+02  0.31872683874E+01  0.46664990031E+02  0.00000000000E+00 0.  1.
         11    1    1    2    0    0 -0.28724733323E+02  0.25439133130E+02 -0.12052062699E+03  0.12648115009E+03  0.00000000000E+00 0. -1.
</event>
<event>
 7    1  0.6473813E-006  0.1521425E+03  0.7561462E-02  0.1197865E+00
         -1   -1    0    0    0  501 -0.00000000000E+00  0.00000000000E+00  0.40234737681E+03  0.40234737681E+03  0.00000000000E+00 0.  1.
          1   -1    0    0  501    0  0.00000000000E+00 -0.00000000000E+00 -0.92134047210E+02  0.92134047210E+02  0.00000000000E+00 0. -1.
         23    2    1    2    0    0  0.91515852219E+02 -0.60322876554E+02  0.30520570400E+03  0.34757956281E+03  0.12508808930E+03 0.  0.
          5    1    3    3  502    0 -0.28725880780E+02 -0.27919199068E+02  0.56238067422E+02  0.69172614021E+02  0.41800000000E+01 0. -1.
         -5    1    3    3    0  502  0.12024173300E+03 -0.32403677486E+02  0.24896763658E+03  0.27840694879E+03  0.41800000000E+01 0. -1.
        -11    1    1    2    0    0 -0.63187541424E+02  0.82154023735E+02 -0.16824972454E+02  0.10500013669E+03  0.00000000000E+00 0.  1.
         11    1    1    2    0    0 -0.28328310794E+02 -0.21831147181E+02  0.21832598045E+02  0.41901724512E+02  0.00000000000E+00 0. -1.
</event>
<event>
 7    1  0.6473813E-006  0.1185218E+03  0.7561462E-02  0.1245556E+00
         -1   -1    0    0    0  501 -0.00000000000E+00  0.00000000000E+00  0.13460266547E+03  0.13460266547E+03  0.00000000000E+00 0.  1.
          1   -1    0    0  501    0  0.00000000000E+00 -0.00000000000E+00 -0.15217213014E+03  0.15217213014E+03  0.00000000000E+00 0. -1.
         23    2    1    2    0    0  0.68412490348E+02 -0.59541695463E+02  0.89572875588E+01  0.15476479240E+03  0.12508567317E+03 0.  0.
          5    1    3    3  502    0  0.32615912837E+01 -0.77648700161E+02  0.30620279158E+02  0.83636310955E+02  0.41800000000E+01 0.  1.
         -5    1    3    3    0  502  0.65150899064E+02  0.18107004699E+02 -0.21662991600E+02  0.71128481448E+02  0.41800000000E+01 0.  1.
        -11    1    1    2    0    0 -0.41430068357E+02  0.28243208237E+02  0.32648922354E+02  0.59833782318E+02  0.00000000000E+00 0.  1.
         11    1    1    2    0    0 -0.26982421991E+02  0.31298487225E+02 -0.59175674579E+02  0.72176220883E+02  0.00000000000E+00 0. -1.
</event>
<event>
 7    1  0.6473813E-006  0.1422309E+03  0.7561462E-02  0.1210358E+00
          2   -1    0    0  501    0  0.00000000000E+00  0.00000000000E+00  0.85059602231E+03  0.85059602231E+03  0.00000000000E+00 0. -1.
         -2   -1    0    0    0  501 -0.00000000000E+00 -0.00000000000E+00 -0.39228118834E+02  0.39228118834E+02  0.00000000000E+00 0.  1.
         23    2    1    2    0    0 -0.71718631972E+02  0.71020093314E+02  0.22728468439E+03  0.27837767905E+03  0.12509351945E+03 0.  0.
          5    1    3    3  502    0 -0.27195178062E+02  0.37865167735E+00 -0.80192963130E+01  0.28661866657E+02  0.41800000000E+01 0. -1.
         -5    1    3    3    0  502 -0.44523453909E+02  0.70641441637E+02  0.23530398070E+03  0.24971581239E+03  0.41800000000E+01 0. -1.
        -11    1    1    2    0    0  0.10310811009E+03 -0.85951490266E+01  0.42980476697E+03  0.44208290700E+03  0.00000000000E+00 0. -1.
         11    1    1    2    0    0 -0.31389478122E+02 -0.62424944287E+02  0.15427845212E+03  0.16936355510E+03  0.00000000000E+00 0.  1.
</event>
<event>
 7    1  0.6473813E-006  0.2123243E+03  0.7561462E-02  0.1139738E+00
          2   -1    0    0  501    0  0.00000000000E+00  0.00000000000E+00  0.83250289211E+03  0.83250289211E+03  0.00000000000E+00 0. -1.
         -2   -1    0    0    0  501 -0.00000000000E+00 -0.00000000000E+00 -0.54978502199E+02  0.54978502199E+02  0.00000000000E+00 0.  1.
         23    2    1    2    0    0 -0.13825563478E+03  0.12035132639E+03  0.39438288347E+03  0.45253008578E+03  0.12508620009E+03 0.  0.
          5    1    3    3  502    0 -0.47082599233E+01  0.80561131956E+02  0.11859164603E+03  0.14350510305E+03  0.41800000000E+01 0.  1.
         -5    1    3    3    0  502 -0.13354737486E+03  0.39790194434E+02  0.27579123744E+03  0.30902498273E+03  0.41800000000E+01 0.  1.
        -11    1    1    2    0    0 -0.13494037411E+02 -0.10277808435E+02  0.48451845481E+02  0.51335209382E+02  0.00000000000E+00 0.  1.
         11    1    1    2    0    0  0.15174967220E+03 -0.11007351795E+03  0.33468966096E+03  0.38361609914E+03  0.00000000000E+00 0. -1.
</event>
<event>
 7    1  0.6536130E-006  0.1310845E+03  0.7561462E-02  0.1225855E+00
          2   -1    0    0  501    0  0.00000000000E+00  0.00000000000E+00  0.55348900518E+03  0.55348900518E+03  0.00000000000E+00 0. -1.
         -2   -1    0    0    0  501 -0.00000000000E+00 -0.00000000000E+00 -0.43752303389E+02  0.43752303389E+02  0.00000000000E+00 0.  1.
         23    2    1    2    0    0 -0.90591998526E+02 -0.65842733579E+02  0.26676546903E+03  0.31520409827E+03  0.12509049659E+03 0.  0.
          5    1    3    3  502    0 -0.35324659829E+02 -0.18373919336E+01  0.21062342687E+03  0.21361392265E+03  0.41800000000E+01 0. -1.
         -5    1    3    3    0  502 -0.55267338697E+02 -0.64005341646E+02  0.56142042159E+02  0.10159017563E+03  0.41800000000E+01 0. -1.
        -11    1    1    2    0    0 -0.13851587643E+02  0.27192251724E+02  0.37711328489E+02  0.48512156522E+02  0.00000000000E+00 0.  1.
         11    1    1    2    0    0  0.10444358617E+03  0.38650481855E+02  0.20525990427E+03  0.23352505378E+03  0.00000000000E+00 0. -1.
</event>
<event>
 7    1  0.6473813E-006  0.7763603E+02  0.7561462E-02  0.1335897E+00
          1   -1    0    0  501    0  0.00000000000E+00  0.00000000000E+00  0.12885234015E+03  0.12885234015E+03  0.00000000000E+00 0. -1.
         -1   -1    0    0    0  501 -0.00000000000E+00 -0.00000000000E+00 -0.10538682859E+03  0.10538682859E+03  0.00000000000E+00 0.  1.
         23    2    1    2    0    0 -0.36069229980E+02  0.46101574616E+01 -0.46561871788E+01  0.13034781609E+03  0.12508649079E+03 0.  0.
          5    1    3    3  502    0  0.14975165633E+02  0.43635471277E+01 -0.55727365079E+02  0.58019890968E+02  0.41800000000E+01 0.  1.
         -5    1    3    3    0  502 -0.51044395613E+02  0.24661033390E+00  0.51071177900E+02  0.72327925121E+02  0.41800000000E+01 0.  1.
        -11    1    1    2    0    0  0.58002178161E+02 -0.19732619729E+02 -0.49004372704E+01  0.61462535241E+02  0.00000000000E+00 0.  1.
         11    1    1    2    0    0 -0.21932948181E+02  0.15122462267E+02  0.33022136008E+02  0.42428817418E+02  0.00000000000E+00 0. -1.
</event>
<event>
 7    1  0.6473813E-006  0.6330079E+02  0.7561462E-02  0.1384480E+00
         -4   -1    0    0    0  501 -0.00000000000E+00  0.00000000000E+00  0.25351630622E+02  0.25351630622E+02  0.00000000000E+00 0.  1.
          4   -1    0    0  501    0  0.00000000000E+00 -0.00000000000E+00 -0.56308601038E+03  0.56308601038E+03  0.00000000000E+00 0. -1.
         23    2    1    2    0    0  0.42191683781E+02  0.27812567403E+02 -0.26868717210E+03  0.30065763841E+03  0.12509413256E+03 0.  0.
          5    1    3    3  502    0  0.32223481172E+01  0.60862509152E+01 -0.25307611058E+03  0.25320429720E+03  0.41800000000E+01 0.  1.
         -5    1    3    3    0  502  0.38969335664E+02  0.21726316488E+02 -0.15611061520E+02  0.47453341210E+02  0.41800000000E+01 0.  1.
        -11    1    1    2    0    0 -0.31425128800E+02  0.11124017400E+02 -0.28481957901E+02  0.43846372816E+02  0.00000000000E+00 0.  1.
         11    1    1    2    0    0 -0.10766554981E+02 -0.38936584803E+02 -0.24056524976E+03  0.24393362977E+03  0.00000000000E+00 0. -1.
</event>
<event>
 7    1  0.6473813E-006  0.1017268E+03  0.7561462E-02  0.1276706E+00
          1   -1    0    0  501    0  0.00000000000E+00  0.00000000000E+00  0.31525749792E+03  0.31525749792E+03  0.00000000000E+00 0. -1.
         -1   -1    0    0    0  501 -0.00000000000E+00 -0.00000000000E+00 -0.56167936523E+02  0.56167936523E+02  0.00000000000E+00 0.  1.
         23    2    1    2    0    0  0.50851707685E+02  0.36206688546E+02  0.79197257969E+02  0.16067912727E+03  0.12509498712E+03 0.  0.
          5    1    3    3  502    0  0.11317825000E+02  0.58317282670E+02  0.95339695333E+02  0.11241053566E+03  0.41800000000E+01 0. -1.
         -5    1    3    3    0  502  0.39533882685E+02 -0.22110594124E+02 -0.16142437364E+02  0.48268591617E+02  0.41800000000E+01 0. -1.
        -11    1    1    2    0    0 -0.60626640422E+02  0.29170731311E+00  0.15240500848E+03  0.16402122190E+03  0.00000000000E+00 0. -1.
         11    1    1    2    0    0  0.97749327364E+01 -0.36498395859E+02  0.27487294946E+02  0.46725085273E+02  0.00000000000E+00 0.  1.
</event>
<event>
 7    1  0.6473813E-006  0.1318012E+03  0.7561462E-02  0.1224807E+00
         -1   -1    0    0    0  501 -0.00000000000E+00  0.00000000000E+00  0.52508616076E+02  0.52508616076E+02  0.00000000000E+00 0.  1.
          1   -1    0    0  501    0  0.00000000000E+00 -0.00000000000E+00 -0.43884821290E+03  0.43884821290E+03  0.00000000000E+00 0. -1.
         23    2    1    2    0    0  0.99009055588E+02 -0.38094014840E+02 -0.21558580044E+03  0.27088380530E+03  0.12508737573E+03 0.  0.
          5    1    3    3  502    0  0.34058199591E+01  0.29507373678E+02 -0.10705097829E+03  0.11117404852E+03  0.41800000000E+01 0. -1.
         -5    1    3    3    0  502  0.95603235629E+02 -0.67601388517E+02 -0.10853482215E+03  0.15970975678E+03  0.41800000000E+01 0. -1.
        -11    1    1    2    0    0 -0.65697739340E+02 -0.18584912433E+00 -0.32695001262E+02  0.73383857910E+02  0.00000000000E+00 0.  1.
         11    1    1    2    0    0 -0.33311316248E+02  0.38279863964E+02 -0.13805879512E+03  0.14708916577E+03  0.00000000000E+00 0. -1.
</event>
<event>
 7    1  0.6473813E-006  0.1089723E+03  0.7561462E-02  0.1262485E+00
         -2   -1    0    0    0  501 -0.00000000000E+00  0.00000000000E+00  0.41293876988E+02  0.41293876988E+02  0.00000000000E+00 0.  1.
          2   -1    0    0  501    0  0.00000000000E+00 -0.00000000000E+00 -0.34061487603E+03  0.34061487603E+03  0.00000000000E+00 0. -1.
         23    2    1    2    0    0 -0.26217170947E+02  0.34256219626E+02 -0.13352898482E+03  0.18798627172E+03  0.12509204584E+03 0.  0.
          5    1    3    3  502    0  0.43520092325E+02 -0.13373741651E+01 -0.85497578151E+02  0.96036947449E+02  0.41800000000E+01 0.  1.
         -5    1    3    3    0  502 -0.69737263272E+02  0.35593593791E+02 -0.48031406671E+02  0.91949324274E+02  0.41800000000E+01 0.  1.
        -11    1    1    2    0    0  0.38920042675E+02  0.17377517227E+02 -0.10403627753E+03  0.11242906594E+03  0.00000000000E+00 0. -1.
         11    1    1    2    0    0 -0.12702871728E+02 -0.51633736852E+02 -0.61755736691E+02  0.81493415352E+02  0.00000000000E+00 0.  1.
</event>
<event>
 6    1  0.6473813E-006  0.1588236E+03  0.7561462E-02  0.1190031E+00
          2   -1    0    0  501    0  0.00000000000E+00  0.00000000000E+00  0.96638787282E+02  0.96638787282E+02  0.00000000000E+00 0. -1.
         -2   -1    0    0    0  501 -0.00000000000E+00 -0.00000000000E+00 -0.31705631131E+03  0.31705631131E+03  0.00000000000E+00 0.  1.
          5    1    1    2  502    0 -0.13077733509E+03 -0.43632550033E+02 -0.88835590334E+02  0.16406018806E+03  0.41800000000E+01 0. -1.
         -5    1    1    2    0  502  0.44108844580E+02  0.42067831682E+02 -0.10690575052E+03  0.12313246739E+03  0.41800000000E+01 0.  1.
        -11    1    1    2    0    0 -0.77859418349E+01  0.20818305526E+02 -0.20147920615E+02  0.29999357332E+02  0.00000000000E+00 0. -1.
         11    1    1    2    0    0  0.94454432344E+02 -0.19253587175E+02 -0.45282625585E+01  0.96503085807E+02  0.00000000000E+00 0.  1.
</event>
<event>
 7    1  0.6473813E-006  0.1540389E+03  0.7561462E-02  0.1195596E+00
         -2   -1    0    0    0  501 -0.00000000000E+00  0.00000000000E+00  0.24334703560E+03  0.24334703560E+03  0.00000000000E+00 0.  1.
          2   -1    0    0  501    0  0.00000000000E+00 -0.00000000000E+00 -0.12161494691E+03  0.12161494691E+03  0.00000000000E+00 0. -1.
         23    2    1    2    0    0 -0.13518003331E+03  0.10926203324E+01  0.40131423780E+02  0.18848715890E+03  0.12506815211E+03 0.  0.
          5    1    3    3  502    0 -0.13391066363E+03 -0.30538749121E+02  0.60997492020E+02  0.15034243401E+03  0.41800000000E+01 0. -1.
         -5    1    3    3    0  502 -0.12693696761E+01  0.31631369454E+02 -0.20866068241E+02  0.38144724887E+02  0.41800000000E+01 0. -1.
        -11    1    1    2    0    0  0.25335043824E+02 -0.12586087449E+02  0.56540655948E+02  0.63222779264E+02  0.00000000000E+00 0.  1.
         11    1    1    2    0    0  0.10984498948E+03  0.11493467116E+02  0.25060008963E+02  0.11325204435E+03  0.00000000000E+00 0. -1.
</event>
<event>
 7    1  0.6473813E-006  0.9625750E+02  0.7561462E-02  0.1288369E+00
         -2   -1    0    0    0  501 -0.00000000000E+00  0.00000000000E+00  0.99151772370E+02  0.99151772370E+02  0.00000000000E+00 0.  1.
          2   -1    0    0  501    0  0.00000000000E+00 -0.00000000000E+00 -0.10896960061E+03  0.10896960061E+03  0.00000000000E+00 0. -1.
         23    2    1    2    0    0 -0.11939346094E+02  0.79557778270E+01  0.10756775012E+02  0.11246495182E+03  0.11102618967E+03 0.  0.
          5    1    3    3  502    0  0.28349975670E+02  0.41165652426E+02  0.27845118688E+02  0.57368589794E+02  0.41800000000E+01 0. -1.
         -5    1    3    3    0  502 -0.40289321763E+02 -0.33209874599E+02 -0.17088343676E+02  0.55096362027E+02  0.41800000000E+01 0.  1.
        -11    1    1    2    0    0  0.41174492396E+02  0.23193996543E+02 -0.23612494498E+02  0.52828497955E+02  0.00000000000E+00 0. -1.
         11    1    1    2    0    0 -0.29235146302E+02 -0.31149774370E+02  0.30378912488E+01  0.42827923203E+02  0.00000000000E+00 0.  1.
</event>
<event>
 7    1  0.6473813E-006  0.1009081E+03  0.7561462E-02  0.1278398E+00
          2   -1    0    0  501    0  0.00000000000E+00  0.00000000000E+00  0.38935812237E+03  0.38935812237E+03  0.00000000000E+00 0. -1.
         -2   -1    0    0    0  501 -0.00000000000E+00 -0.00000000000E+00 -0.38215831910E+02  0.38215831910E+02  0.00000000000E+00 0.  1.
         23    2    1    2    0    0  0.19360234884E+02 -0.47059988221E+01  0.10610713546E+03  0.16523605549E+03  0.12508902717E+03 0.  0.
          5    1    3    3  502    0  0.61774055696E+02 -0.37811642561E+02  0.56835532659E+02  0.92160210736E+02  0.41800000000E+01 0.  1.
         -5    1    3    3    0  502 -0.42413820813E+02  0.33105643739E+02  0.49271602802E+02  0.73075844750E+02  0.41800000000E+01 0.  1.
        -11    1    1    2    0    0  0.27638995976E+02  0.60074851641E+01  0.26353466423E+02  0.38658882149E+02  0.00000000000E+00 0.  1.
         11    1    1    2    0    0 -0.46999230860E+02 -0.13014863420E+01  0.21868168857E+03  0.22367901664E+03  0.00000000000E+00 0. -1.
</event>
<event>
 7    1  0.6473813E-006  0.1027862E+03  0.7561462E-02  0.1274544E+00
         -3   -1    0    0    0  501 -0.00000000000E+00  0.00000000000E+00  0.30879539438E+03  0.30879539438E+03  0.00000000000E+00 0.  1.
          3   -1    0    0  501    0  0.00000000000E+00 -0.00000000000E+00 -0.46048937903E+02  0.46048937903E+02  0.00000000000E+00 0. -1.
         23    2    1    2    0    0  0.29939036187E+02  0.29556187710E+02  0.18632002823E+03  0.22827834702E+03  0.12500374666E+03 0.  0.
          5    1    3    3  502    0 -0.33563007787E+02 -0.64906207652E+01  0.77361733795E+01  0.35297654713E+02  0.41800000000E+01 0. -1.
         -5    1    3    3    0  502  0.63502043974E+02  0.36046808475E+02  0.17858385485E+03  0.19298069231E+03  0.41800000000E+01 0. -1.
        -11    1    1    2    0    0 -0.60706733899E+02 -0.28861226647E+02  0.65649260625E+02  0.93957987233E+02  0.00000000000E+00 0. -1.
         11    1    1    2    0    0  0.30767697712E+02 -0.69496106248E+00  0.10777167617E+02  0.32607998026E+02  0.00000000000E+00 0.  1.
</event>
<event>
 7    1  0.6473813E-006  0.1177375E+03  0.7561462E-02  0.1246877E+00
         -1   -1    0    0    0  501 -0.00000000000E+00  0.00000000000E+00  0.18029234245E+03  0.18029234245E+03  0.00000000000E+00 0.  1.
          1   -1    0    0  501    0  0.00000000000E+00 -0.00000000000E+00 -0.83162934916E+02  0.83162934916E+02  0.00000000000E+00 0. -1.
         23    2    1    2    0    0 -0.31941826591E+02  0.37147300438E+02  0.83368628316E+02  0.15810811965E+03  0.12509055559E+03 0.  0.
          5    1    3    3  502    0 -0.76510295724E+02  0.49839048001E+01  0.63072491277E+02  0.99369392745E+02  0.41800000000E+01 0. -1.
         -5    1    3    3    0  502  0.44568469133E+02  0.32163395638E+02  0.20296137040E+02  0.58738726906E+02  0.41800000000E+01 0. -1.
        -11    1    1    2    0    0 -0.25722355938E+02  0.11450983520E+02  0.98666617807E+01  0.29834805735E+02  0.00000000000E+00 0.  1.
         11    1    1    2    0    0  0.57664182528E+02 -0.48598283958E+02  0.38941174333E+01  0.75512351976E+02  0.00000000000E+00 0. -1.
</event>
<event>
 7    1  0.6473813E-006  0.2419878E+03  0.7561462E-02  0.1118476E+00
         -2   -1    0    0    0  501 -0.00000000000E+00  0.00000000000E+00  0.41937723161E+03  0.41937723161E+03  0.00000000000E+00 0.  1.
          2   -1    0    0  501    0  0.00000000000E+00 -0.00000000000E+00 -0.15891594151E+03  0.15891594151E+03  0.00000000000E+00 0. -1.
         23    2    1    2    0    0  0.33372096810E+02  0.21451197828E+03  0.23105220973E+03  0.34095541497E+03  0.12544475160E+03 0.  0.
          5    1    3    3  502    0  0.42423705664E+01 -0.16109799667E+02  0.24771256863E+02  0.30143173687E+02  0.41800000000E+01 0. -1.
         -5    1    3    3    0  502  0.29129726244E+02  0.23062177795E+03  0.20628095287E+03  0.31081224129E+03  0.41800000000E+01 0. -1.
        -11    1    1    2    0    0  0.19037651665E+02 -0.70054937516E+01 -0.41334508479E+01  0.20702524956E+02  0.00000000000E+00 0.  1.
         11    1    1    2    0    0 -0.52409748475E+02 -0.20750648453E+03  0.33542531215E+02  0.21663523319E+03  0.00000000000E+00 0. -1.
</event>
<event>
 7    1  0.6473813E-006  0.7720024E+02  0.7561462E-02  0.1337190E+00
          2   -1    0    0  501    0  0.00000000000E+00  0.00000000000E+00  0.14357509321E+03  0.14357509321E+03  0.00000000000E+00 0. -1.
         -2   -1    0    0    0  501 -0.00000000000E+00 -0.00000000000E+00 -0.10442925229E+03  0.10442925229E+03  0.00000000000E+00 0.  1.
         23    2    1    2    0    0 -0.15690282521E+02 -0.59509502325E+01 -0.33880089418E+02  0.13067857682E+03  0.12508969264E+03 0.  0.
          5    1    3    3  502    0 -0.38800727089E+02 -0.64865860910E+00 -0.74129934255E+02  0.83777304404E+02  0.41800000000E+01 0.  1.
         -5    1    3    3    0  502  0.23110444568E+02 -0.53022916234E+01  0.40249844837E+02  0.46901272413E+02  0.41800000000E+01 0.  1.
        -11    1    1    2    0    0 -0.29604624035E+02  0.28149456810E+02  0.39013680019E+02  0.56487989092E+02  0.00000000000E+00 0. -1.
         11    1    1    2    0    0  0.45294906556E+02 -0.22198506578E+02  0.34012250311E+02  0.60837779590E+02  0.00000000000E+00 0.  1.
</event>
<event>
 7    1  0.6473813E-006  0.1666331E+03  0.7561462E-02  0.1181405E+00
         -1   -1    0    0    0  501 -0.00000000000E+00  0.00000000000E+00  0.96206927794E+02  0.96206927794E+02  0.00000000000E+00 0.  1.
          1   -1    0    0  501    0  0.00000000000E+00 -0.00000000000E+00 -0.35543184795E+03  0.35543184795E+03  0.00000000000E+00 0. -1.
         23    2    1    2    0    0 -0.58075205199E+02 -0.13094860339E+03 -0.86876805006E+02  0.20908334271E+03  0.12509196122E+03 0.  0.
          5    1    3    3  502    0 -0.70984847080E+02 -0.23143796451E+02 -0.63128275295E+02  0.97862839581E+02  0.41800000000E+01 0.  1.
         -5    1    3    3    0  502  0.12909641881E+02 -0.10780480694E+03 -0.23748529711E+02  0.11122050313E+03  0.41800000000E+01 0.  1.
        -11    1    1    2    0    0  0.64800215821E+02  0.10830614854E+03 -0.17806087638E+03  0.21825435959E+03  0.00000000000E+00 0. -1.
         11    1    1    2    0    0 -0.67250106220E+01  0.22642454852E+02  0.57127612326E+01  0.24301073444E+02  0.00000000000E+00 0.  1.
</event>
<event>
 6    1  0.6473813E-006  0.1070392E+03  0.7561462E-02  0.1266153E+00
          1   -1    0    0  501    0  0.00000000000E+00  0.00000000000E+00  0.28984800749E+02  0.28984800749E+02  0.00000000000E+00 0. -1.
         -1   -1    0    0    0  501 -0.00000000000E+00 -0.00000000000E+00 -0.45363915170E+03  0.45363915170E+03  0.00000000000E+00 0.  1.
          5    1    1    2  502    0 -0.57467160243E+02  0.27725842828E+02 -0.12641705258E+03  0.14166841726E+03  0.41800000000E+01 0. -1.
         -5    1    1    2    0  502  0.44715488232E+02 -0.51481939125E+02 -0.17390361234E+03  0.18684165416E+03  0.41800000000E+01 0.  1.
        -11    1    1    2    0    0  0.10967274436E+02  0.52189059800E+02 -0.44858651878E+02  0.69686998211E+02  0.00000000000E+00 0. -1.
         11    1    1    2    0    0  0.17843975746E+01 -0.28432963503E+02 -0.79475034154E+02  0.84426882816E+02  0.00000000000E+00 0.  1.
</event>
<event>
 7    1  0.6473813E-006  0.1810173E+03  0.7561462E-02  0.1166822E+00
         -2   -1    0    0    0  501 -0.00000000000E+00  0.00000000000E+00  0.11986515974E+03  0.11986515974E+03  0.00000000000E+00 0.  1.
          2   -1    0    0  501    0  0.00000000000E+00 -0.00000000000E+00 -0.35423785514E+03  0.35423785514E+03  0.00000000000E+00 0. -1.
         23    2    1    2    0    0 -0.15668078307E+03 -0.75512849915E+02 -0.14388666433E+03  0.25807389864E+03  0.12509079385E+03 0.  0.
          5    1    3    3  502    0 -0.11572588001E+03 -0.33531812791E+02 -0.15688484673E+03  0.19785648664E+03  0.41800000000E+01 0.  1.
         -5    1    3    3    0  502 -0.40954903056E+02 -0.41981037124E+02  0.12998182403E+02  0.60217412001E+02  0.41800000000E+01 0.  1.
        -11    1    1    2    0    0  0.55880779383E+02 -0.13811046726E+01 -0.66718676819E+02  0.87039937908E+02  0.00000000000E+00 0.  1.
         11    1    1    2    0    0  0.10080000368E+03  0.76893954587E+02 -0.23767354255E+02  0.12898917832E+03  0.00000000000E+00 0. -1.
</event>
<event>
 7    1  0.6473813E-006  0.2508369E+03  0.7561462E-02  0.1112777E+00
          2   -1    0    0  501    0  0.00000000000E+00  0.00000000000E+00  0.51482984517E+03  0.51482984517E+03  0.00000000000E+00 0.  1.
         -2   -1    0    0    0  501 -0.00000000000E+00 -0.00000000000E+00 -0.14305737739E+03  0.14305737739E+03  0.00000000000E+00 0. -1.
         23    2    1    2    0    0  0.20277368578E+03  0.13693962385E+03  0.14062411438E+03  0.30869279223E+03  0.12508585133E+03 0.  0.
          5    1    3    3  502    0  0.60983677346E+02  0.85321732674E+02  0.39062002282E+01  0.10503112762E+03  0.41800000000E+01 0.  1.
         -5    1    3    3    0  502  0.14179000843E+03  0.51617891181E+02  0.13671791415E+03  0.20366166461E+03  0.41800000000E+01 0.  1.
        -11    1    1    2    0    0 -0.94828105744E+02 -0.50259174769E+02  0.16230959808E+03  0.19458355510E+03  0.00000000000E+00 0.  1.
         11    1    1    2    0    0 -0.10794558004E+03 -0.86680449085E+02  0.68838755325E+02  0.15461087522E+03  0.00000000000E+00 0. -1.
</event>
<event>
 7    1  0.6473813E-006  0.6850062E+02  0.7561462E-02  0.1365267E+00
          3   -1    0    0  501    0  0.00000000000E+00  0.00000000000E+00  0.74258621800E+02  0.74258621800E+02  0.00000000000E+00 0. -1.
         -3   -1    0    0    0  501 -0.00000000000E+00 -0.00000000000E+00 -0.17124334284E+03  0.17124334284E+03  0.00000000000E+00 0.  1.
         23    2    1    2    0    0  0.14351326627E+02  0.87600164993E+01 -0.85141168874E+02  0.15224719832E+03  0.12508993683E+03 0.  0.
          5    1    3    3  502    0 -0.36108801962E+02  0.38542805482E+02 -0.54702659388E+01  0.53261521223E+02  0.41800000000E+01 0.  1.
         -5    1    3    3    0  502  0.50460128588E+02 -0.29782788982E+02 -0.79670902935E+02  0.98985677101E+02  0.41800000000E+01 0.  1.
        -11    1    1    2    0    0 -0.48126458785E+01 -0.13711337254E+02  0.38826911665E+02  0.41457103120E+02  0.00000000000E+00 0. -1.
         11    1    1    2    0    0 -0.95386807481E+01  0.49513207543E+01 -0.50670463835E+02  0.51797663199E+02  0.00000000000E+00 0.  1.
</event>
<event>
 7    1  0.6473813E-006  0.1118622E+03  0.7561462E-02  0.1257160E+00
         -1   -1    0    0    0  501 -0.00000000000E+00  0.00000000000E+00  0.26696750044E+03  0.26696750044E+03  0.00000000000E+00 0.  1.
          1   -1    0    0  501    0  0.00000000000E+00 -0.00000000000E+00 -0.58505512388E+02  0.58505512388E+02  0.00000000000E+00 0. -1.
         23    2    1    2    0    0  0.61029933214E+02 -0.55388435229E+01  0.16052364999E+03  0.21253417771E+03  0.12509037913E+03 0.  0.
          5    1    3    3  502    0 -0.88827313793E+01  0.49340185959E+02  0.59190325636E+02  0.77680910886E+02  0.41800000000E+01 0. -1.
         -5    1    3    3    0  502  0.69912664594E+02 -0.54879029482E+02  0.10133332436E+03  0.13485326682E+03  0.41800000000E+01 0. -1.
        -11    1    1    2    0    0  0.11479086013E+02 -0.15573501164E+01  0.37611637721E+02  0.39355178149E+02  0.00000000000E+00 0.  1.
         11    1    1    2    0    0 -0.72509019227E+02  0.70961936392E+01  0.10326700340E+02  0.73583656972E+02  0.00000000000E+00 0. -1.
</event>
<event>
 7    1  0.6473813E-006  0.1869463E+03  0.7561462E-02  0.1161245E+00
         -1   -1    0    0    0  501 -0.00000000000E+00  0.00000000000E+00  0.41472737889E+02  0.41472737889E+02  0.00000000000E+00 0.  1.
          1   -1    0    0  501    0  0.00000000000E+00 -0.00000000000E+00 -0.95756461181E+03  0.95756461181E+03  0.00000000000E+00 0. -1.
         23    2    1    2    0    0 -0.13180843286E+03  0.95734936171E+02 -0.38599826230E+03  0.43724162267E+03  0.12508771769E+03 0.  0.
          5    1    3    3  502    0  0.13646186002E+02  0.43609205302E+02 -0.13375554812E+03  0.14140721422E+03  0.41800000000E+01 0.  1.
         -5    1    3    3    0  502 -0.14545461886E+03  0.52125730869E+02 -0.25224271418E+03  0.29583440845E+03  0.41800000000E+01 0.  1.
        -11    1    1    2    0    0  0.14901807866E+02 -0.42395736334E+02 -0.63242077873E+02  0.77582361079E+02  0.00000000000E+00 0.  1.
         11    1    1    2    0    0  0.11690662499E+03 -0.53339199837E+02 -0.46685153375E+03  0.48421336595E+03  0.00000000000E+00 0. -1.
</event>
<event>
 7    1  0.6473813E-006  0.1033553E+03  0.7561462E-02  0.1273394E+00
         -1   -1    0    0    0  501 -0.00000000000E+00  0.00000000000E+00  0.57495413483E+02  0.57495413483E+02  0.00000000000E+00 0.  1.
          1   -1    0    0  501    0  0.00000000000E+00 -0.00000000000E+00 -0.27747370525E+03  0.27747370525E+03  0.00000000000E+00 0. -1.
         23    2    1    2    0    0  0.42222173892E+02  0.25416161058E+02 -0.68506998916E+02  0.15089313004E+03  0.12508730784E+03 0.  0.
          5    1    3    3  502    0 -0.16173552520E+02 -0.21671980236E+02 -0.70615354635E+02  0.75731494365E+02  0.41800000000E+01 0. -1.
         -5    1    3    3    0  502  0.58395726412E+02  0.47088141294E+02  0.21083557184E+01  0.75161635677E+02  0.41800000000E+01 0. -1.
        -11    1    1    2    0    0 -0.29754633796E+02 -0.60261463758E+02 -0.10503493529E+03  0.12469611011E+03  0.00000000000E+00 0.  1.
         11    1    1    2    0    0 -0.12467540096E+02  0.34845302701E+02 -0.46436357567E+02  0.59379878582E+02  0.00000000000E+00 0. -1.
</event>
<event>
 7    1  0.6473813E-006  0.3202078E+03  0.7561462E-02  0.1075554E+00
         -2   -1    0    0    0  501 -0.00000000000E+00  0.00000000000E+00  0.34339223683E+03  0.34339223683E+03  0.00000000000E+00 0.  1.
          2   -1    0    0  501    0  0.00000000000E+00 -0.00000000000E+00 -0.34757372421E+03  0.34757372421E+03  0.00000000000E+00 0. -1.
         23    2    1    2    0    0 -0.21996148686E+03  0.20508549179E+03  0.12473492231E+03  0.34878860684E+03  0.12510626196E+03 0.  0.
          5    1    3    3  502    0 -0.46463331345E+02 -0.11524344845E+02  0.21648146353E+02  0.52704519012E+02  0.41800000000E+01 0.  1.
         -5    1    3    3    0  502 -0.17349815551E+03  0.21660983663E+03  0.10308677596E+03  0.29608408783E+03  0.41800000000E+01 0.  1.
        -11    1    1    2    0    0  0.19461896660E+03 -0.12621849330E+03 -0.11217346000E+03  0.25766360888E+03  0.00000000000E+00 0.  1.
         11    1    1    2    0    0  0.25342520253E+02 -0.78866998490E+02 -0.16742949686E+02  0.84513745319E+02  0.00000000000E+00 0. -1.
</event>
<event>
 7    1  0.6473813E-006  0.1082572E+03  0.7561462E-02  0.1263832E+00
         -1   -1    0    0    0  501 -0.00000000000E+00  0.00000000000E+00  0.28102571134E+03  0.28102571134E+03  0.00000000000E+00 0.  1.
          1   -1    0    0  501    0  0.00000000000E+00 -0.00000000000E+00 -0.47379204561E+02  0.47379204561E+02  0.00000000000E+00 0. -1.
         23    2    1    2    0    0 -0.50614560757E+02 -0.15512926988E+02  0.13731739761E+03  0.19314763661E+03  0.12508979647E+03 0.  0.
          5    1    3    3  502    0 -0.51722564378E+02  0.42606405108E+02  0.10979194691E+03  0.12869449649E+03  0.41800000000E+01 0.  1.
         -5    1    3    3    0  502  0.11080036209E+01 -0.58119332097E+02  0.27525450700E+02  0.64453140122E+02  0.41800000000E+01 0.  1.
        -11    1    1    2    0    0  0.18839324302E+02 -0.30096115461E+02  0.19746724836E+02  0.40627939251E+02  0.00000000000E+00 0. -1.
         11    1    1    2    0    0  0.31775236455E+02  0.45609042449E+02  0.76582384336E+02  0.94629340035E+02  0.00000000000E+00 0.  1.
</event>
<event>
 7    1  0.6473813E-006  0.1521752E+03  0.7561462E-02  0.1197825E+00
         -2   -1    0    0    0  501 -0.00000000000E+00  0.00000000000E+00  0.66973765195E+02  0.66973765195E+02  0.00000000000E+00 0.  1.
          2   -1    0    0  501    0  0.00000000000E+00 -0.00000000000E+00 -0.47247010053E+03  0.47247010053E+03  0.00000000000E+00 0. -1.
         23    2    1    2    0    0 -0.13823649395E+03  0.12954117295E+02 -0.17945927071E+03  0.25909739160E+03  0.12509472841E+03 0.  0.
          5    1    3    3  502    0 -0.58563220921E+02  0.15525119105E+02  0.20986122514E+01  0.60766411292E+02  0.41800000000E+01 0.  1.
         -5    1    3    3    0  502 -0.79673273033E+02 -0.25710018101E+01 -0.18155788296E+03  0.19833098031E+03  0.41800000000E+01 0.  1.
        -11    1    1    2    0    0  0.45147470328E+02  0.36799456273E+02 -0.10218095885E+03  0.11761565547E+03  0.00000000000E+00 0. -1.
         11    1    1    2    0    0  0.93089023626E+02 -0.49753573568E+02 -0.12385610577E+03  0.16273081865E+03  0.00000000000E+00 0.  1.
</event>
<event>
 7    1  0.6473813E-006  0.1137249E+03  0.7561462E-02  0.1253823E+00
         -2   -1    0    0    0  501 -0.00000000000E+00  0.00000000000E+00  0.31899469053E+02  0.31899469053E+02  0.00000000000E+00 0.  1.
          2   -1    0    0  501    0  0.00000000000E+00 -0.00000000000E+00 -0.66538161989E+03  0.66538161989E+03  0.00000000000E+00 0. -1.
         23    2    1    2    0    0 -0.44257578795E+02 -0.88975167348E+02 -0.35292981549E+03  0.38740422223E+03  0.12508902051E+03 0.  0.
          5    1    3    3  502    0 -0.57126888388E+02 -0.24677815594E+02 -0.57750498526E+02  0.85000402584E+02  0.41800000000E+01 0. -1.
         -5    1    3    3    0  502  0.12869309593E+02 -0.64297351754E+02 -0.29517931697E+03  0.30240381965E+03  0.41800000000E+01 0. -1.
        -11    1    1    2    0    0  0.36683003100E+02  0.73819673776E+02 -0.28108778583E+03  0.29292546884E+03  0.00000000000E+00 0. -1.
         11    1    1    2    0    0  0.75745756944E+01  0.15155493572E+02  0.53545049280E+00  0.16951397865E+02  0.00000000000E+00 0.  1.
</event>
<event>
 7    1  0.6473813E-006  0.9987904E+02  0.7561462E-02  0.1280551E+00
         -1   -1    0    0    0  501 -0.00000000000E+00  0.00000000000E+00  0.37098850747E+03  0.37098850747E+03  0.00000000000E+00 0.  1.
          1   -1    0    0  501    0  0.00000000000E+00 -0.00000000000E+00 -0.44671119328E+02  0.44671119328E+02  0.00000000000E+00 0. -1.
         23    2    1    2    0    0  0.16200498441E+02  0.40450386897E+02  0.27624411942E+03  0.30636072834E+03  0.12508953755E+03 0.  0.
          5    1    3    3  502    0 -0.33699319053E+02 -0.77106774050E+01  0.18528773951E+02  0.39444727339E+02  0.41800000000E+01 0. -1.
         -5    1    3    3    0  502  0.49899817494E+02  0.48161064302E+02  0.25771534547E+03  0.26691600100E+03  0.41800000000E+01 0. -1.
        -11    1    1    2    0    0  0.31416770505E+02  0.22551096434E+01  0.72389270605E+01  0.32318741520E+02  0.00000000000E+00 0. -1.
         11    1    1    2    0    0 -0.47617268946E+02 -0.42705496540E+02  0.42834341663E+02  0.76980156938E+02  0.00000000000E+00 0.  1.
</event>
<event>
 7    1  0.6473813E-006  0.3095847E+03  0.7561462E-02  0.1080545E+00
          2   -1    0    0  501    0  0.00000000000E+00  0.00000000000E+00  0.74498287252E+03  0.74498287252E+03  0.00000000000E+00 0. -1.
         -2   -1    0    0    0  501 -0.00000000000E+00 -0.00000000000E+00 -0.16217639023E+03  0.16217639023E+03  0.00000000000E+00 0.  1.
         23    2    1    2    0    0  0.11551595003E+03 -0.27899992942E+03  0.12197911392E+03  0.34886943400E+03  0.12508430124E+03 0.  0.
          5    1    3    3  502    0  0.43845776882E+02 -0.19879807954E+03  0.12892951788E+03  0.24100502393E+03  0.41800000000E+01 0. -1.
         -5    1    3    3    0  502  0.71670173147E+02 -0.80201849883E+02 -0.69504039611E+01  0.10786441007E+03  0.41800000000E+01 0. -1.
        -11    1    1    2    0    0 -0.60609056225E+02  0.21599661288E+03  0.27770240686E+03  0.35699666840E+03  0.00000000000E+00 0.  1.
         11    1    1    2    0    0 -0.54906893804E+02  0.63003316539E+02  0.18312496149E+03  0.20129316035E+03  0.00000000000E+00 0. -1.
</event>
<event>
 7    1  0.6473813E-006  0.8320762E+02  0.7561462E-02  0.1320187E+00
          4   -1    0    0  501    0  0.00000000000E+00  0.00000000000E+00  0.35550543929E+03  0.35550543929E+03  0.00000000000E+00 0. -1.
         -4   -1    0    0    0  501 -0.00000000000E+00 -0.00000000000E+00 -0.54284516191E+02  0.54284516191E+02  0.00000000000E+00 0.  1.
         23    2    1    2    0    0 -0.19138759437E+02 -0.33092925770E+02  0.50831196379E+02  0.14033238110E+03  0.12509169761E+03 0.  0.
          5    1    3    3  502    0  0.14171211231E+02 -0.34574954397E+02  0.84669910315E+02  0.92642953386E+02  0.41800000000E+01 0. -1.
         -5    1    3    3    0  502 -0.33309970669E+02  0.14820286270E+01 -0.33838713936E+02  0.47689427713E+02  0.41800000000E+01 0. -1.
        -11    1    1    2    0    0  0.43795045481E+02 -0.10584165464E+02  0.79728269657E+02  0.91578532144E+02  0.00000000000E+00 0.  1.
         11    1    1    2    0    0 -0.24656286044E+02  0.43677091234E+02  0.17066145706E+03  0.17787904224E+03  0.00000000000E+00 0. -1.
</event>
<event>
 7    1  0.6473813E-006  0.1266627E+03  0.7561462E-02  0.1232493E+00
          2   -1    0    0  501    0  0.00000000000E+00  0.00000000000E+00  0.66963126351E+03  0.66963126351E+03  0.00000000000E+00 0. -1.
         -2   -1    0    0    0  501 -0.00000000000E+00 -0.00000000000E+00 -0.33453005476E+02  0.33453005476E+02  0.00000000000E+00 0.  1.
         23    2    1    2    0    0  0.98589988908E+02  0.13546241138E+01  0.27790775231E+03  0.32031549755E+03  0.12508988072E+03 0.  0.
          5    1    3    3  502    0  0.29771181513E+02  0.50489595480E+02  0.49879249177E+02  0.77077457139E+02  0.41800000000E+01 0.  1.
         -5    1    3    3    0  502  0.68818807395E+02 -0.49134971367E+02  0.22802850314E+03  0.24323804042E+03  0.41800000000E+01 0.  1.
        -11    1    1    2    0    0 -0.58647627480E+02  0.23138010704E+02  0.30661344742E+03  0.31302830205E+03  0.00000000000E+00 0. -1.
         11    1    1    2    0    0 -0.39942361428E+02 -0.24492634818E+02  0.51657058304E+02  0.69740469381E+02  0.00000000000E+00 0.  1.
</event>
<event>
 7    1  0.6473813E-006  0.1434957E+03  0.7561462E-02  0.1208701E+00
         -2   -1    0    0    0  501 -0.00000000000E+00  0.00000000000E+00  0.60601327954E+03  0.60601327954E+03  0.00000000000E+00 0. -1.
          2   -1    0    0  501    0  0.00000000000E+00 -0.00000000000E+00 -0.45030414270E+02  0.45030414270E+02  0.00000000000E+00 0.  1.
         23    2    1    2    0    0  0.12403517638E+03 -0.82583091668E+01  0.32636233901E+03  0.37096077071E+03  0.12508633991E+03 0.  0.
          5    1    3    3  502    0  0.74267079476E+02 -0.54461422127E+02  0.26023623206E+03  0.27608334697E+03  0.41800000000E+01 0.  1.
         -5    1    3    3    0  502  0.49768096902E+02  0.46203112960E+02  0.66126106952E+02  0.94877423748E+02  0.41800000000E+01 0.  1.
        -11    1    1    2    0    0 -0.86873379350E+02 -0.57155415544E+01  0.72874965496E+02  0.11353595048E+03  0.00000000000E+00 0.  1.
         11    1    1    2    0    0 -0.37161797028E+02  0.13973850721E+02  0.16174556076E+03  0.16654697262E+03  0.00000000000E+00 0. -1.
</event>
<event>
 7    1  0.6473813E-006  0.1271091E+03  0.7561462E-02  0.1231809E+00
          4   -1    0    0  501    0  0.00000000000E+00  0.00000000000E+00  0.45871722734E+02  0.45871722734E+02  0.00000000000E+00 0.  1.
         -4   -1    0    0    0  501 -0.00000000000E+00 -0.00000000000E+00 -0.44801539720E+03  0.44801539720E+03  0.00000000000E+00 0. -1.
         23    2    1    2    0    0  0.86852717953E+02 -0.32397912505E+02 -0.19992267190E+03  0.25339699337E+03  0.12509173498E+03 0.  0.
          5    1    3    3  502    0  0.10615349716E+03 -0.53917642736E+02 -0.18637905996E+03  0.22120195196E+03  0.41800000000E+01 0.  1.
         -5    1    3    3    0  502 -0.19300779208E+02  0.21519730230E+02 -0.13543611935E+02  0.32195041411E+02  0.41800000000E+01 0.  1.
        -11    1    1    2    0    0 -0.45399602078E+02  0.43589876094E+02 -0.44633853031E+02  0.77158162259E+02  0.00000000000E+00 0.  1.
         11    1    1    2    0    0 -0.41453115874E+02 -0.11191963589E+02 -0.15758714954E+03  0.16333196431E+03  0.00000000000E+00 0. -1.
</event>
<event>
 7    1  0.6473813E-006  0.1415702E+03  0.7561462E-02  0.1211232E+00
         -1   -1    0    0    0  501 -0.00000000000E+00  0.00000000000E+00  0.23191131977E+02  0.23191131977E+02  0.00000000000E+00 0.  1.
          1   -1    0    0  501    0  0.00000000000E+00 -0.00000000000E+00 -0.89558655676E+03  0.89558655676E+03  0.00000000000E+00 0. -1.
         23    2    1    2    0    0  0.35671937207E+02  0.96055677925E+02 -0.42281504594E+03  0.45267936628E+03  0.12508743028E+03 0.  0.
          5    1    3    3  502    0 -0.25911914178E+02  0.94982614831E+02 -0.28825421263E+03  0.30463270986E+03  0.41800000000E+01 0. -1.
         -5    1    3    3    0  502  0.61583851385E+02  0.10730630935E+01 -0.13456083331E+03  0.14804665642E+03  0.41800000000E+01 0. -1.
        -11    1    1    2    0    0 -0.53180158143E+02 -0.47709843434E+02 -0.27155629387E+03  0.28079739871E+03  0.00000000000E+00 0.  1.
         11    1    1    2    0    0  0.17508220936E+02 -0.48345834491E+02 -0.17802408498E+03  0.18530092375E+03  0.00000000000E+00 0. -1.
</event>
<event>
 7    1  0.6473813E-006  0.9732870E+02  0.7561462E-02  0.1286016E+00
         -1   -1    0    0    0  501 -0.00000000000E+00  0.00000000000E+00  0.16204631677E+03  0.16204631677E+03  0.00000000000E+00 0.  1.
          1   -1    0    0  501    0  0.00000000000E+00 -0.00000000000E+00 -0.15187511711E+03  0.15187511711E+03  0.00000000000E+00 0. -1.
         23    2    1    2    0    0  0.31705843621E+02  0.76026329980E+02  0.82563316908E+02  0.17102427930E+03  0.12508932585E+03 0.  0.
          5    1    3    3  502    0  0.32936558759E+02  0.37365711348E+02  0.11172910322E+03  0.12240048282E+03  0.41800000000E+01 0. -1.
         -5    1    3    3    0  502 -0.12307151379E+01  0.38660618631E+02 -0.29165786316E+02  0.48623796480E+02  0.41800000000E+01 0. -1.
        -11    1    1    2    0    0 -0.29994959360E+02 -0.27473217189E+00 -0.58670436880E+02  0.65893802656E+02  0.00000000000E+00 0. -1.
         11    1    1    2    0    0 -0.17108842614E+01 -0.75751597808E+02 -0.13721680371E+02  0.77003351924E+02  0.00000000000E+00 0.  1.
</event>
<event>
 7    1  0.6473813E-006  0.1323038E+03  0.7561462E-02  0.1224077E+00
          1   -1    0    0  501    0  0.00000000000E+00  0.00000000000E+00  0.10479452407E+04  0.10479452407E+04  0.00000000000E+00 0. -1.
         -1   -1    0    0    0  501 -0.00000000000E+00 -0.00000000000E+00 -0.22053478503E+02  0.22053478503E+02  0.00000000000E+00 0.  1.
         23    2    1    2    0    0 -0.65071634188E+02  0.82746509687E+02  0.62560632154E+03  0.64661604458E+03  0.12509091543E+03 0.  0.
          5    1    3    3  502    0 -0.52700734324E+02 -0.12572387190E+01  0.43125387064E+03  0.43448397138E+03  0.41800000000E+01 0.  1.
         -5    1    3    3    0  502 -0.12370899864E+02  0.84003748406E+02  0.19435245090E+03  0.21213207320E+03  0.41800000000E+01 0.  1.
        -11    1    1    2    0    0  0.49854948676E+01 -0.63391513779E+02  0.11714239495E+03  0.13328795847E+03  0.00000000000E+00 0.  1.
         11    1    1    2    0    0  0.60086139321E+02 -0.19354995908E+02  0.28314304567E+03  0.29009471612E+03  0.00000000000E+00 0. -1.
</event>
<event>
 7    1  0.6473813E-006  0.8044110E+02  0.7561462E-02  0.1327804E+00
          2   -1    0    0  501    0  0.00000000000E+00  0.00000000000E+00  0.73930833535E+02  0.73930833535E+02  0.00000000000E+00 0. -1.
         -2   -1    0    0    0  501 -0.00000000000E+00 -0.00000000000E+00 -0.25743965140E+03  0.25743965140E+03  0.00000000000E+00 0.  1.
         23    2    1    2    0    0  0.42121683235E+02 -0.16211025472E+02 -0.18437243690E+03  0.22732726560E+03  0.12508979434E+03 0.  0.
          5    1    3    3  502    0  0.39955905696E+02 -0.44952331272E+02 -0.18850513211E+03  0.19791120160E+03  0.41800000000E+01 0.  1.
         -5    1    3    3    0  502  0.21657775395E+01  0.28741305800E+02  0.41326952054E+01  0.29416063998E+02  0.41800000000E+01 0.  1.
        -11    1    1    2    0    0 -0.53635965565E+02  0.22712598306E+02 -0.33520995461E+02  0.67203690826E+02  0.00000000000E+00 0.  1.
         11    1    1    2    0    0  0.11514282330E+02 -0.65015728340E+01  0.34384614499E+02  0.36839528514E+02  0.00000000000E+00 0. -1.
</event>
<event>
 7    1  0.6473813E-006  0.7712607E+02  0.7561462E-02  0.1337411E+00
         -3   -1    0    0    0  501 -0.00000000000E+00  0.00000000000E+00  0.99772270804E+03  0.99772270804E+03  0.00000000000E+00 0.  1.
          3   -1    0    0  501    0  0.00000000000E+00 -0.00000000000E+00 -0.14699846937E+02  0.14699846937E+02  0.00000000000E+00 0. -1.
         23    2    1    2    0    0 -0.27980579348E+02 -0.70088449488E+01  0.75261102382E+03  0.76348062475E+03  0.12508906611E+03 0.  0.
          5    1    3    3  502    0 -0.41860952852E+02 -0.23752105987E+02  0.73080617913E+03  0.73240128739E+03  0.41800000000E+01 0.  1.
         -5    1    3    3    0  502  0.13880373505E+02  0.16743261038E+02  0.21804844694E+02  0.31079337363E+02  0.41800000000E+01 0.  1.
        -11    1    1    2    0    0 -0.19505092522E+02  0.26126793727E+02  0.15086215926E+03  0.15434522695E+03  0.00000000000E+00 0.  1.
         11    1    1    2    0    0  0.47485671870E+02 -0.19117948778E+02  0.79549678025E+02  0.94596703285E+02  0.00000000000E+00 0. -1.
</event>
<event>
 7    1  0.6473813E-006  0.1397052E+03  0.7561462E-02  0.1213726E+00
          1   -1    0    0  501    0  0.00000000000E+00  0.00000000000E+00  0.63307488886E+02  0.63307488886E+02  0.00000000000E+00 0. -1.
         -1   -1    0    0    0  501 -0.00000000000E+00 -0.00000000000E+00 -0.38222730546E+03  0.38222730546E+03  0.00000000000E+00 0.  1.
         23    2    1    2    0    0  0.10902689125E+03  0.10764256444E+02 -0.18691523709E+03  0.25017570413E+03  0.12509134602E+03 0.  0.
          5    1    3    3  502    0  0.20347785758E+02 -0.43589145011E+02 -0.11188181806E+03  0.12185671734E+03  0.41800000000E+01 0. -1.
         -5    1    3    3    0  502  0.88679105493E+02  0.54353401455E+02 -0.75033419031E+02  0.12831898680E+03  0.41800000000E+01 0. -1.
        -11    1    1    2    0    0 -0.10015364706E+03 -0.31076214022E+02 -0.13710909448E+03  0.17261340587E+03  0.00000000000E+00 0.  1.
         11    1    1    2    0    0 -0.88732441886E+01  0.20311957578E+02  0.51045149906E+01  0.22745684346E+02  0.00000000000E+00 0. -1.
</event>
<event>
 7    1  0.7998782E-006  0.1741174E+03  0.7561462E-02  0.1173621E+00
          1   -1    0    0  501    0  0.00000000000E+00  0.00000000000E+00  0.30174366119E+03  0.30174366119E+03  0.00000000000E+00 0. -1.
         -1   -1    0    0    0  501 -0.00000000000E+00 -0.00000000000E+00 -0.13275043846E+03  0.13275043846E+03  0.00000000000E+00 0.  1.
         23    2    1    2    0    0 -0.10622468159E+03 -0.10160863981E+03  0.52909436763E+00  0.19301776352E+03  0.12509028112E+03 0.  0.
          5    1    3    3  502    0 -0.96479928925E+02 -0.12382452296E+03  0.24180085087E+02  0.15888057806E+03  0.41800000000E+01 0.  1.
         -5    1    3    3    0  502 -0.97447526617E+01  0.22215883149E+02 -0.23650990719E+02  0.34137185451E+02  0.41800000000E+01 0.  1.
        -11    1    1    2    0    0  0.34765241414E+02  0.86947682605E+02  0.61589638281E+02  0.11207945871E+03  0.00000000000E+00 0. -1.
         11    1    1    2    0    0  0.71459440172E+02  0.14660957204E+02  0.10687449009E+03  0.12939687743E+03  0.00000000000E+00 0.  1.
</event>
<event>
 7    1  0.6473813E-006  0.8706284E+02  0.7561462E-02  0.1310124E+00
         -2   -1    0    0    0  501 -0.00000000000E+00  0.00000000000E+00  0.13619471430E+03  0.13619471430E+03  0.00000000000E+00 0.  1.
          2   -1    0    0  501    0  0.00000000000E+00 -0.00000000000E+00 -0.10987487775E+03  0.10987487775E+03  0.00000000000E+00 0. -1.
         23    2    1    2    0    0 -0.27479377165E+01  0.42003755658E+02  0.53556126403E+02  0.14243439437E+03  0.12508969332E+03 0.  0.
          5    1    3    3  502    0 -0.57646853925E+01 -0.35864792311E+02 -0.14062405493E+02  0.39175739603E+02  0.41800000000E+01 0. -1.
         -5    1    3    3    0  502  0.30167476760E+01  0.77868547969E+02  0.67618531897E+02  0.10325865477E+03  0.41800000000E+01 0. -1.
        -11    1    1    2    0    0  0.11299459509E+02  0.45559354478E+01  0.28210684579E+02  0.30729091386E+02  0.00000000000E+00 0.  1.
         11    1    1    2    0    0 -0.85515217925E+01 -0.46559691106E+02 -0.55446974430E+02  0.72906106289E+02  0.00000000000E+00 0. -1.
</event>
<event>
 7    1  0.6473813E-006  0.2334266E+03  0.7561462E-02  0.1124251E+00
         -1   -1    0    0    0  501 -0.00000000000E+00  0.00000000000E+00  0.89833230350E+02  0.89833230350E+02  0.00000000000E+00 0.  1.
          1   -1    0    0  501    0  0.00000000000E+00 -0.00000000000E+00 -0.69970820178E+03  0.69970820178E+03  0.00000000000E+00 0. -1.
         23    2    1    2    0    0  0.52074520870E+02 -0.20952784321E+03 -0.21040289709E+03  0.32639098316E+03  0.12509205403E+03 0.  0.
          5    1    3    3  502    0  0.46337634617E+01 -0.19501981422E+03 -0.19074537949E+03  0.27286529992E+03  0.41800000000E+01 0. -1.
         -5    1    3    3    0  502  0.47440757409E+02 -0.14508028992E+02 -0.19657517597E+02  0.53525683245E+02  0.41800000000E+01 0. -1.
        -11    1    1    2    0    0 -0.54811543494E+02  0.11513949595E+03 -0.15279148251E+03  0.19901418531E+03  0.00000000000E+00 0. -1.
         11    1    1    2    0    0  0.27370226232E+01  0.94388347266E+02 -0.24668059183E+03  0.26413626366E+03  0.00000000000E+00 0.  1.
</event>
<event>
 7    1  0.6473813E-006  0.6945765E+02  0.7561462E-02  0.1361947E+00
         -1   -1    0    0    0  501 -0.00000000000E+00  0.00000000000E+00  0.34950386934E+03  0.34950386934E+03  0.00000000000E+00 0.  1.
          1   -1    0    0  501    0  0.00000000000E+00 -0.00000000000E+00 -0.48317701960E+02  0.48317701960E+02  0.00000000000E+00 0. -1.
         23    2    1    2    0    0  0.33381278011E+02 -0.12670803462E+02  0.25955553501E+03  0.29032912190E+03  0.12508822602E+03 0.  0.
          5    1    3    3  502    0  0.30970824361E+02 -0.36458897298E+02  0.24288080966E+02  0.53812883502E+02  0.41800000000E+01 0. -1.
         -5    1    3    3    0  502  0.24104536500E+01  0.23788093836E+02  0.23526745404E+03  0.23651623840E+03  0.41800000000E+01 0. -1.
        -11    1    1    2    0    0  0.11802431898E+02 -0.10542128952E+02 -0.21352294212E+02  0.26577327737E+02  0.00000000000E+00 0. -1.
         11    1    1    2    0    0 -0.45183709909E+02  0.23212932414E+02  0.62982926583E+02  0.80915121661E+02  0.00000000000E+00 0.  1.
</event>
<event>
 7    1  0.6473813E-006  0.1069535E+03  0.7561462E-02  0.1266318E+00
          2   -1    0    0  501    0  0.00000000000E+00  0.00000000000E+00  0.63236819969E+03  0.63236819969E+03  0.00000000000E+00 0. -1.
         -2   -1    0    0    0  501 -0.00000000000E+00 -0.00000000000E+00 -0.26232553154E+02  0.26232553154E+02  0.00000000000E+00 0.  1.
         23    2    1    2    0    0 -0.34904696823E+02  0.14265360431E+01  0.18458374169E+03  0.22569662250E+03  0.12508970719E+03 0.  0.
          5    1    3    3  502    0 -0.49452795808E+02 -0.46698797941E+02  0.58201907537E+02  0.89617471418E+02  0.41800000000E+01 0. -1.
         -5    1    3    3    0  502  0.14548098985E+02  0.48125333985E+02  0.12638183415E+03  0.13607915108E+03  0.41800000000E+01 0. -1.
        -11    1    1    2    0    0  0.50155686642E+01  0.42162295003E+02  0.24347916627E+03  0.24715363533E+03  0.00000000000E+00 0.  1.
         11    1    1    2    0    0  0.29889128159E+02 -0.43588831047E+02  0.17807273857E+03  0.18575049501E+03  0.00000000000E+00 0. -1.
</event>
<event>
 7    1  0.6473813E-006  0.6752850E+02  0.7561462E-02  0.1368705E+00
         -4   -1    0    0    0  501 -0.00000000000E+00  0.00000000000E+00  0.12244654171E+04  0.12244654171E+04  0.00000000000E+00 0.  1.
          4   -1    0    0  501    0  0.00000000000E+00 -0.00000000000E+00 -0.11497039563E+02  0.11497039563E+02  0.00000000000E+00 0. -1.
         23    2    1    2    0    0 -0.37463107421E+02  0.15845472418E+02  0.80611668633E+03  0.81677796005E+03  0.12509020991E+03 0.  0.
          5    1    3    3  502    0 -0.18977107053E+02  0.71969073349E+00  0.78311165202E+03  0.78335303693E+03  0.41800000000E+01 0. -1.
         -5    1    3    3    0  502 -0.18486000368E+02  0.15125781685E+02  0.23005034318E+02  0.33424923113E+02  0.41800000000E+01 0. -1.
        -11    1    1    2    0    0 -0.18293880542E+02  0.18385873795E+02  0.49404346784E+02  0.55798708781E+02  0.00000000000E+00 0. -1.
         11    1    1    2    0    0  0.55756987962E+02 -0.34231346213E+02  0.35744734443E+03  0.36338578785E+03  0.00000000000E+00 0.  1.
</event>
<event>
 7    1  0.6473813E-006  0.1134666E+03  0.7561462E-02  0.1254282E+00
          1   -1    0    0  501    0  0.00000000000E+00  0.00000000000E+00  0.35580423354E+02  0.35580423354E+02  0.00000000000E+00 0. -1.
         -1   -1    0    0    0  501 -0.00000000000E+00 -0.00000000000E+00 -0.41811088856E+03  0.41811088856E+03  0.00000000000E+00 0.  1.
         23    2    1    2    0    0  0.34123229250E+02 -0.39691614315E+02 -0.24964096275E+03  0.28409575266E+03  0.12509982962E+03 0.  0.
          5    1    3    3  502    0  0.77313320746E+02 -0.46879157335E+02 -0.18435942379E+03  0.20537982982E+03  0.41800000000E+01 0. -1.
         -5    1    3    3    0  502 -0.43190091495E+02  0.71875430208E+01 -0.65281538961E+02  0.78715922831E+02  0.41800000000E+01 0. -1.
        -11    1    1    2    0    0 -0.41341855227E+01  0.57441078884E+02 -0.11876994813E+03  0.13199571816E+03  0.00000000000E+00 0.  1.
         11    1    1    2    0    0 -0.29989043728E+02 -0.17749464570E+02 -0.14119554314E+02  0.37599841093E+02  0.00000000000E+00 0. -1.
</event>
<event>
 7    1  0.6473813E-006  0.8229156E+02  0.7561462E-02  0.1322671E+00
         -1   -1    0    0    0  501 -0.00000000000E+00  0.00000000000E+00  0.57485958819E+02  0.57485958819E+02  0.00000000000E+00 0.  1.
          1   -1    0    0  501    0  0.00000000000E+00 -0.00000000000E+00 -0.20866920476E+03  0.20866920476E+03  0.00000000000E+00 0. -1.
         23    2    1    2    0    0  0.75308531719E+01  0.25312419724E+02 -0.77792458335E+02  0.14965631138E+03  0.12509161691E+03 0.  0.
          5    1    3    3  502    0  0.18143962878E+02  0.62817692964E+02 -0.87460912330E+02  0.10928014240E+03  0.41800000000E+01 0. -1.
         -5    1    3    3    0  502 -0.10613109706E+02 -0.37505273240E+02  0.96684539958E+01  0.40376168975E+02  0.41800000000E+01 0. -1.
        -11    1    1    2    0    0  0.20948094260E+02  0.11601002378E+01 -0.74704058903E+02  0.77594232403E+02  0.00000000000E+00 0.  1.
         11    1    1    2    0    0 -0.28478947432E+02 -0.26472519962E+02  0.13132712965E+01  0.38904619796E+02  0.00000000000E+00 0. -1.
</event>
<event>
 7    1  0.6473813E-006  0.7206071E+02  0.7561462E-02  0.1353222E+00
         -2   -1    0    0    0  501 -0.00000000000E+00  0.00000000000E+00  0.46655195640E+02  0.46655195640E+02  0.00000000000E+00 0.  1.
          2   -1    0    0  501    0  0.00000000000E+00 -0.00000000000E+00 -0.32214402403E+03  0.32214402403E+03  0.00000000000E+00 0. -1.
         23    2    1    2    0    0  0.27170001184E+02  0.49264685454E+02 -0.15020267479E+03  0.20340262920E+03  0.12508624167E+03 0.  0.
          5    1    3    3  502    0  0.78770839300E+01  0.38553996975E+02 -0.16933615121E+03  0.17389842909E+03  0.41800000000E+01 0. -1.
         -5    1    3    3    0  502  0.19292917254E+02  0.10710688479E+02  0.19133476423E+02  0.29504200106E+02  0.41800000000E+01 0. -1.
        -11    1    1    2    0    0 -0.25361652492E+02  0.65921915462E+01  0.21021421857E+01  0.26288579426E+02  0.00000000000E+00 0.  1.
         11    1    1    2    0    0 -0.18083486923E+01 -0.55856877000E+02 -0.12738829579E+03  0.13910801104E+03  0.00000000000E+00 0. -1.
</event>
<event>
 7    1  0.6473813E-006  0.9665871E+02  0.7561462E-02  0.1287483E+00
          1   -1    0    0  501    0  0.00000000000E+00  0.00000000000E+00  0.24341175915E+03  0.24341175915E+03  0.00000000000E+00 0. -1.
         -1   -1    0    0    0  501 -0.00000000000E+00 -0.00000000000E+00 -0.88477147307E+02  0.88477147307E+02  0.00000000000E+00 0.  1.
         23    2    1    2    0    0 -0.40540883366E+02 -0.27263080474E+02 -0.13405187593E+02  0.13497803971E+03  0.12511008500E+03 0.  0.
          5    1    3    3  502    0 -0.30285927556E+02 -0.75956009012E+02 -0.20846660113E+02  0.84490285541E+02  0.41800000000E+01 0. -1.
         -5    1    3    3    0  502 -0.10254955810E+02  0.48692928538E+02  0.74414725195E+01  0.50487754174E+02  0.41800000000E+01 0. -1.
        -11    1    1    2    0    0  0.36369461615E+02  0.25701280927E+01  0.16795314057E+03  0.17186506546E+03  0.00000000000E+00 0. -1.
         11    1    1    2    0    0  0.41714217505E+01  0.24692952381E+02  0.38665885912E+00  0.25045801281E+02  0.00000000000E+00 0.  1.
</event>
<event>
 7    1  0.6473813E-006  0.6593614E+02  0.7561462E-02  0.1374484E+00
          1   -1    0    0  501    0  0.00000000000E+00  0.00000000000E+00  0.45930164769E+02  0.45930164769E+02  0.00000000000E+00 0. -1.
         -1   -1    0    0    0  501 -0.00000000000E+00 -0.00000000000E+00 -0.32541194932E+03  0.32541194932E+03  0.00000000000E+00 0.  1.
         23    2    1    2    0    0  0.50832246238E+02 -0.17071224961E+02 -0.16732233357E+03  0.21569080050E+03  0.12510161521E+03 0.  0.
          5    1    3    3  502    0  0.14928189801E+01 -0.14879473421E+02  0.18048181573E+02  0.23808328288E+02  0.41800000000E+01 0.  1.
         -5    1    3    3    0  502  0.49339427258E+02 -0.21917515402E+01 -0.18537051514E+03  0.19188247221E+03  0.41800000000E+01 0.  1.
        -11    1    1    2    0    0 -0.30909100966E+02 -0.10605913685E+02 -0.11675415049E+03  0.12124103919E+03  0.00000000000E+00 0.  1.
         11    1    1    2    0    0 -0.19923145272E+02  0.27677138646E+02  0.45946995023E+01  0.34410274406E+02  0.00000000000E+00 0. -1.
</event>
<event>
 7    1  0.6473813E-006  0.1220771E+03  0.7561462E-02  0.1239709E+00
         -3   -1    0    0    0  501 -0.00000000000E+00  0.00000000000E+00  0.30493072327E+03  0.30493072327E+03  0.00000000000E+00 0.  1.
          3   -1    0    0  501    0  0.00000000000E+00 -0.00000000000E+00 -0.96726723967E+02  0.96726723967E+02  0.00000000000E+00 0. -1.
         23    2    1    2    0    0  0.17317742651E+02  0.61109648002E+02  0.24698284085E+03  0.28404601655E+03  0.12508925834E+03 0.  0.
          5    1    3    3  502    0  0.67618994847E+02  0.42482854630E+02  0.18750392794E+03  0.20384385396E+03  0.41800000000E+01 0. -1.
         -5    1    3    3    0  502 -0.50301252196E+02  0.18626793373E+02  0.59478912903E+02  0.80202162589E+02  0.41800000000E+01 0. -1.
        -11    1    1    2    0    0 -0.33547147595E+02 -0.79242537060E+02 -0.35378579635E+02  0.93039962857E+02  0.00000000000E+00 0.  1.
         11    1    1    2    0    0  0.16229404943E+02  0.18132889057E+02 -0.34002619120E+01  0.24571467832E+02  0.00000000000E+00 0. -1.
</event>
<event>
 7    1  0.6473813E-006  0.4996768E+02  0.7561462E-02  0.1445516E+00
          1   -1    0    0  501    0  0.00000000000E+00  0.00000000000E+00  0.49390283313E+02  0.49390283313E+02  0.00000000000E+00 0. -1.
         -1   -1    0    0    0  501 -0.00000000000E+00 -0.00000000000E+00 -0.21574841548E+03  0.21574841548E+03  0.00000000000E+00 0.  1.
         23    2    1    2    0    0 -0.17498587197E+02  0.94894923447E+01 -0.10621782189E+03  0.16530666677E+03  0.12509123620E+03 0.  0.
          5    1    3    3  502    0 -0.30927006544E+01 -0.21824396680E+02  0.22627808494E+02  0.31864701552E+02  0.41800000000E+01 0.  1.
         -5    1    3    3    0  502 -0.14405886543E+02  0.31313889024E+02 -0.12884563038E+03  0.13344196522E+03  0.41800000000E+01 0.  1.
        -11    1    1    2    0    0 -0.11010519077E+02  0.33543899622E+01  0.14730441904E+02  0.18694100167E+02  0.00000000000E+00 0. -1.
         11    1    1    2    0    0  0.28509106274E+02 -0.12843882307E+02 -0.74870752179E+02  0.81137931851E+02  0.00000000000E+00 0.  1.
</event>
<event>
 7    1  0.6473813E-006  0.8619245E+02  0.7561462E-02  0.1312343E+00
          3   -1    0    0  501    0  0.00000000000E+00  0.00000000000E+00  0.18486215820E+03  0.18486215820E+03  0.00000000000E+00 0. -1.
         -3   -1    0    0    0  501 -0.00000000000E+00 -0.00000000000E+00 -0.68073103012E+02  0.68073103012E+02  0.00000000000E+00 0.  1.
         23    2    1    2    0    0  0.16719879855E+02  0.69620120050E+01  0.39613765454E+02  0.13245810353E+03  0.12509146568E+03 0.  0.
          5    1    3    3  502    0  0.13821887136E+01 -0.52766238873E+02  0.46237909213E+02  0.70296536606E+02  0.41800000000E+01 0.  1.
         -5    1    3    3    0  502  0.15337691141E+02  0.59728250878E+02 -0.66241437584E+01  0.62161566929E+02  0.41800000000E+01 0.  1.
        -11    1    1    2    0    0  0.19159776872E+02  0.50089899960E+01 -0.12315878167E+02  0.23320975228E+02  0.00000000000E+00 0.  1.
         11    1    1    2    0    0 -0.35879656727E+02 -0.11971002001E+02  0.89491167905E+02  0.97156182453E+02  0.00000000000E+00 0. -1.
</event>
<event>
 7    1  0.6473813E-006  0.1168036E+03  0.7561462E-02  0.1248465E+00
         -2   -1    0    0    0  501 -0.00000000000E+00  0.00000000000E+00  0.18177271967E+03  0.18177271967E+03  0.00000000000E+00 0.  1.
          2   -1    0    0  501    0  0.00000000000E+00 -0.00000000000E+00 -0.11516300692E+03  0.11516300692E+03  0.00000000000E+00 0. -1.
         23    2    1    2    0    0  0.32976446149E+02 -0.55756103536E+02  0.10611879798E+03  0.17636824852E+03  0.12509344795E+03 0.  0.
          5    1    3    3  502    0  0.28497578189E+01  0.39205919344E+02  0.42731268239E+02  0.58212188728E+02  0.41800000000E+01 0.  1.
         -5    1    3    3    0  502  0.30126688330E+02 -0.94962022880E+02  0.63387529738E+02  0.11815605979E+03  0.41800000000E+01 0.  1.
        -11    1    1    2    0    0 -0.26401015505E+02 -0.10034619585E+02  0.17533323772E+02  0.33243415173E+02  0.00000000000E+00 0.  1.
         11    1    1    2    0    0 -0.65754306439E+01  0.65790723121E+02 -0.57042408995E+02  0.87324062897E+02  0.00000000000E+00 0. -1.
</event>
<event>
 7    1  0.6473813E-006  0.1068147E+03  0.7561462E-02  0.1266585E+00
         -1   -1    0    0    0  501 -0.00000000000E+00  0.00000000000E+00  0.18066830422E+02  0.18066830422E+02  0.00000000000E+00 0.  1.
          1   -1    0    0  501    0  0.00000000000E+00 -0.00000000000E+00 -0.69711267997E+03  0.69711267997E+03  0.00000000000E+00 0. -1.
         23    2    1    2    0    0 -0.25301010660E+02  0.72440605074E+00 -0.40584751721E+03  0.42544119510E+03  0.12508931752E+03 0.  0.
          5    1    3    3  502    0 -0.39306634147E+02  0.53342043691E+02 -0.28803075246E+03  0.29558344316E+03  0.41800000000E+01 0. -1.
         -5    1    3    3    0  502  0.14005623487E+02 -0.52617637640E+02 -0.11781676475E+03  0.12985775193E+03  0.41800000000E+01 0. -1.
        -11    1    1    2    0    0  0.58279137638E+02  0.71682510064E+01 -0.13108379825E+03  0.14363427123E+03  0.00000000000E+00 0. -1.
         11    1    1    2    0    0 -0.32978126978E+02 -0.78926570572E+01 -0.14211453409E+03  0.14610404407E+03  0.00000000000E+00 0.  1.
</event>
<event>
 7    1  0.6473813E-006  0.1519834E+03  0.7561462E-02  0.1198057E+00
         -2   -1    0    0    0  501 -0.00000000000E+00  0.00000000000E+00  0.28471118108E+02  0.28471118108E+02  0.00000000000E+00 0.  1.
          2   -1    0    0  501    0  0.00000000000E+00 -0.00000000000E+00 -0.95739763039E+03  0.95739763039E+03  0.00000000000E+00 0. -1.
         23    2    1    2    0    0  0.11177473249E+03  0.62165278565E+01 -0.34099595413E+03  0.38007611979E+03  0.12508948820E+03 0.  0.
          5    1    3    3  502    0  0.93264884562E+02 -0.50426816515E+02 -0.18875257968E+03  0.21653224068E+03  0.41800000000E+01 0. -1.
         -5    1    3    3    0  502  0.18509847933E+02  0.56643344371E+02 -0.15224337445E+03  0.16354387911E+03  0.41800000000E+01 0. -1.
        -11    1    1    2    0    0 -0.54670922171E+02  0.37423270365E+02 -0.18506697069E+03  0.19656854920E+03  0.00000000000E+00 0.  1.
         11    1    1    2    0    0 -0.57103810324E+02 -0.43639798221E+02 -0.40286358746E+03  0.40922407950E+03  0.00000000000E+00 0. -1.
</event>
<event>
 7    1  0.6473813E-006  0.1062786E+03  0.7561462E-02  0.1267621E+00
         -4   -1    0    0    0  501 -0.00000000000E+00  0.00000000000E+00  0.27074112820E+03  0.27074112820E+03  0.00000000000E+00 0. -1.
          4   -1    0    0  501    0  0.00000000000E+00 -0.00000000000E+00 -0.45568751646E+02  0.45568751646E+02  0.00000000000E+00 0.  1.
         23    2    1    2    0    0 -0.55383784099E+00  0.10919490619E+02  0.16098896946E+03  0.20416583668E+03  0.12508676416E+03 0.  0.
          5    1    3    3  502    0  0.50262636955E+02 -0.26951915515E+02  0.10469633931E+03  0.11929599443E+03  0.41800000000E+01 0.  1.
         -5    1    3    3    0  502 -0.50816474796E+02  0.37871406134E+02  0.56292630157E+02  0.84869842248E+02  0.41800000000E+01 0.  1.
        -11    1    1    2    0    0  0.77311721948E+01  0.39845003532E+02  0.25730085365E+02  0.48056556502E+02  0.00000000000E+00 0.  1.
         11    1    1    2    0    0 -0.71773343538E+01 -0.50764494151E+02  0.38453321727E+02  0.64087486662E+02  0.00000000000E+00 0. -1.
</event>
<event>
 7    1  0.7028112E-006  0.2755719E+03  0.7561462E-02  0.1098132E+00
          1   -1    0    0  501    0  0.00000000000E+00  0.00000000000E+00  0.66462637076E+02  0.66462637076E+02  0.00000000000E+00 0. -1.
         -1   -1    0    0    0  501 -0.00000000000E+00 -0.00000000000E+00 -0.12768811756E+04  0.12768811756E+04  0.00000000000E+00 0.  1.
         23    2    1    2    0    0 -0.65566994596E+02  0.25631793856E+03 -0.74556073625E+03  0.80094085514E+03  0.12509006986E+03 0.  0.
          5    1    3    3  502    0  0.15884132038E+02  0.15206504977E+03 -0.30944691330E+03  0.34518248734E+03  0.41800000000E+01 0.  1.
         -5    1    3    3    0  502 -0.81451126634E+02  0.10425288879E+03 -0.43611382295E+03  0.45575836780E+03  0.41800000000E+01 0.  1.
        -11    1    1    2    0    0  0.24999241105E+02 -0.54296031776E+02 -0.18804974403E+03  0.19732138087E+03  0.00000000000E+00 0. -1.
         11    1    1    2    0    0  0.40567753491E+02 -0.20202190679E+03 -0.27680805827E+03  0.34508157669E+03  0.00000000000E+00 0.  1.
</event>
<event>
 7    1  0.6473813E-006  0.7779046E+02  0.7561462E-02  0.1335441E+00
         -2   -1    0    0    0  501 -0.00000000000E+00  0.00000000000E+00  0.11386963965E+03  0.11386963965E+03  0.00000000000E+00 0. -1.
          2   -1    0    0  501    0  0.00000000000E+00 -0.00000000000E+00 -0.13908938782E+03  0.13908938782E+03  0.00000000000E+00 0.  1.
         23    2    1    2    0    0 -0.22044569377E+02 -0.43391656876E+02  0.29308513890E+02  0.13738218634E+03  0.12508428043E+03 0.  0.
          5    1    3    3  502    0  0.24294385751E+02 -0.95261499661E+01 -0.39597336849E+02  0.47606577253E+02  0.41800000000E+01 0.  1.
         -5    1    3    3    0  502 -0.46338955128E+02 -0.33865506910E+02  0.68905850739E+02  0.89775609085E+02  0.41800000000E+01 0.  1.
        -11    1    1    2    0    0  0.34685851219E+02  0.10301172873E+02  0.13708986163E+02  0.38693135554E+02  0.00000000000E+00 0. -1.
         11    1    1    2    0    0 -0.12641281842E+02  0.33090484003E+02 -0.68237248227E+02  0.76883705580E+02  0.00000000000E+00 0.  1.
</event>
<event>
 7    1  0.6473813E-006  0.1205762E+03  0.7561462E-02  0.1242149E+00
          1   -1    0    0  501    0  0.00000000000E+00  0.00000000000E+00  0.35871300071E+02  0.35871300071E+02  0.00000000000E+00 0. -1.
         -1   -1    0    0    0  501 -0.00000000000E+00 -0.00000000000E+00 -0.46580965485E+03  0.46580965485E+03  0.00000000000E+00 0.  1.
         23    2    1    2    0    0  0.55175263519E+02  0.65703662925E+01 -0.32427451313E+03  0.35197950356E+03  0.12509249234E+03 0.  0.
          5    1    3    3  502    0 -0.24631828303E+02 -0.37031941460E+02 -0.12927888088E+03  0.13677935917E+03  0.41800000000E+01 0.  1.
         -5    1    3    3    0  502  0.79807091822E+02  0.43602307753E+02 -0.19499563225E+03  0.21520014439E+03  0.41800000000E+01 0.  1.
        -11    1    1    2    0    0 -0.58608615375E+02  0.31962671052E+02 -0.74420024440E+02  0.99974607649E+02  0.00000000000E+00 0.  1.
         11    1    1    2    0    0  0.34333518560E+01 -0.38533037345E+02 -0.31243817206E+02  0.49726843712E+02  0.00000000000E+00 0. -1.
</event>
<event>
 7    1  0.6473813E-006  0.1307281E+03  0.7561462E-02  0.1226379E+00
          1   -1    0    0  501    0  0.00000000000E+00  0.00000000000E+00  0.22370059540E+03  0.22370059540E+03  0.00000000000E+00 0. -1.
         -1   -1    0    0    0  501 -0.00000000000E+00 -0.00000000000E+00 -0.13201901443E+03  0.13201901443E+03  0.00000000000E+00 0.  1.
         23    2    1    2    0    0  0.80383884227E+02  0.29721322541E+01 -0.60867349440E+02  0.16069569425E+03  0.12509144459E+03 0.  0.
          5    1    3    3  502    0 -0.26083678513E+02  0.26822724499E+02 -0.47891186629E+01  0.37950295018E+02  0.41800000000E+01 0. -1.
         -5    1    3    3    0  502  0.10646756274E+03 -0.23850592245E+02 -0.56078230777E+02  0.12274539924E+03  0.41800000000E+01 0. -1.
        -11    1    1    2    0    0 -0.68309281156E+02 -0.37583438431E+02  0.70315633250E+02  0.10499029010E+03  0.00000000000E+00 0. -1.
         11    1    1    2    0    0 -0.12074603071E+02  0.34611306177E+02  0.82233297155E+02  0.90033625472E+02  0.00000000000E+00 0.  1.
</event>
<event>
 7    1  0.6473813E-006  0.1037314E+03  0.7561462E-02  0.1272639E+00
         -1   -1    0    0    0  501 -0.00000000000E+00  0.00000000000E+00  0.34002214028E+03  0.34002214028E+03  0.00000000000E+00 0.  1.
          1   -1    0    0  501    0  0.00000000000E+00 -0.00000000000E+00 -0.78239804239E+02  0.78239804239E+02  0.00000000000E+00 0. -1.
         23    2    1    2    0    0  0.11522428068E+02  0.20330335785E+02  0.29613916959E+03  0.31752895061E+03  0.11216121348E+03 0.  0.
          5    1    3    3  502    0 -0.49368320977E+02  0.34430831451E+01  0.15672788458E+03  0.16440860118E+03  0.41800000000E+01 0. -1.
         -5    1    3    3    0  502  0.60890749045E+02  0.16887252639E+02  0.13941128502E+03  0.15312034943E+03  0.41800000000E+01 0.  1.
        -11    1    1    2    0    0 -0.21252505121E+02 -0.54735415610E+02 -0.24676971134E+02  0.63691346353E+02  0.00000000000E+00 0. -1.
         11    1    1    2    0    0  0.97300770524E+01  0.34405079826E+02 -0.96798624158E+01  0.37041647556E+02  0.00000000000E+00 0.  1.
</event>
<event>
 7    1  0.6473813E-006  0.9822992E+02  0.7561462E-02  0.1284063E+00
          2   -1    0    0  501    0  0.00000000000E+00  0.00000000000E+00  0.28254864857E+03  0.28254864857E+03  0.00000000000E+00 0. -1.
         -2   -1    0    0    0  501 -0.00000000000E+00 -0.00000000000E+00 -0.69516401386E+02  0.69516401386E+02  0.00000000000E+00 0.  1.
         23    2    1    2    0    0  0.44505348699E+01  0.24390559364E+01  0.57171146206E+01  0.12532904959E+03  0.12509567945E+03 0.  0.
          5    1    3    3  502    0  0.50285374576E+02  0.22921298678E+02  0.36435627588E+02  0.66325200241E+02  0.41800000000E+01 0.  1.
         -5    1    3    3    0  502 -0.45834839706E+02 -0.20482242741E+02 -0.30718512968E+02  0.59003849345E+02  0.41800000000E+01 0.  1.
        -11    1    1    2    0    0 -0.45986710401E+02 -0.13029720343E+02  0.12702520816E+03  0.13572013356E+03  0.00000000000E+00 0. -1.
         11    1    1    2    0    0  0.41536175531E+02  0.10590664407E+02  0.80289924403E+02  0.91015866809E+02  0.00000000000E+00 0.  1.
</event>
<event>
 7    1  0.6473813E-006  0.9541266E+02  0.7561462E-02  0.1290249E+00
         -1   -1    0    0    0  501 -0.00000000000E+00  0.00000000000E+00  0.18515988832E+03  0.18515988832E+03  0.00000000000E+00 0.  1.
          1   -1    0    0  501    0  0.00000000000E+00 -0.00000000000E+00 -0.10370949521E+03  0.10370949521E+03  0.00000000000E+00 0. -1.
         23    2    1    2    0    0  0.52244014867E+02 -0.50785009419E+02  0.90934669744E+02  0.17095264490E+03  0.12508852212E+03 0.  0.
          5    1    3    3  502    0  0.29795679295E+02 -0.26540843783E+02  0.12013663101E+03  0.12665891759E+03  0.41800000000E+01 0.  1.
         -5    1    3    3    0  502  0.22448335572E+02 -0.24244165636E+02 -0.29201961268E+02  0.44293727313E+02  0.41800000000E+01 0.  1.
        -11    1    1    2    0    0 -0.57948408336E+02 -0.78594974300E+01 -0.75434691036E+01  0.58963494255E+02  0.00000000000E+00 0.  1.
         11    1    1    2    0    0  0.57043934691E+01  0.58644506849E+02 -0.19408075376E+01  0.58953244375E+02  0.00000000000E+00 0. -1.
</event>
<event>
 7    1  0.6473813E-006  0.1952421E+03  0.7561462E-02  0.1153816E+00
         -1   -1    0    0    0  501 -0.00000000000E+00  0.00000000000E+00  0.15916249894E+04  0.15916249894E+04  0.00000000000E+00 0.  1.
          1   -1    0    0  501    0  0.00000000000E+00 -0.00000000000E+00 -0.18204559645E+03  0.18204559645E+03  0.00000000000E+00 0. -1.
         23    2    1    2    0    0  0.15738799912E+02 -0.16657045750E+03  0.15323534455E+04  0.15465278875E+04  0.12509195605E+03 0.  0.
          5    1    3    3  502    0  0.56411417350E+02 -0.14007054241E+03  0.13221371688E+04  0.13307389565E+04  0.41800000000E+01 0.  1.
         -5    1    3    3    0  502 -0.40672617438E+02 -0.26499915095E+02  0.21021627679E+03  0.21578893099E+03  0.41800000000E+01 0.  1.
        -11    1    1    2    0    0 -0.52557845074E+02  0.71424706156E+02 -0.64467732774E+02  0.10963532413E+03  0.00000000000E+00 0. -1.
         11    1    1    2    0    0  0.36819045162E+02  0.95145751348E+02 -0.58306319788E+02  0.11750737429E+03  0.00000000000E+00 0.  1.
</event>
<event>
 7    1  0.6473813E-006  0.1288261E+03  0.7561462E-02  0.1229208E+00
          1   -1    0    0  501    0  0.00000000000E+00  0.00000000000E+00  0.21324616572E+03  0.21324616572E+03  0.00000000000E+00 0. -1.
         -1   -1    0    0    0  501 -0.00000000000E+00 -0.00000000000E+00 -0.10418461613E+03  0.10418461613E+03  0.00000000000E+00 0.  1.
         23    2    1    2    0    0  0.38065245812E+02  0.95683598423E+02  0.43310465782E+02  0.16771234828E+03  0.12508925363E+03 0.  0.
          5    1    3    3  502    0  0.73651581781E+02  0.41008639190E+02 -0.77598796553E+01  0.84758197947E+02  0.41800000000E+01 0.  1.
         -5    1    3    3    0  502 -0.35586335969E+02  0.54674959233E+02  0.51070345437E+02  0.82954150335E+02  0.41800000000E+01 0.  1.
        -11    1    1    2    0    0 -0.37433761562E+02 -0.51370900336E+02 -0.76033218629E+01  0.64016141788E+02  0.00000000000E+00 0.  1.
         11    1    1    2    0    0 -0.63148425009E+00 -0.44312698086E+02  0.73354405674E+02  0.85702291777E+02  0.00000000000E+00 0. -1.
</event>
<event>
 7    1  0.6473813E-006  0.1918756E+03  0.7561462E-02  0.1156780E+00
         -1   -1    0    0    0  501 -0.00000000000E+00  0.00000000000E+00  0.18213126599E+03  0.18213126599E+03  0.00000000000E+00 0.  1.
          1   -1    0    0  501    0  0.00000000000E+00 -0.00000000000E+00 -0.28005777624E+03  0.28005777624E+03  0.00000000000E+00 0. -1.
         23    2    1    2    0    0  0.13062389251E+03  0.13361455018E+03  0.15797815662E+02  0.22541995830E+03  0.12509651195E+03 0.  0.
          5    1    3    3  502    0  0.65285117388E+02  0.55574084851E+02  0.69333718787E+02  0.11034157159E+03  0.41800000000E+01 0. -1.
         -5    1    3    3    0  502  0.65338775124E+02  0.78040465334E+02 -0.53535903125E+02  0.11507838671E+03  0.41800000000E+01 0. -1.
        -11    1    1    2    0    0 -0.12313161402E+03 -0.91852193943E+02 -0.11858365116E+03  0.19406262449E+03  0.00000000000E+00 0. -1.
         11    1    1    2    0    0 -0.74922784955E+01 -0.41762356242E+02  0.48593252528E+01  0.42706459439E+02  0.00000000000E+00 0.  1.
</event>
<event>
 7    1  0.6473813E-006  0.1925807E+03  0.7561462E-02  0.1156154E+00
         -2   -1    0    0    0  501 -0.00000000000E+00  0.00000000000E+00  0.66601254195E+02  0.66601254195E+02  0.00000000000E+00 0.  1.
          2   -1    0    0  501    0  0.00000000000E+00 -0.00000000000E+00 -0.89862258440E+03  0.89862258440E+03  0.00000000000E+00 0. -1.
         23    2    1    2    0    0 -0.12677288709E+03  0.10925860054E+03 -0.18667067648E+03  0.28018345447E+03  0.12509204615E+03 0.  0.
          5    1    3    3  502    0 -0.42511218635E+02  0.33223139422E+01 -0.12355452961E+03  0.13077245760E+03  0.41800000000E+01 0.  1.
         -5    1    3    3    0  502 -0.84261668457E+02  0.10593628660E+03 -0.63116146862E+02  0.14941099687E+03  0.41800000000E+01 0.  1.
        -11    1    1    2    0    0  0.24263938987E+02 -0.10119732173E+03 -0.17519416515E+03  0.20377102876E+03  0.00000000000E+00 0.  1.
         11    1    1    2    0    0  0.10250894810E+03 -0.80612788169E+01 -0.47015648858E+03  0.48126935536E+03  0.00000000000E+00 0. -1.
</event>
<event>
 7    1  0.6473813E-006  0.1086900E+03  0.7561462E-02  0.1263015E+00
          2   -1    0    0  501    0  0.00000000000E+00  0.00000000000E+00  0.28861492619E+02  0.28861492619E+02  0.00000000000E+00 0. -1.
         -2   -1    0    0    0  501 -0.00000000000E+00 -0.00000000000E+00 -0.51526857110E+03  0.51526857110E+03  0.00000000000E+00 0.  1.
         23    2    1    2    0    0  0.31321500984E+01 -0.56101863997E+02 -0.35777733810E+03  0.38315665329E+03  0.12508863975E+03 0.  0.
          5    1    3    3  502    0  0.63290977194E+02 -0.26815687336E+02 -0.20680349432E+03  0.21796785668E+03  0.41800000000E+01 0. -1.
         -5    1    3    3    0  502 -0.60158827095E+02 -0.29286176661E+02 -0.15097384378E+03  0.16518879661E+03  0.41800000000E+01 0. -1.
        -11    1    1    2    0    0 -0.29092380983E+02  0.14665838379E+02 -0.12369312054E+02  0.34849007551E+02  0.00000000000E+00 0. -1.
         11    1    1    2    0    0  0.25960230884E+02  0.41436025618E+02 -0.11626042833E+03  0.12612440288E+03  0.00000000000E+00 0.  1.
</event>
<event>
 7    1  0.6473813E-006  0.1163609E+03  0.7561462E-02  0.1249224E+00
         -2   -1    0    0    0  501 -0.00000000000E+00  0.00000000000E+00  0.99862981213E+03  0.99862981213E+03  0.00000000000E+00 0.  1.
          2   -1    0    0  501    0  0.00000000000E+00 -0.00000000000E+00 -0.50524556634E+02  0.50524556634E+02  0.00000000000E+00 0. -1.
         23    2    1    2    0    0  0.96697221588E+02 -0.38074369516E+02  0.88935619551E+03  0.90410266131E+03  0.12508864624E+03 0.  0.
          5    1    3    3  502    0  0.99598486224E+02 -0.22991214214E+02  0.35338696343E+03  0.36789709527E+03  0.41800000000E+01 0. -1.
         -5    1    3    3    0  502 -0.29012646355E+01 -0.15083155302E+02  0.53596923208E+03  0.53620556604E+03  0.41800000000E+01 0. -1.
        -11    1    1    2    0    0 -0.19009570138E+02  0.31166462070E+02 -0.13317895811E+02  0.38859728044E+02  0.00000000000E+00 0. -1.
         11    1    1    2    0    0 -0.77687651450E+02  0.69079074457E+01  0.72066955793E+02  0.10619197941E+03  0.00000000000E+00 0.  1.
</event>
<event>
 7    1  0.6473813E-006  0.1540023E+03  0.7561462E-02  0.1195640E+00
         -2   -1    0    0    0  501 -0.00000000000E+00  0.00000000000E+00  0.28578819183E+02  0.28578819183E+02  0.00000000000E+00 0.  1.
          2   -1    0    0  501    0  0.00000000000E+00 -0.00000000000E+00 -0.11181615147E+04  0.11181615147E+04  0.00000000000E+00 0. -1.
         23    2    1    2    0    0  0.12200264645E+03  0.51799837184E+02 -0.42073512992E+03  0.45851138269E+03  0.12508704822E+03 0.  0.
          5    1    3    3  502    0  0.11397804340E+03  0.32149634517E+01 -0.37199314152E+03  0.38909857376E+03  0.41800000000E+01 0.  1.
         -5    1    3    3    0  502  0.80246030465E+01  0.48584873733E+02 -0.48741988407E+02  0.69412808930E+02  0.41800000000E+01 0.  1.
        -11    1    1    2    0    0 -0.27535291111E+02  0.12469897379E+02 -0.46370184611E+02  0.55352367773E+02  0.00000000000E+00 0.  1.
         11    1    1    2    0    0 -0.94467355338E+02 -0.64269734563E+02 -0.62247738094E+03  0.63287658338E+03  0.00000000000E+00 0. -1.
</event>
<event>
 7    1  0.6473813E-006  0.1307294E+03  0.7561462E-02  0.1226377E+00
         -2   -1    0    0    0  501 -0.00000000000E+00  0.00000000000E+00  0.67490011820E+02  0.67490011820E+02  0.00000000000E+00 0. -1.
          2   -1    0    0  501    0  0.00000000000E+00 -0.00000000000E+00 -0.37143787454E+03  0.37143787454E+03  0.00000000000E+00 0.  1.
         23    2    1    2    0    0  0.86777072528E+02 -0.13790564569E+02 -0.84672613066E+02  0.17475352028E+03  0.12509556931E+03 0.  0.
          5    1    3    3  502    0  0.80193941450E+02 -0.54112508148E+02 -0.91377062170E+02  0.13314079643E+03  0.41800000000E+01 0.  1.
         -5    1    3    3    0  502  0.65831310777E+01  0.40321943579E+02  0.67044491045E+01  0.41612723854E+02  0.41800000000E+01 0.  1.
        -11    1    1    2    0    0 -0.34289788521E+02  0.49396483212E+02 -0.17951258760E+03  0.18931606180E+03  0.00000000000E+00 0.  1.
         11    1    1    2    0    0 -0.52487284007E+02 -0.35605918643E+02 -0.39762662058E+02  0.74858304274E+02  0.00000000000E+00 0. -1.
</event>
<event>
 7    1  0.6473813E-006  0.1010399E+03  0.7561462E-02  0.1278124E+00
          2   -1    0    0  501    0  0.00000000000E+00  0.00000000000E+00  0.47431172659E+03  0.47431172659E+03  0.00000000000E+00 0.  1.
         -2   -1    0    0    0  501 -0.00000000000E+00 -0.00000000000E+00 -0.43450596849E+02  0.43450596849E+02  0.00000000000E+00 0. -1.
         23    2    1    2    0    0 -0.56286466581E+02  0.59055147470E+02  0.14929725255E+03  0.21117006471E+03  0.12508976716E+03 0.  0.
          5    1    3    3  502    0 -0.41200888975E+02  0.75567084558E+02  0.32370422457E+02  0.92050063394E+02  0.41800000000E+01 0.  1.
         -5    1    3    3    0  502 -0.15085577606E+02 -0.16511937088E+02  0.11692683010E+03  0.11912000132E+03  0.41800000000E+01 0.  1.
        -11    1    1    2    0    0  0.43238457602E+02 -0.12795940709E+02  0.39948822136E+02  0.60242914143E+02  0.00000000000E+00 0. -1.
         11    1    1    2    0    0  0.13048008979E+02 -0.46259206761E+02  0.24161505505E+03  0.24634934458E+03  0.00000000000E+00 0.  1.
</event>
<event>
 7    1  0.6473813E-006  0.1166167E+03  0.7561462E-02  0.1248785E+00
         -1   -1    0    0    0  501 -0.00000000000E+00  0.00000000000E+00  0.94735007374E+02  0.94735007374E+02  0.00000000000E+00 0.  1.
          1   -1    0    0  501    0  0.00000000000E+00 -0.00000000000E+00 -0.18073893715E+03  0.18073893715E+03  0.00000000000E+00 0. -1.
         23    2    1    2    0    0 -0.70767094721E+02 -0.12408924304E+02 -0.59158112837E+02  0.15591384914E+03  0.12508989944E+03 0.  0.
          5    1    3    3  502    0 -0.76094341372E+02 -0.57688123172E+02 -0.25011130700E+02  0.98799278352E+02  0.41800000000E+01 0.  1.
         -5    1    3    3    0  502  0.53272466512E+01  0.45279198867E+02 -0.34146982137E+02  0.57114570786E+02  0.41800000000E+01 0.  1.
        -11    1    1    2    0    0  0.66456010575E+02 -0.11613817180E+02 -0.51496115771E+02  0.84871267402E+02  0.00000000000E+00 0. -1.
         11    1    1    2    0    0  0.43110841465E+01  0.24022741484E+02  0.24650298827E+02  0.34688827988E+02  0.00000000000E+00 0.  1.
</event>
<event>
 7    1  0.6473813E-006  0.1686183E+03  0.7561462E-02  0.1179296E+00
         -1   -1    0    0    0  501 -0.00000000000E+00  0.00000000000E+00  0.41960065934E+03  0.41960065934E+03  0.00000000000E+00 0.  1.
          1   -1    0    0  501    0  0.00000000000E+00 -0.00000000000E+00 -0.77042155154E+02  0.77042155154E+02  0.00000000000E+00 0. -1.
         23    2    1    2    0    0 -0.13609696473E+03  0.54256886676E+02  0.15588506346E+03  0.24254426747E+03  0.11428637326E+03 0.  0.
          5    1    3    3  502    0 -0.25962873672E+02  0.53098577237E+02  0.10620314139E+02  0.60197950017E+02  0.41800000000E+01 0. -1.
         -5    1    3    3    0  502 -0.11013409105E+03  0.11583094388E+01  0.14526474932E+03  0.18234631745E+03  0.41800000000E+01 0.  1.
        -11    1    1    2    0    0  0.12535380541E+02 -0.41725681735E+02  0.76703710143E+02  0.88213533153E+02  0.00000000000E+00 0.  1.
         11    1    1    2    0    0  0.12356158418E+03 -0.12531204940E+02  0.10996973059E+03  0.16588501388E+03  0.00000000000E+00 0. -1.
</event>
<event>
 7    1  0.6473813E-006  0.8264556E+02  0.7561462E-02  0.1321707E+00
          1   -1    0    0  501    0  0.00000000000E+00  0.00000000000E+00  0.95327943719E+02  0.95327943719E+02  0.00000000000E+00 0. -1.
         -1   -1    0    0    0  501 -0.00000000000E+00 -0.00000000000E+00 -0.94064180651E+02  0.94064180651E+02  0.00000000000E+00 0.  1.
         23    2    1    2    0    0  0.12637419342E+02 -0.10658176408E+02 -0.10651076871E+01  0.12617975064E+03  0.12508754504E+03 0.  0.
          5    1    3    3  502    0 -0.46781375667E+02  0.19800890980E+02  0.21857872496E+02  0.55459998044E+02  0.41800000000E+01 0. -1.
         -5    1    3    3    0  502  0.59418795010E+02 -0.30459067388E+02 -0.22922980183E+02  0.70719752595E+02  0.41800000000E+01 0. -1.
        -11    1    1    2    0    0  0.18829647974E+01  0.26131400237E+02  0.22050347909E+02  0.34243444302E+02  0.00000000000E+00 0. -1.
         11    1    1    2    0    0 -0.14520384140E+02 -0.15473223828E+02 -0.19721477154E+02  0.28968929431E+02  0.00000000000E+00 0.  1.
</event>
<event>
 7    1  0.6473813E-006  0.9578310E+02  0.7561462E-02  0.1289422E+00
         -2   -1    0    0    0  501 -0.00000000000E+00  0.00000000000E+00  0.29829568749E+02  0.29829568749E+02  0.00000000000E+00 0.  1.
          2   -1    0    0  501    0  0.00000000000E+00 -0.00000000000E+00 -0.52979455730E+03  0.52979455730E+03  0.00000000000E+00 0. -1.
         23    2    1    2    0    0  0.37841703914E+02 -0.11470980202E+02 -0.16673131497E+03  0.21215563102E+03  0.12508837851E+03 0.  0.
          5    1    3    3  502    0  0.12607130218E+02  0.39260317909E+02 -0.62508119101E+01  0.41914882133E+02  0.41800000000E+01 0.  1.
         -5    1    3    3    0  502  0.25234573696E+02 -0.50731298111E+02 -0.16048050306E+03  0.17024074889E+03  0.41800000000E+01 0.  1.
        -11    1    1    2    0    0  0.63956231166E+01 -0.31195847088E+02 -0.66307127854E+02  0.73557596989E+02  0.00000000000E+00 0.  1.
         11    1    1    2    0    0 -0.44237327031E+02  0.42666827290E+02 -0.26692654572E+03  0.27391089804E+03  0.00000000000E+00 0. -1.
</event>
<event>
 7    1  0.6473813E-006  0.1993680E+03  0.7561462E-02  0.1150273E+00
         -2   -1    0    0    0  501 -0.00000000000E+00  0.00000000000E+00  0.80323109720E+02  0.80323109720E+02  0.00000000000E+00 0.  1.
          2   -1    0    0  501    0  0.00000000000E+00 -0.00000000000E+00 -0.54827823834E+03  0.54827823834E+03  0.00000000000E+00 0. -1.
         23    2    1    2    0    0 -0.28357514400E+02  0.17480290653E+03 -0.20168226957E+03  0.29611515492E+03  0.12509293487E+03 0.  0.
          5    1    3    3  502    0  0.38972546273E+02  0.12690262525E+02 -0.40164334707E+02  0.57537364455E+02  0.41800000000E+01 0. -1.
         -5    1    3    3    0  502 -0.67330060673E+02  0.16211264401E+03 -0.16151793487E+03  0.23857779046E+03  0.41800000000E+01 0. -1.
        -11    1    1    2    0    0  0.26090581582E+02 -0.44201616445E+02 -0.14662550116E+03  0.15534973104E+03  0.00000000000E+00 0. -1.
         11    1    1    2    0    0  0.22669328178E+01 -0.13060129009E+03 -0.11964735788E+03  0.17713646210E+03  0.00000000000E+00 0.  1.
</event>
<event>
 7    1  0.6473813E-006  0.9278601E+02  0.7561462E-02  0.1296242E+00
          1   -1    0    0  501    0  0.00000000000E+00  0.00000000000E+00  0.69932348467E+02  0.69932348467E+02  0.00000000000E+00 0. -1.
         -1   -1    0    0    0  501 -0.00000000000E+00 -0.00000000000E+00 -0.18360769461E+03  0.18360769461E+03  0.00000000000E+00 0.  1.
         23    2    1    2    0    0  0.15516480973E+02  0.11846840937E+02 -0.97544158362E+02  0.15982606733E+03  0.12509356556E+03 0.  0.
          5    1    3    3  502    0 -0.36547238882E+02 -0.35611612218E+02 -0.63213287181E+02  0.81346663551E+02  0.41800000000E+01 0. -1.
         -5    1    3    3    0  502  0.52063719855E+02  0.47458453155E+02 -0.34330871181E+02  0.78479403776E+02  0.41800000000E+01 0. -1.
        -11    1    1    2    0    0  0.12130877162E+02  0.18895956921E+02 -0.40073656650E+02  0.45935969849E+02  0.00000000000E+00 0.  1.
         11    1    1    2    0    0 -0.27647358135E+02 -0.30742797858E+02  0.23942468871E+02  0.47778005898E+02  0.00000000000E+00 0. -1.
</event>
<event>
 7    1  0.6473813E-006  0.1100648E+03  0.7561462E-02  0.1260450E+00
          1   -1    0    0  501    0  0.00000000000E+00  0.00000000000E+00  0.58001710057E+03  0.58001710057E+03  0.00000000000E+00 0. -1.
         -1   -1    0    0    0  501 -0.00000000000E+00 -0.00000000000E+00 -0.22117779397E+02  0.22117779397E+02  0.00000000000E+00 0.  1.
         23    2    1    2    0    0  0.16743371182E+02  0.98947074687E+01  0.25831893744E+03  0.28766987737E+03  0.12508812569E+03 0.  0.
          5    1    3    3  502    0 -0.14933125886E+02  0.62331085166E+02  0.14966083243E+03  0.16286190344E+03  0.41800000000E+01 0. -1.
         -5    1    3    3    0  502  0.31676497068E+02 -0.52436377697E+02  0.10865810501E+03  0.12480797393E+03  0.41800000000E+01 0. -1.
        -11    1    1    2    0    0 -0.15637964732E+02 -0.51015707853E+02  0.19239122607E+03  0.19965353054E+03  0.00000000000E+00 0. -1.
         11    1    1    2    0    0 -0.11054064503E+01  0.41121000385E+02  0.10718915767E+03  0.11481147207E+03  0.00000000000E+00 0.  1.
</event>
<event>
 7    1  0.6473813E-006  0.1166292E+03  0.7561462E-02  0.1248764E+00
          1   -1    0    0  501    0  0.00000000000E+00  0.00000000000E+00  0.66239786641E+03  0.66239786641E+03  0.00000000000E+00 0. -1.
         -1   -1    0    0    0  501 -0.00000000000E+00 -0.00000000000E+00 -0.25852488932E+02  0.25852488932E+02  0.00000000000E+00 0.  1.
         23    2    1    2    0    0  0.29088404597E+02 -0.64546708755E+02  0.33012980771E+03  0.36006538778E+03  0.12509588582E+03 0.  0.
          5    1    3    3  502    0  0.63005592939E+02 -0.49079010643E+02  0.10582485785E+03  0.13264549358E+03  0.41800000000E+01 0.  1.
         -5    1    3    3    0  502 -0.33917188342E+02 -0.15467698112E+02  0.22430494986E+03  0.22741989420E+03  0.41800000000E+01 0.  1.
        -11    1    1    2    0    0  0.28093331319E+02  0.49054266143E+02  0.12140712249E+03  0.13392253612E+03  0.00000000000E+00 0.  1.
         11    1    1    2    0    0 -0.57181735916E+02  0.15492442612E+02  0.18500844728E+03  0.19426243143E+03  0.00000000000E+00 0. -1.
</event>
<event>
 7    1  0.6473813E-006  0.1505854E+03  0.7561462E-02  0.1199755E+00
          1   -1    0    0  501    0  0.00000000000E+00  0.00000000000E+00  0.29851498303E+03  0.29851498303E+03  0.00000000000E+00 0. -1.
         -1   -1    0    0    0  501 -0.00000000000E+00 -0.00000000000E+00 -0.10086240391E+03  0.10086240391E+03  0.00000000000E+00 0.  1.
         23    2    1    2    0    0 -0.12497834540E+03 -0.50392229160E+02  0.11072090331E+03  0.21463063043E+03  0.12509286755E+03 0.  0.
          5    1    3    3  502    0 -0.82555633694E+02 -0.48314711576E+02 -0.23903956461E+00  0.95745880064E+02  0.41800000000E+01 0.  1.
         -5    1    3    3    0  502 -0.42422711706E+02 -0.20775175830E+01  0.11095994287E+03  0.11888475037E+03  0.41800000000E+01 0.  1.
        -11    1    1    2    0    0  0.18180951814E+02  0.52882072452E+02  0.24870452179E+02  0.61201307071E+02  0.00000000000E+00 0.  1.
         11    1    1    2    0    0  0.10679739359E+03 -0.24898432921E+01  0.62061223633E+02  0.12354544943E+03  0.00000000000E+00 0. -1.
</event>
<event>
 7    1  0.6473813E-006  0.9393117E+02  0.7561462E-02  0.1293602E+00
         -2   -1    0    0    0  501 -0.00000000000E+00  0.00000000000E+00  0.62964847340E+02  0.62964847340E+02  0.00000000000E+00 0.  1.
          2   -1    0    0  501    0  0.00000000000E+00 -0.00000000000E+00 -0.25289851196E+03  0.25289851196E+03  0.00000000000E+00 0. -1.
         23    2    1    2    0    0 -0.42856606159E+01 -0.61973733580E+02 -0.12190361069E+03  0.18538128777E+03  0.12508645416E+03 0.  0.
          5    1    3    3  502    0  0.16906196969E+02 -0.94825885910E+01 -0.12686297598E+03  0.12840337245E+03  0.41800000000E+01 0.  1.
         -5    1    3    3    0  502 -0.21191857584E+02 -0.52491144989E+02  0.49593652868E+01  0.56977915320E+02  0.41800000000E+01 0.  1.
        -11    1    1    2    0    0  0.27928559856E+02 -0.14328626252E+02 -0.17086207036E+02  0.35738668929E+02  0.00000000000E+00 0.  1.
         11    1    1    2    0    0 -0.23642899240E+02  0.76302359832E+02 -0.50943846895E+02  0.94743402604E+02  0.00000000000E+00 0. -1.
</event>
<event>
 7    1  0.6473813E-006  0.1595025E+03  0.7561462E-02  0.1189260E+00
         -2   -1    0    0    0  501 -0.00000000000E+00  0.00000000000E+00  0.28828840894E+02  0.28828840894E+02  0.00000000000E+00 0.  1.
          2   -1    0    0  501    0  0.00000000000E+00 -0.00000000000E+00 -0.11537425117E+04  0.11537425117E+04  0.00000000000E+00 0. -1.
         23    2    1    2    0    0  0.59410375240E+02  0.13363967387E+03 -0.56996697320E+03  0.60157980313E+03  0.12508698524E+03 0.  0.
          5    1    3    3  502    0  0.45636714473E+02  0.11339034809E+03 -0.22816452842E+03  0.25887565582E+03  0.41800000000E+01 0.  1.
         -5    1    3    3    0  502  0.13773660767E+02  0.20249325782E+02 -0.34180244478E+03  0.34270414731E+03  0.41800000000E+01 0.  1.
        -11    1    1    2    0    0 -0.29516423537E+02 -0.13846777002E+03 -0.44781045415E+03  0.46965811548E+03  0.00000000000E+00 0.  1.
         11    1    1    2    0    0 -0.29893951703E+02  0.48280961448E+01 -0.10713624349E+03  0.11133343402E+03  0.00000000000E+00 0. -1.
</event>
<event>
 7    1  0.6473813E-006  0.1169445E+03  0.7561462E-02  0.1248225E+00
          4   -1    0    0  501    0  0.00000000000E+00  0.00000000000E+00  0.21071549067E+03  0.21071549067E+03  0.00000000000E+00 0. -1.
         -4   -1    0    0    0  501 -0.00000000000E+00 -0.00000000000E+00 -0.85983397340E+02  0.85983397340E+02  0.00000000000E+00 0.  1.
         23    2    1    2    0    0  0.35671235247E+02 -0.72207283532E+02  0.66135504575E+02  0.16281408803E+03  0.12509273950E+03 0.  0.
          5    1    3    3  502    0 -0.23465446572E+02 -0.44531108314E+02 -0.20277371944E+02  0.54426932703E+02  0.41800000000E+01 0.  1.
         -5    1    3    3    0  502  0.59136681819E+02 -0.27676175218E+02  0.86412876519E+02  0.10838715533E+03  0.41800000000E+01 0.  1.
        -11    1    1    2    0    0 -0.34579055730E+01  0.83685518055E+02  0.28928996893E+02  0.88612131812E+02  0.00000000000E+00 0.  1.
         11    1    1    2    0    0 -0.32213329674E+02 -0.11478234523E+02  0.29667591864E+02  0.45272668172E+02  0.00000000000E+00 0. -1.
</event>
<event>
 7    1  0.6473813E-006  0.1837671E+03  0.7561462E-02  0.1164206E+00
          2   -1    0    0  501    0  0.00000000000E+00  0.00000000000E+00  0.36205902030E+02  0.36205902030E+02  0.00000000000E+00 0. -1.
         -2   -1    0    0    0  501 -0.00000000000E+00 -0.00000000000E+00 -0.95483757927E+03  0.95483757927E+03  0.00000000000E+00 0.  1.
         23    2    1    2    0    0  0.53180472088E+02 -0.13848662053E+03 -0.42364369907E+03  0.46597129174E+03  0.12509418167E+03 0.  0.
          5    1    3    3  502    0  0.86894056752E+02 -0.53033998294E+02 -0.21191878691E+03  0.23513873930E+03  0.41800000000E+01 0. -1.
         -5    1    3    3    0  502 -0.33713584664E+02 -0.85452622235E+02 -0.21172491216E+03  0.23083255244E+03  0.41800000000E+01 0. -1.
        -11    1    1    2    0    0  0.22670087959E+02  0.61811020406E+02 -0.22178636231E+03  0.23135195188E+03  0.00000000000E+00 0.  1.
         11    1    1    2    0    0 -0.75850560048E+02  0.76675600122E+02 -0.27320161586E+03  0.29372023768E+03  0.00000000000E+00 0. -1.
</event>
<event>
 7    1  0.6473813E-006  0.9755790E+02  0.7561462E-02  0.1285517E+00
          2   -1    0    0  501    0  0.00000000000E+00  0.00000000000E+00  0.12691552058E+03  0.12691552058E+03  0.00000000000E+00 0. -1.
         -2   -1    0    0    0  501 -0.00000000000E+00 -0.00000000000E+00 -0.10278365905E+03  0.10278365905E+03  0.00000000000E+00 0.  1.
         23    2    1    2    0    0  0.64336261632E+00 -0.47458478313E+01 -0.28978457828E+02  0.12848930927E+03  0.12508722793E+03 0.  0.
          5    1    3    3  502    0 -0.51972915874E+02  0.31195196834E+02 -0.80543455908E+01  0.61291672949E+02  0.41800000000E+01 0. -1.
         -5    1    3    3    0  502  0.52616278490E+02 -0.35941044666E+02 -0.20924112237E+02  0.67197636318E+02  0.41800000000E+01 0. -1.
        -11    1    1    2    0    0  0.33583613973E+02 -0.70132784770E+01  0.55162465897E+02  0.64961087170E+02  0.00000000000E+00 0. -1.
         11    1    1    2    0    0 -0.34226976589E+02  0.11759126308E+02 -0.20521465378E+01  0.36248783198E+02  0.00000000000E+00 0.  1.
</event>
<event>
 6    1  0.6473813E-006  0.1812528E+03  0.7561462E-02  0.1166596E+00
         -1   -1    0    0    0  501 -0.00000000000E+00  0.00000000000E+00  0.83575082740E+02  0.83575082740E+02  0.00000000000E+00 0.  1.
          1   -1    0    0  501    0  0.00000000000E+00 -0.00000000000E+00 -0.56020454938E+03  0.56020454938E+03  0.00000000000E+00 0. -1.
          5    1    1    2  502    0  0.14459504614E+03 -0.46295630966E+02 -0.19978124574E+03  0.25096021869E+03  0.41800000000E+01 0. -1.
         -5    1    1    2    0  502 -0.11452077322E+03  0.45159250345E+02 -0.24328761261E+02  0.12555367942E+03  0.41800000000E+01 0.  1.
        -11    1    1    2    0    0  0.26657934585E+02  0.12733604588E+02 -0.79334916254E+02  0.84657067627E+02  0.00000000000E+00 0.  1.
         11    1    1    2    0    0 -0.56732207508E+02 -0.11597223967E+02 -0.17318454338E+03  0.18260866638E+03  0.00000000000E+00 0. -1.
</event>
<event>
 7    1  0.6473813E-006  0.1074378E+03  0.7561462E-02  0.1265390E+00
         -2   -1    0    0    0  501 -0.00000000000E+00  0.00000000000E+00  0.18821534322E+02  0.18821534322E+02  0.00000000000E+00 0.  1.
          2   -1    0    0  501    0  0.00000000000E+00 -0.00000000000E+00 -0.65749245000E+03  0.65749245000E+03  0.00000000000E+00 0. -1.
         23    2    1    2    0    0  0.17094288912E+02  0.13441812718E+02 -0.31464101450E+03  0.33929259632E+03  0.12509037081E+03 0.  0.
          5    1    3    3  502    0 -0.21564028102E+02  0.60138126213E+02 -0.19255656735E+03  0.20292142707E+03  0.41800000000E+01 0. -1.
         -5    1    3    3    0  502  0.38658317014E+02 -0.46696313495E+02 -0.12208444714E+03  0.13637116925E+03  0.41800000000E+01 0. -1.
        -11    1    1    2    0    0 -0.52474454435E+02 -0.69413548965E+00 -0.22630836788E+03  0.23231342528E+03  0.00000000000E+00 0.  1.
         11    1    1    2    0    0  0.35380165523E+02 -0.12747677228E+02 -0.97721533301E+02  0.10470796272E+03  0.00000000000E+00 0. -1.
</event>
<event>
 7    1  0.6473813E-006  0.1053609E+03  0.7561462E-02  0.1269410E+00
         -2   -1    0    0    0  501 -0.00000000000E+00  0.00000000000E+00  0.53805098416E+02  0.53805098416E+02  0.00000000000E+00 0.  1.
          2   -1    0    0  501    0  0.00000000000E+00 -0.00000000000E+00 -0.35968981740E+03  0.35968981740E+03  0.00000000000E+00 0. -1.
         23    2    1    2    0    0 -0.31516903928E+02  0.71881469372E+02 -0.11339820052E+03  0.18619082033E+03  0.12509040260E+03 0.  0.
          5    1    3    3  502    0  0.36467039185E+02  0.42387419490E+02 -0.70654018131E+01  0.56514870439E+02  0.41800000000E+01 0. -1.
         -5    1    3    3    0  502 -0.67983943113E+02  0.29494049882E+02 -0.10633279871E+03  0.12967594989E+03  0.41800000000E+01 0. -1.
        -11    1    1    2    0    0  0.59481761009E+01 -0.35284393836E+02 -0.17617700388E+03  0.17977404135E+03  0.00000000000E+00 0. -1.
         11    1    1    2    0    0  0.25568727827E+02 -0.36597075535E+02 -0.16309514589E+02  0.47530054140E+02  0.00000000000E+00 0.  1.
</event>
<event>
 7    1  0.6473813E-006  0.1585164E+03  0.7561462E-02  0.1190382E+00
         -3   -1    0    0    0  501 -0.00000000000E+00  0.00000000000E+00  0.69023259449E+03  0.69023259449E+03  0.00000000000E+00 0.  1.
          3   -1    0    0  501    0  0.00000000000E+00 -0.00000000000E+00 -0.38875854457E+02  0.38875854457E+02  0.00000000000E+00 0. -1.
         23    2    1    2    0    0  0.53863855385E+02 -0.10524073688E+03  0.41900549091E+03  0.45297646256E+03  0.12508056044E+03 0.  0.
          5    1    3    3  502    0 -0.17733360495E+02 -0.96158522491E+02  0.20667000734E+03  0.22867203120E+03  0.41800000000E+01 0. -1.
         -5    1    3    3    0  502  0.71597215880E+02 -0.90822143879E+01  0.21233548357E+03  0.22430443135E+03  0.41800000000E+01 0. -1.
        -11    1    1    2    0    0 -0.44170374697E+02  0.31076550183E+01  0.93862889948E+02  0.10378305078E+03  0.00000000000E+00 0.  1.
         11    1    1    2    0    0 -0.96934806874E+01  0.10213308186E+03  0.13848835917E+03  0.17234893560E+03  0.00000000000E+00 0. -1.
</event>
<event>
 7    1  0.6473813E-006  0.1302049E+03  0.7561462E-02  0.1227152E+00
          2   -1    0    0  501    0  0.00000000000E+00  0.00000000000E+00  0.39865167475E+02  0.39865167475E+02  0.00000000000E+00 0. -1.
         -2   -1    0    0    0  501 -0.00000000000E+00 -0.00000000000E+00 -0.57240348976E+03  0.57240348976E+03  0.00000000000E+00 0.  1.
         23    2    1    2    0    0  0.98431577855E+02  0.38714424465E+01 -0.37336691855E+03  0.40589669381E+03  0.12508199949E+03 0.  0.
          5    1    3    3  502    0  0.20704248530E+02 -0.52079071855E+02 -0.20052113712E+03  0.20824767577E+03  0.41800000000E+01 0. -1.
         -5    1    3    3    0  502  0.77727329326E+02  0.55950514301E+02 -0.17284578143E+03  0.19764901804E+03  0.41800000000E+01 0. -1.
        -11    1    1    2    0    0 -0.40218567725E+02  0.20616523855E+02 -0.12839713173E+03  0.13611905701E+03  0.00000000000E+00 0.  1.
         11    1    1    2    0    0 -0.58213010131E+02 -0.24487966301E+02 -0.30774272015E+02  0.70252906417E+02  0.00000000000E+00 0. -1.
</event>
<event>
 7    1  0.6473813E-006  0.1737222E+03  0.7561462E-02  0.1174021E+00
         -1   -1    0    0    0  501 -0.00000000000E+00  0.00000000000E+00  0.19670857352E+03  0.19670857352E+03  0.00000000000E+00 0.  1.
          1   -1    0    0  501    0  0.00000000000E+00 -0.00000000000E+00 -0.24050501700E+03  0.24050501700E+03  0.00000000000E+00 0. -1.
         23    2    1    2    0    0 -0.65253504525E+02 -0.15020479805E+03  0.70083071411E+02  0.21766427401E+03  0.12508636245E+03 0.  0.
          5    1    3    3  502    0 -0.76838970156E+02 -0.10293428425E+03  0.97800690916E+02  0.16149966487E+03  0.41800000000E+01 0. -1.
         -5    1    3    3    0  502  0.11585465631E+02 -0.47270513807E+02 -0.27717619506E+02  0.56164609146E+02  0.41800000000E+01 0. -1.
        -11    1    1    2    0    0  0.38906318203E+02  0.36459682772E+02 -0.83216792538E+02  0.98833418560E+02  0.00000000000E+00 0. -1.
         11    1    1    2    0    0  0.26347186321E+02  0.11374511528E+03 -0.30662722351E+02  0.12071589796E+03  0.00000000000E+00 0.  1.
</event>
<event>
 7    1  0.6473813E-006  0.2571060E+03  0.7561462E-02  0.1108895E+00
         -2   -1    0    0    0  501 -0.00000000000E+00  0.00000000000E+00  0.12463412619E+03  0.12463412619E+03  0.00000000000E+00 0.  1.
          2   -1    0    0  501    0  0.00000000000E+00 -0.00000000000E+00 -0.75436287639E+03  0.75436287639E+03  0.00000000000E+00 0. -1.
         23    2    1    2    0    0 -0.19004461475E+03  0.15395649844E+03 -0.10353605027E+03  0.29357683598E+03  0.12509230956E+03 0.  0.
          5    1    3    3  502    0 -0.48156836576E+02 -0.17493113407E+01  0.16473137923E+02  0.51097726683E+02  0.41800000000E+01 0. -1.
         -5    1    3    3    0  502 -0.14188777818E+03  0.15570580978E+03 -0.12000918820E+03  0.24247910930E+03  0.41800000000E+01 0. -1.
        -11    1    1    2    0    0  0.14425588680E+03 -0.15164217433E+03 -0.40583168059E+03  0.45662288914E+03  0.00000000000E+00 0.  1.
         11    1    1    2    0    0  0.45788727952E+02 -0.23143241115E+01 -0.12036101933E+03  0.12879727745E+03  0.00000000000E+00 0. -1.
</event>
<event>
 6    1  0.6473813E-006  0.1782027E+03  0.7561462E-02  0.1169554E+00
          4   -1    0    0  501    0  0.00000000000E+00  0.00000000000E+00  0.21077117765E+03  0.21077117765E+03  0.00000000000E+00 0. -1.
         -4   -1    0    0    0  501 -0.00000000000E+00 -0.00000000000E+00 -0.18371975595E+03  0.18371975595E+03  0.00000000000E+00 0.  1.
          5    1    1    2  502    0  0.11365076117E+03  0.43272266810E+02 -0.66586391322E+02  0.13870906423E+03  0.41800000000E+01 0. -1.
         -5    1    1    2    0  502 -0.13215763605E+03 -0.53036497223E+02  0.76859304307E+02  0.16187444474E+03  0.41800000000E+01 0.  1.
        -11    1    1    2    0    0  0.49474552811E+02  0.27468510493E+02  0.77990731889E+01  0.57123340126E+02  0.00000000000E+00 0. -1.
         11    1    1    2    0    0 -0.30967677939E+02 -0.17704280080E+02  0.89794355198E+01  0.36784084498E+02  0.00000000000E+00 0.  1.
</event>
<event>
 7    1  0.6473813E-006  0.9461715E+02  0.7561462E-02  0.1292041E+00
          2   -1    0    0  501    0  0.00000000000E+00  0.00000000000E+00  0.11360930791E+03  0.11360930791E+03  0.00000000000E+00 0. -1.
         -2   -1    0    0    0  501 -0.00000000000E+00 -0.00000000000E+00 -0.13238312648E+03  0.13238312648E+03  0.00000000000E+00 0.  1.
         23    2    1    2    0    0  0.54603824774E+02 -0.22437126338E+02 -0.17518420970E+02  0.13943077184E+03  0.12509613401E+03 0.  0.
          5    1    3    3  502    0 -0.53595730382E+01 -0.23958152215E+02  0.45786842531E+02  0.52121256985E+02  0.41800000000E+01 0. -1.
         -5    1    3    3    0  502  0.59963397812E+02  0.15210258771E+01 -0.63305263502E+02  0.87309514853E+02  0.41800000000E+01 0. -1.
        -11    1    1    2    0    0 -0.73005157667E+02 -0.26939078114E+01 -0.11104324249E+02  0.73893952407E+02  0.00000000000E+00 0.  1.
         11    1    1    2    0    0  0.18401332892E+02  0.25131034150E+02  0.98489266547E+01  0.32667710142E+02  0.00000000000E+00 0. -1.
</event>
<event>
 7    1  0.6473813E-006  0.1085739E+03  0.7561462E-02  0.1263234E+00
         -1   -1    0    0    0  501 -0.00000000000E+00  0.00000000000E+00  0.47570450870E+02  0.47570450870E+02  0.00000000000E+00 0.  1.
          1   -1    0    0  501    0  0.00000000000E+00 -0.00000000000E+00 -0.39554380333E+03  0.39554380333E+03  0.00000000000E+00 0. -1.
         23    2    1    2    0    0 -0.17205726703E+02  0.24101464893E+01 -0.58913453296E+02  0.13935748790E+03  0.12509144103E+03 0.  0.
          5    1    3    3  502    0  0.41319900106E+01  0.61037510411E+02 -0.15542257465E+02  0.63258874364E+02  0.41800000000E+01 0. -1.
         -5    1    3    3    0  502 -0.21337716713E+02 -0.58627363922E+02 -0.43371195831E+02  0.76098613540E+02  0.41800000000E+01 0.  1.
        -11    1    1    2    0    0  0.14185127233E+02 -0.46750589432E+02 -0.14677716509E+03  0.15469444605E+03  0.00000000000E+00 0.  1.
         11    1    1    2    0    0  0.30205994700E+01  0.44340442942E+02 -0.14228273407E+03  0.14906232024E+03  0.00000000000E+00 0. -1.
</event>
<event>
 7    1  0.6473813E-006  0.1292494E+03  0.7561462E-02  0.1228574E+00
          1   -1    0    0  501    0  0.00000000000E+00  0.00000000000E+00  0.10038570197E+03  0.10038570197E+03  0.00000000000E+00 0. -1.
         -1   -1    0    0    0  501 -0.00000000000E+00 -0.00000000000E+00 -0.21505075210E+03  0.21505075210E+03  0.00000000000E+00 0.  1.
         23    2    1    2    0    0  0.10157605138E+02  0.97623297137E+02 -0.80000994058E+02  0.17799198131E+03  0.12508997271E+03 0.  0.
          5    1    3    3  502    0  0.39072846138E+02  0.11640488727E+03 -0.71815155682E+02  0.14230837667E+03  0.41800000000E+01 0.  1.
         -5    1    3    3    0  502 -0.28915241001E+02 -0.18781590130E+02 -0.81858383753E+01  0.35683604636E+02  0.41800000000E+01 0.  1.
        -11    1    1    2    0    0 -0.12409931080E+02 -0.22057940818E+02 -0.53804701512E+02  0.59460113079E+02  0.00000000000E+00 0.  1.
         11    1    1    2    0    0  0.22523259420E+01 -0.75565356319E+02  0.19140645446E+02  0.77984359687E+02  0.00000000000E+00 0. -1.
</event>
<event>
 7    1  0.6473813E-006  0.1995393E+03  0.7561462E-02  0.1150128E+00
          2   -1    0    0  501    0  0.00000000000E+00  0.00000000000E+00  0.88154957295E+03  0.88154957295E+03  0.00000000000E+00 0. -1.
         -2   -1    0    0    0  501 -0.00000000000E+00 -0.00000000000E+00 -0.58031554705E+02  0.58031554705E+02  0.00000000000E+00 0.  1.
         23    2    1    2    0    0 -0.15003027529E+03  0.78543143746E+02  0.21354388903E+03  0.29987860846E+03  0.12509227928E+03 0.  0.
          5    1    3    3  502    0 -0.15542608927E+03  0.10058694507E+03  0.20213216270E+03  0.27413479593E+03  0.41800000000E+01 0. -1.
         -5    1    3    3    0  502  0.53958139866E+01 -0.22043801322E+02  0.11411726333E+02  0.25743812523E+02  0.41800000000E+01 0. -1.
        -11    1    1    2    0    0 -0.11845915958E+02 -0.76446848788E+01  0.74443368538E+02  0.75766628874E+02  0.00000000000E+00 0.  1.
         11    1    1    2    0    0  0.16187619125E+03 -0.70898458867E+02  0.53553076068E+03  0.56393589032E+03  0.00000000000E+00 0. -1.
</event>
<event>
 7    1  0.6473813E-006  0.1969929E+03  0.7561462E-02  0.1152301E+00
         -2   -1    0    0    0  501 -0.00000000000E+00  0.00000000000E+00  0.29848226886E+02  0.29848226886E+02  0.00000000000E+00 0.  1.
          2   -1    0    0  501    0  0.00000000000E+00 -0.00000000000E+00 -0.15605786552E+04  0.15605786552E+04  0.00000000000E+00 0. -1.
         23    2    1    2    0    0 -0.50671941242E+02  0.17783310399E+03 -0.70014000002E+03  0.73486946029E+03  0.12507935696E+03 0.  0.
          5    1    3    3  502    0 -0.44790678086E+02  0.18895954568E+03 -0.53450866503E+03  0.56870809748E+03  0.41800000000E+01 0. -1.
         -5    1    3    3    0  502 -0.58812631562E+01 -0.11126441688E+02 -0.16563133499E+03  0.16616136281E+03  0.41800000000E+01 0. -1.
        -11    1    1    2    0    0  0.66261561192E+01 -0.65344485250E+02 -0.14204344603E+03  0.15649328502E+03  0.00000000000E+00 0.  1.
         11    1    1    2    0    0  0.44045785123E+02 -0.11248861874E+03 -0.68854698223E+03  0.69906413674E+03  0.00000000000E+00 0. -1.
</event>
<event>
 7    1  0.6473813E-006  0.9055506E+02  0.7561462E-02  0.1301513E+00
          1   -1    0    0  501    0  0.00000000000E+00  0.00000000000E+00  0.34595123468E+03  0.34595123468E+03  0.00000000000E+00 0. -1.
         -1   -1    0    0    0  501 -0.00000000000E+00 -0.00000000000E+00 -0.38306770440E+02  0.38306770440E+02  0.00000000000E+00 0.  1.
         23    2    1    2    0    0  0.14456945727E+02 -0.32788250395E+02  0.21207378439E+03  0.24881021500E+03  0.12508861027E+03 0.  0.
          5    1    3    3  502    0  0.14159758852E+02 -0.59455772656E+02  0.36789145196E+02  0.71459088135E+02  0.41800000000E+01 0.  1.
         -5    1    3    3    0  502  0.29718687547E+00  0.26667522261E+02  0.17528463919E+03  0.17735112687E+03  0.41800000000E+01 0.  1.
        -11    1    1    2    0    0  0.32238359364E+02 -0.52036625079E+01  0.50944575255E+02  0.60512310036E+02  0.00000000000E+00 0. -1.
         11    1    1    2    0    0 -0.46695305092E+02  0.37991912902E+02  0.44626104592E+02  0.74935480079E+02  0.00000000000E+00 0.  1.
</event>
<event>
 7    1  0.6473813E-006  0.1261179E+03  0.7561462E-02  0.1233332E+00
          2   -1    0    0  501    0  0.00000000000E+00  0.00000000000E+00  0.25860338933E+03  0.25860338933E+03  0.00000000000E+00 0. -1.
         -2   -1    0    0    0  501 -0.00000000000E+00 -0.00000000000E+00 -0.70486881775E+02  0.70486881775E+02  0.00000000000E+00 0.  1.
         23    2    1    2    0    0  0.64567315113E+02  0.43182184692E+02  0.77462922712E+02  0.16637882299E+03  0.12509104320E+03 0.  0.
          5    1    3    3  502    0  0.92537052895E+02  0.60817149525E+02  0.44230256958E+02  0.11931311690E+03  0.41800000000E+01 0.  1.
         -5    1    3    3    0  502 -0.27969737782E+02 -0.17634964834E+02  0.33232665755E+02  0.47065706087E+02  0.41800000000E+01 0.  1.
        -11    1    1    2    0    0 -0.72401772703E+02 -0.89200880769E+01  0.10385248643E+03  0.12691305527E+03  0.00000000000E+00 0.  1.
         11    1    1    2    0    0  0.78344575902E+01 -0.34262096615E+02  0.68010984141E+01  0.35798392839E+02  0.00000000000E+00 0. -1.
</event>
<event>
 7    1  0.6473813E-006  0.1302446E+03  0.7561462E-02  0.1227093E+00
         -2   -1    0    0    0  501 -0.00000000000E+00  0.00000000000E+00  0.47689241981E+02  0.47689241981E+02  0.00000000000E+00 0.  1.
          2   -1    0    0  501    0  0.00000000000E+00 -0.00000000000E+00 -0.52084120599E+03  0.52084120599E+03  0.00000000000E+00 0. -1.
         23    2    1    2    0    0 -0.10583733414E+03  0.94670821354E+01 -0.17610452964E+03  0.24073172417E+03  0.12509112966E+03 0.  0.
          5    1    3    3  502    0 -0.98673640244E+02  0.49759034968E+02 -0.16408819934E+03  0.19787586614E+03  0.41800000000E+01 0. -1.
         -5    1    3    3    0  502 -0.71636938931E+01 -0.40291952833E+02 -0.12016330305E+02  0.42855858028E+02  0.41800000000E+01 0. -1.
        -11    1    1    2    0    0  0.44453613653E+02  0.74908703555E+01 -0.32191662319E+02  0.55394404306E+02  0.00000000000E+00 0.  1.
         11    1    1    2    0    0  0.61383720484E+02 -0.16957952491E+02 -0.26485577205E+03  0.27240431950E+03  0.00000000000E+00 0. -1.
</event>
<event>
 7    1  0.6473813E-006  0.9376509E+02  0.7561462E-02  0.1293982E+00
         -1   -1    0    0    0  501 -0.00000000000E+00  0.00000000000E+00  0.45527983558E+02  0.45527983558E+02  0.00000000000E+00 0.  1.
          1   -1    0    0  501    0  0.00000000000E+00 -0.00000000000E+00 -0.27390064743E+03  0.27390064743E+03  0.00000000000E+00 0. -1.
         23    2    1    2    0    0  0.16919046952E+02 -0.15779978161E+02 -0.13538904139E+03  0.18577600800E+03  0.12508905132E+03 0.  0.
          5    1    3    3  502    0 -0.42837167005E+02 -0.38508181737E+02 -0.91191803228E+02  0.10794128179E+03  0.41800000000E+01 0.  1.
         -5    1    3    3    0  502  0.59756213957E+02  0.22728203576E+02 -0.44197238158E+02  0.77834726215E+02  0.41800000000E+01 0.  1.
        -11    1    1    2    0    0  0.16733069555E+01 -0.22810940988E+02  0.77820782353E+01  0.24159878447E+02  0.00000000000E+00 0.  1.
         11    1    1    2    0    0 -0.18592353907E+02  0.38590919150E+02 -0.10076570072E+03  0.10949274453E+03  0.00000000000E+00 0. -1.
</event>
<event>
 7    1  0.6473813E-006  0.7552499E+02  0.7561462E-02  0.1342253E+00
         -2   -1    0    0    0  501 -0.00000000000E+00  0.00000000000E+00  0.49750958346E+02  0.49750958346E+02  0.00000000000E+00 0. -1.
          2   -1    0    0  501    0  0.00000000000E+00 -0.00000000000E+00 -0.27357793240E+03  0.27357793240E+03  0.00000000000E+00 0.  1.
         23    2    1    2    0    0  0.13205146813E+02  0.71555569232E+01 -0.72285602547E+02  0.14525566445E+03  0.12509365220E+03 0.  0.
          5    1    3    3  502    0  0.60471136657E+02 -0.13576499302E+01 -0.28137795890E+01  0.60695892262E+02  0.41800000000E+01 0.  1.
         -5    1    3    3    0  502 -0.47265989843E+02  0.85132068533E+01 -0.69471822958E+02  0.84559772185E+02  0.41800000000E+01 0.  1.
        -11    1    1    2    0    0  0.14195018402E+02 -0.27566828292E+01  0.77338646597E+01  0.16398491096E+02  0.00000000000E+00 0. -1.
         11    1    1    2    0    0 -0.27400165215E+02 -0.43988740940E+01 -0.15927523617E+03  0.16167473521E+03  0.00000000000E+00 0.  1.
</event>
<event>
 7    1  0.6473813E-006  0.1134610E+03  0.7561462E-02  0.1254292E+00
          1   -1    0    0  501    0  0.00000000000E+00  0.00000000000E+00  0.66474617288E+03  0.66474617288E+03  0.00000000000E+00 0. -1.
         -1   -1    0    0    0  501 -0.00000000000E+00 -0.00000000000E+00 -0.30501570637E+02  0.30501570637E+02  0.00000000000E+00 0.  1.
         23    2    1    2    0    0  0.84311208617E+00 -0.57392537716E+02  0.17632178320E+03  0.22367840943E+03  0.12509214761E+03 0.  0.
          5    1    3    3  502    0 -0.21379302797E+02 -0.87847158838E+02  0.82448695596E+02  0.12243144085E+03  0.41800000000E+01 0. -1.
         -5    1    3    3    0  502  0.22222414883E+02  0.30454621122E+02  0.93873087601E+02  0.10124696858E+03  0.41800000000E+01 0. -1.
        -11    1    1    2    0    0 -0.23882824729E+02  0.68761316554E+02  0.41659545123E+03  0.42290693770E+03  0.00000000000E+00 0.  1.
         11    1    1    2    0    0  0.23039712643E+02 -0.11368778839E+02  0.41327367823E+02  0.48662396387E+02  0.00000000000E+00 0. -1.
</event>
<event>
 7    1  0.6473813E-006  0.1143720E+03  0.7561462E-02  0.1252681E+00
         -2   -1    0    0    0  501 -0.00000000000E+00  0.00000000000E+00  0.38059239657E+02  0.38059239657E+02  0.00000000000E+00 0.  1.
          2   -1    0    0  501    0  0.00000000000E+00 -0.00000000000E+00 -0.41239723642E+03  0.41239723642E+03  0.00000000000E+00 0. -1.
         23    2    1    2    0    0 -0.42976536455E+02 -0.40743112406E+02 -0.17329898037E+03  0.22179036163E+03  0.12510573136E+03 0.  0.
          5    1    3    3  502    0  0.18959662643E+02 -0.55119323099E+02 -0.31626763608E+02  0.66447973353E+02  0.41800000000E+01 0.  1.
         -5    1    3    3    0  502 -0.61936199098E+02  0.14376210693E+02 -0.14167221676E+03  0.15534238828E+03  0.41800000000E+01 0.  1.
        -11    1    1    2    0    0 -0.20014992508E+02  0.38689784747E+02 -0.59611725958E+02  0.73831275491E+02  0.00000000000E+00 0. -1.
         11    1    1    2    0    0  0.62991528963E+02  0.20533276596E+01 -0.14142729044E+03  0.15483483896E+03  0.00000000000E+00 0.  1.
</event>
<event>
 7    1  0.6473813E-006  0.9815656E+02  0.7561462E-02  0.1284221E+00
         -3   -1    0    0    0  501 -0.00000000000E+00  0.00000000000E+00  0.47130993876E+03  0.47130993876E+03  0.00000000000E+00 0.  1.
          3   -1    0    0  501    0  0.00000000000E+00 -0.00000000000E+00 -0.31348493048E+02  0.31348493048E+02  0.00000000000E+00 0. -1.
         23    2    1    2    0    0  0.38180949164E+02  0.73815832321E+01  0.32877323868E+03  0.35390988031E+03  0.12509231895E+03 0.  0.
          5    1    3    3  502    0 -0.26656705372E+02  0.19888049563E+02  0.24439753916E+03  0.24668551641E+03  0.41800000000E+01 0.  1.
         -5    1    3    3    0  502  0.64837654536E+02 -0.12506466331E+02  0.84375699516E+02  0.10722436390E+03  0.41800000000E+01 0.  1.
        -11    1    1    2    0    0 -0.30081436964E+02  0.39163912444E+02  0.41233059273E+02  0.64334050586E+02  0.00000000000E+00 0.  1.
         11    1    1    2    0    0 -0.80995121992E+01 -0.46545495676E+02  0.69955147758E+02  0.84414500907E+02  0.00000000000E+00 0. -1.
</event>
<event>
 7    1  0.6473813E-006  0.1320773E+03  0.7561462E-02  0.1224406E+00
          1   -1    0    0  501    0  0.00000000000E+00  0.00000000000E+00  0.11891098662E+03  0.11891098662E+03  0.00000000000E+00 0. -1.
         -1   -1    0    0    0  501 -0.00000000000E+00 -0.00000000000E+00 -0.17450290213E+03  0.17450290213E+03  0.00000000000E+00 0.  1.
         23    2    1    2    0    0  0.50824573322E+02 -0.79596910102E+02 -0.34567032150E+02  0.16049922702E+03  0.12508523818E+03 0.  0.
          5    1    3    3  502    0 -0.30000395607E+02 -0.68676232308E+02 -0.17298787011E+02  0.77027067013E+02  0.41800000000E+01 0. -1.
         -5    1    3    3    0  502  0.80824968928E+02 -0.10920677794E+02 -0.17268245139E+02  0.83472160005E+02  0.41800000000E+01 0. -1.
        -11    1    1    2    0    0  0.79640295581E+01  0.28323400146E+02  0.28135556479E+02  0.40709339236E+02  0.00000000000E+00 0. -1.
         11    1    1    2    0    0 -0.58788602880E+02  0.51273509956E+02 -0.49160439842E+02  0.92205322499E+02  0.00000000000E+00 0.  1.
</event>
<event>
 7    1  0.6473813E-006  0.1118558E+03  0.7561462E-02  0.1257171E+00
          2   -1    0    0  501    0  0.00000000000E+00  0.00000000000E+00  0.65467831028E+03  0.65467831028E+03  0.00000000000E+00 0. -1.
         -2   -1    0    0    0  501 -0.00000000000E+00 -0.00000000000E+00 -0.28587644760E+02  0.28587644760E+02  0.00000000000E+00 0.  1.
         23    2    1    2    0    0  0.15811910038E+00  0.39641845266E+02  0.16245904530E+03  0.20883519001E+03  0.12509074422E+03 0.  0.
          5    1    3    3  502    0 -0.28779784780E+02  0.73142568322E+02  0.13587949883E+03  0.15703127687E+03  0.41800000000E+01 0. -1.
         -5    1    3    3    0  502  0.28937903880E+02 -0.33500723056E+02  0.26579546469E+02  0.51803913141E+02  0.41800000000E+01 0. -1.
        -11    1    1    2    0    0 -0.19259428692E+02 -0.65564188585E+02  0.32552901392E+03  0.33262400293E+03  0.00000000000E+00 0.  1.
         11    1    1    2    0    0  0.19101309592E+02  0.25922343319E+02  0.13810260630E+03  0.14180676211E+03  0.00000000000E+00 0. -1.
</event>
<event>
 7    1  0.6473813E-006  0.1120740E+03  0.7561462E-02  0.1256777E+00
          2   -1    0    0  501    0  0.00000000000E+00  0.00000000000E+00  0.55254129587E+03  0.55254129587E+03  0.00000000000E+00 0. -1.
         -2   -1    0    0    0  501 -0.00000000000E+00 -0.00000000000E+00 -0.28321556700E+02  0.28321556700E+02  0.00000000000E+00 0.  1.
         23    2    1    2    0    0  0.38068542889E+02  0.21839640231E+02  0.18955611967E+03  0.23131226531E+03  0.12509059811E+03 0.  0.
          5    1    3    3  502    0 -0.37178603313E+02  0.39316636314E+02  0.64914449951E+02  0.84613265200E+02  0.41800000000E+01 0. -1.
         -5    1    3    3    0  502  0.75247146202E+02 -0.17476996082E+02  0.12464166972E+03  0.14669900012E+03  0.41800000000E+01 0. -1.
        -11    1    1    2    0    0 -0.54574367616E+02 -0.40230910732E+02  0.29598859628E+03  0.30365463426E+03  0.00000000000E+00 0. -1.
         11    1    1    2    0    0  0.16505824727E+02  0.18391270501E+02  0.38675023212E+02  0.45895952991E+02  0.00000000000E+00 0.  1.
</event>
<event>
 7    1  0.6473813E-006  0.7960111E+02  0.7561462E-02  0.1330187E+00
          1   -1    0    0  501    0  0.00000000000E+00  0.00000000000E+00  0.15053034582E+03  0.15053034582E+03  0.00000000000E+00 0. -1.
         -1   -1    0    0    0  501 -0.00000000000E+00 -0.00000000000E+00 -0.88474918153E+02  0.88474918153E+02  0.00000000000E+00 0.  1.
         23    2    1    2    0    0  0.51070818952E+01  0.39099941009E+02  0.42117987026E+02  0.13775778087E+03  0.12509353975E+03 0.  0.
          5    1    3    3  502    0  0.36321002034E+02  0.18722904993E+02  0.76528327336E+02  0.86855164757E+02  0.41800000000E+01 0. -1.
         -5    1    3    3    0  502 -0.31213920139E+02  0.20377036016E+02 -0.34410340310E+02  0.50902616117E+02  0.41800000000E+01 0. -1.
        -11    1    1    2    0    0 -0.27365683785E+02 -0.49102564661E+02  0.40543095393E+02  0.69308622042E+02  0.00000000000E+00 0. -1.
         11    1    1    2    0    0  0.22258601890E+02  0.10002623652E+02 -0.20605654750E+02  0.31938861059E+02  0.00000000000E+00 0.  1.
</event>
<event>
 6    1  0.6473813E-006  0.1201187E+03  0.7561462E-02  0.1242901E+00
         -2   -1    0    0    0  501 -0.00000000000E+00  0.00000000000E+00  0.17515371624E+02  0.17515371624E+02  0.00000000000E+00 0.  1.
          2   -1    0    0  501    0  0.00000000000E+00 -0.00000000000E+00 -0.11029078379E+04  0.11029078379E+04  0.00000000000E+00 0. -1.
          5    1    1    2  502    0  0.52745352374E+02  0.15246292366E+02 -0.50182941082E+03  0.50484131328E+03  0.41800000000E+01 0. -1.
         -5    1    1    2    0  502  0.22042545528E+01 -0.67692636891E+02 -0.12697872316E+03  0.14397298483E+03  0.41800000000E+01 0.  1.
        -11    1    1    2    0    0  0.12776742135E+02 -0.16368150916E+02 -0.62053049131E+02  0.65435024340E+02  0.00000000000E+00 0. -1.
         11    1    1    2    0    0 -0.67726349061E+02  0.68814495441E+02 -0.39453128313E+03  0.40617388703E+03  0.00000000000E+00 0.  1.
</event>
<event>
 7    1  0.6473813E-006  0.1000775E+03  0.7561462E-02  0.1280133E+00
         -2   -1    0    0    0  501 -0.00000000000E+00  0.00000000000E+00  0.26003173185E+02  0.26003173185E+02  0.00000000000E+00 0. -1.
          2   -1    0    0  501    0  0.00000000000E+00 -0.00000000000E+00 -0.67991295354E+03  0.67991295354E+03  0.00000000000E+00 0.  1.
         23    2    1    2    0    0 -0.68761934670E+02 -0.43955688565E+01 -0.28561370775E+03  0.31932752987E+03  0.12508939440E+03 0.  0.
          5    1    3    3  502    0 -0.31837095637E+02 -0.27715205150E+02 -0.14711388592E+02  0.44895774961E+02  0.41800000000E+01 0. -1.
         -5    1    3    3    0  502 -0.36924839033E+02  0.23319636293E+02 -0.27090231916E+03  0.27443175491E+03  0.41800000000E+01 0. -1.
        -11    1    1    2    0    0  0.85699505698E+02 -0.16182678769E+02 -0.23517666169E+03  0.25082732422E+03  0.00000000000E+00 0. -1.
         11    1    1    2    0    0 -0.16937571028E+02  0.20578247625E+02 -0.13311941091E+03  0.13576127264E+03  0.00000000000E+00 0.  1.
</event>
<event>
 7    1  0.6473813E-006  0.2001659E+03  0.7561462E-02  0.1149599E+00
         -1   -1    0    0    0  501 -0.00000000000E+00  0.00000000000E+00  0.26781129966E+03  0.26781129966E+03  0.00000000000E+00 0.  1.
          1   -1    0    0  501    0  0.00000000000E+00 -0.00000000000E+00 -0.18814229925E+03  0.18814229925E+03  0.00000000000E+00 0. -1.
         23    2    1    2    0    0 -0.16637086447E+03  0.10706972895E+03  0.84648885388E+02  0.24891066104E+03  0.12509153440E+03 0.  0.
          5    1    3    3  502    0 -0.11394051734E+03  0.52227327786E+02  0.11200893518E+03  0.16814758166E+03  0.41800000000E+01 0. -1.
         -5    1    3    3    0  502 -0.52430347134E+02  0.54842401166E+02 -0.27360049791E+02  0.80763079379E+02  0.41800000000E+01 0. -1.
        -11    1    1    2    0    0  0.75566910733E+02 -0.36431233841E+02  0.26131876126E+02  0.87866192286E+02  0.00000000000E+00 0.  1.
         11    1    1    2    0    0  0.90803953741E+02 -0.70638495110E+02 -0.31111761102E+02  0.11917674557E+03  0.00000000000E+00 0. -1.
</event>
<event>
 7    1  0.6473813E-006  0.1000096E+03  0.7561462E-02  0.1280276E+00
          1   -1    0    0  501    0  0.00000000000E+00  0.00000000000E+00  0.22725339665E+03  0.22725339665E+03  0.00000000000E+00 0. -1.
         -1   -1    0    0    0  501 -0.00000000000E+00 -0.00000000000E+00 -0.76059839846E+02  0.76059839846E+02  0.00000000000E+00 0.  1.
         23    2    1    2    0    0  0.12985898444E+02  0.47205232493E+02  0.19101380088E+02  0.13568061022E+03  0.12508955885E+03 0.  0.
          5    1    3    3  502    0 -0.33492116656E+02 -0.12695217526E+02  0.42959537527E+02  0.56088186730E+02  0.41800000000E+01 0.  1.
         -5    1    3    3    0  502  0.46478015100E+02  0.59900450018E+02 -0.23858157439E+02  0.79592423486E+02  0.41800000000E+01 0.  1.
        -11    1    1    2    0    0 -0.42337115539E+02 -0.16197088435E+02  0.23736687433E+02  0.51168421475E+02  0.00000000000E+00 0.  1.
         11    1    1    2    0    0  0.29351217096E+02 -0.31008144057E+02  0.10835548928E+03  0.11646420480E+03  0.00000000000E+00 0. -1.
</event>
<event>
 7    1  0.6473813E-006  0.1036491E+03  0.7561462E-02  0.1272804E+00
         -3   -1    0    0    0  501 -0.00000000000E+00  0.00000000000E+00  0.65488995229E+02  0.65488995229E+02  0.00000000000E+00 0.  1.
          3   -1    0    0  501    0  0.00000000000E+00 -0.00000000000E+00 -0.19864327997E+03  0.19864327997E+03  0.00000000000E+00 0. -1.
         23    2    1    2    0    0  0.19830381043E+02 -0.99346216846E+01 -0.82970457469E+02  0.15173393756E+03  0.12508856972E+03 0.  0.
          5    1    3    3  502    0  0.64665222640E+02  0.24062496943E+02 -0.57127679652E+02  0.89675185869E+02  0.41800000000E+01 0.  1.
         -5    1    3    3    0  502 -0.44834841596E+02 -0.33997118627E+02 -0.25842777817E+02  0.62058751689E+02  0.41800000000E+01 0.  1.
        -11    1    1    2    0    0  0.27796682898E+02 -0.10782654000E+02 -0.52536730336E+02  0.60407195282E+02  0.00000000000E+00 0. -1.
         11    1    1    2    0    0 -0.47627063942E+02  0.20717275684E+02  0.23529030604E+01  0.51991142364E+02  0.00000000000E+00 0.  1.
</event>
<event>
 7    1  0.6473813E-006  0.1668264E+03  0.7561462E-02  0.1181198E+00
          2   -1    0    0  501    0  0.00000000000E+00  0.00000000000E+00  0.24046415629E+03  0.24046415629E+03  0.00000000000E+00 0.  1.
         -2   -1    0    0    0  501 -0.00000000000E+00 -0.00000000000E+00 -0.13707572243E+03  0.13707572243E+03  0.00000000000E+00 0. -1.
         23    2    1    2    0    0 -0.12526909424E+03 -0.57081578502E+02  0.80775390063E+01  0.18618065583E+03  0.12508931766E+03 0.  0.
          5    1    3    3  502    0 -0.23417511493E+02 -0.78153879330E+02  0.80358251863E+01  0.82088096489E+02  0.41800000000E+01 0. -1.
         -5    1    3    3    0  502 -0.10185158275E+03  0.21072300827E+02  0.41713820059E-01  0.10409255934E+03  0.41800000000E+01 0. -1.
        -11    1    1    2    0    0  0.28844152522E+02 -0.98598199761E+01  0.62402678820E+02  0.69449949665E+02  0.00000000000E+00 0.  1.
         11    1    1    2    0    0  0.96424941721E+02  0.66941398478E+02  0.32908216034E+02  0.12190927323E+03  0.00000000000E+00 0. -1.
</event>
<event>
 7    1  0.6473813E-006  0.1570394E+03  0.7561462E-02  0.1192080E+00
          2   -1    0    0  501    0  0.00000000000E+00  0.00000000000E+00  0.28749992828E+03  0.28749992828E+03  0.00000000000E+00 0. -1.
         -2   -1    0    0    0  501 -0.00000000000E+00 -0.00000000000E+00 -0.21010664790E+03  0.21010664790E+03  0.00000000000E+00 0.  1.
         23    2    1    2    0    0  0.48996607008E+01 -0.14082470062E+03 -0.13136827313E+03  0.22970272128E+03  0.12510041566E+03 0.  0.
          5    1    3    3  502    0  0.34422953748E+02 -0.49291577332E+02  0.74982719474E+01  0.60731341355E+02  0.41800000000E+01 0. -1.
         -5    1    3    3    0  502 -0.29523293047E+02 -0.91533123290E+02 -0.13886654508E+03  0.16897137993E+03  0.41800000000E+01 0. -1.
        -11    1    1    2    0    0  0.32124270699E+02  0.49611572495E+02  0.36405117401E+02  0.69416204638E+02  0.00000000000E+00 0.  1.
         11    1    1    2    0    0 -0.37023931399E+02  0.91213128127E+02  0.17235643611E+03  0.19848765026E+03  0.00000000000E+00 0. -1.
</event>
<event>
 7    1  0.6473813E-006  0.8385413E+02  0.7561462E-02  0.1318457E+00
         -1   -1    0    0    0  501 -0.00000000000E+00  0.00000000000E+00  0.58218793187E+02  0.58218793187E+02  0.00000000000E+00 0.  1.
          1   -1    0    0  501    0  0.00000000000E+00 -0.00000000000E+00 -0.26482312934E+03  0.26482312934E+03  0.00000000000E+00 0. -1.
         23    2    1    2    0    0 -0.46529426083E+02  0.29489387257E+02 -0.82305633434E+02  0.15954944053E+03  0.12508874940E+03 0.  0.
          5    1    3    3  502    0 -0.12086802209E+02 -0.40685995203E+01 -0.10525169272E+03  0.10610389018E+03  0.41800000000E+01 0. -1.
         -5    1    3    3    0  502 -0.34442623875E+02  0.33557986777E+02  0.22946059287E+02  0.53445550355E+02  0.41800000000E+01 0. -1.
        -11    1    1    2    0    0  0.58005980921E+02 -0.53812830356E+02 -0.88434689041E+02  0.11866426909E+03  0.00000000000E+00 0.  1.
         11    1    1    2    0    0 -0.11476554838E+02  0.24323443099E+02 -0.35864013677E+02  0.44828212904E+02  0.00000000000E+00 0. -1.
</event>
<event>
 7    1  0.6473813E-006  0.1207763E+03  0.7561462E-02  0.1241822E+00
         -2   -1    0    0    0  501 -0.00000000000E+00  0.00000000000E+00  0.25421143569E+02  0.25421143569E+02  0.00000000000E+00 0.  1.
          2   -1    0    0  501    0  0.00000000000E+00 -0.00000000000E+00 -0.74449465794E+03  0.74449465794E+03  0.00000000000E+00 0. -1.
         23    2    1    2    0    0  0.27919918170E+02 -0.65070059989E+02 -0.29151458713E+03  0.32502668440E+03  0.12509179238E+03 0.  0.
          5    1    3    3  502    0 -0.25538271070E+02  0.13252213207E+02 -0.15084602264E+02  0.32754267960E+02  0.41800000000E+01 0.  1.
         -5    1    3    3    0  502  0.53458189240E+02 -0.78322273196E+02 -0.27642998487E+03  0.29227241644E+03  0.41800000000E+01 0.  1.
        -11    1    1    2    0    0  0.34451644279E+02  0.31726829085E+02 -0.23803935807E+03  0.24260305741E+03  0.00000000000E+00 0.  1.
         11    1    1    2    0    0 -0.62371562449E+02  0.33343230904E+02 -0.18951956918E+03  0.20228605970E+03  0.00000000000E+00 0. -1.
</event>
<event>
 7    1  0.6473813E-006  0.1211400E+03  0.7561462E-02  0.1241228E+00
          2   -1    0    0  501    0  0.00000000000E+00  0.00000000000E+00  0.25904564708E+03  0.25904564708E+03  0.00000000000E+00 0. -1.
         -2   -1    0    0    0  501 -0.00000000000E+00 -0.00000000000E+00 -0.11062387199E+03  0.11062387199E+03  0.00000000000E+00 0.  1.
         23    2    1    2    0    0 -0.11274159605E+02 -0.11300291173E+03  0.10678666041E+02  0.16928881715E+03  0.12509158633E+03 0.  0.
          5    1    3    3  502    0 -0.87659091191E+01 -0.91586887079E+02  0.63643339101E+02  0.11195064117E+03  0.41800000000E+01 0.  1.
         -5    1    3    3    0  502 -0.25082504860E+01 -0.21416024650E+02 -0.52964673059E+02  0.57338175979E+02  0.41800000000E+01 0.  1.
        -11    1    1    2    0    0  0.17230505597E+02  0.23353101145E+01  0.66250738941E+02  0.68494557497E+02  0.00000000000E+00 0. -1.
         11    1    1    2    0    0 -0.59563459920E+01  0.11066760162E+03  0.71492370108E+02  0.13188614441E+03  0.00000000000E+00 0.  1.
</event>
<event>
 7    1  0.6473813E-006  0.1205327E+03  0.7561462E-02  0.1242221E+00
          2   -1    0    0  501    0  0.00000000000E+00  0.00000000000E+00  0.17779519146E+03  0.17779519146E+03  0.00000000000E+00 0. -1.
         -2   -1    0    0    0  501 -0.00000000000E+00 -0.00000000000E+00 -0.88073387457E+02  0.88073387457E+02  0.00000000000E+00 0.  1.
         23    2    1    2    0    0 -0.22973155562E+02 -0.51989940481E+02  0.26783080746E+02  0.13997875325E+03  0.12508396443E+03 0.  0.
          5    1    3    3  502    0 -0.61938131477E+02  0.10876755859E+02  0.16823871619E+02  0.65231518494E+02  0.41800000000E+01 0.  1.
         -5    1    3    3    0  502  0.38964975914E+02 -0.62866696340E+02  0.99592091272E+01  0.74747234752E+02  0.41800000000E+01 0.  1.
        -11    1    1    2    0    0 -0.89987515797E+01 -0.21776668570E+02 -0.35872086959E+00  0.23565430288E+02  0.00000000000E+00 0.  1.
         11    1    1    2    0    0  0.31971907142E+02  0.73766609051E+02  0.63297444122E+02  0.10232439538E+03  0.00000000000E+00 0. -1.
</event>
<event>
 7    1  0.6473813E-006  0.1989870E+03  0.7561462E-02  0.1150597E+00
          1   -1    0    0  501    0  0.00000000000E+00  0.00000000000E+00  0.18108195879E+04  0.18108195879E+04  0.00000000000E+00 0. -1.
         -1   -1    0    0    0  501 -0.00000000000E+00 -0.00000000000E+00 -0.21886617748E+02  0.21886617748E+02  0.00000000000E+00 0.  1.
         23    2    1    2    0    0  0.86228364369E+02  0.14302751996E+03  0.93903573815E+03  0.96193900987E+03  0.12508532648E+03 0.  0.
          5    1    3    3  502    0  0.49280835678E+02  0.16012263362E+03  0.76869043553E+03  0.78674666612E+03  0.41800000000E+01 0.  1.
         -5    1    3    3    0  502  0.36947528692E+02 -0.17095113657E+02  0.17034530262E+03  0.17519234376E+03  0.41800000000E+01 0.  1.
        -11    1    1    2    0    0 -0.10710268404E+02 -0.10382378175E+03  0.47679990644E+03  0.48809039971E+03  0.00000000000E+00 0.  1.
         11    1    1    2    0    0 -0.75518095965E+02 -0.39203738218E+02  0.37309732558E+03  0.38267679609E+03  0.00000000000E+00 0. -1.
</event>
<event>
 7    1  0.6473813E-006  0.9915144E+02  0.7561462E-02  0.1282091E+00
         -1   -1    0    0    0  501 -0.00000000000E+00  0.00000000000E+00  0.43047963244E+03  0.43047963244E+03  0.00000000000E+00 0.  1.
          1   -1    0    0  501    0  0.00000000000E+00 -0.00000000000E+00 -0.44377997202E+02  0.44377997202E+02  0.00000000000E+00 0. -1.
         23    2    1    2    0    0 -0.68069402497E+02  0.57313296222E+01  0.30373702775E+03  0.33551461407E+03  0.12509029753E+03 0.  0.
          5    1    3    3  502    0 -0.78068517611E+02  0.20012296129E+01  0.31182768277E+03  0.32148510775E+03  0.41800000000E+01 0. -1.
         -5    1    3    3    0  502  0.99991151144E+01  0.37301000094E+01 -0.80906550186E+01  0.14029506327E+02  0.41800000000E+01 0. -1.
        -11    1    1    2    0    0  0.72913304473E+01 -0.38775584121E+02  0.13422866116E+02  0.41675925406E+02  0.00000000000E+00 0. -1.
         11    1    1    2    0    0  0.60778072050E+02  0.33044254499E+02  0.68941741370E+02  0.97667090161E+02  0.00000000000E+00 0.  1.
</event>
<event>
 7    1  0.6473813E-006  0.1342372E+03  0.7561462E-02  0.1221301E+00
         -1   -1    0    0    0  501 -0.00000000000E+00  0.00000000000E+00  0.54464621634E+02  0.54464621634E+02  0.00000000000E+00 0.  1.
          1   -1    0    0  501    0  0.00000000000E+00 -0.00000000000E+00 -0.51186426928E+03  0.51186426928E+03  0.00000000000E+00 0. -1.
         23    2    1    2    0    0  0.89069902926E+02  0.90946539581E+02 -0.25197226387E+03  0.30877361160E+03  0.12508557387E+03 0.  0.
          5    1    3    3  502    0  0.84507645567E+02  0.50150745007E+02 -0.24862777308E+03  0.26737591763E+03  0.41800000000E+01 0. -1.
         -5    1    3    3    0  502  0.45622573583E+01  0.40795794574E+02 -0.33444907960E+01  0.41397693968E+02  0.41800000000E+01 0. -1.
        -11    1    1    2    0    0 -0.67512112943E+02 -0.79991386462E+02 -0.20838150600E+03  0.23319382356E+03  0.00000000000E+00 0. -1.
         11    1    1    2    0    0 -0.21557789983E+02 -0.10955153119E+02  0.29541222216E+01  0.24361455763E+02  0.00000000000E+00 0.  1.
</event>
<event>
 7    1  0.6473813E-006  0.9642715E+02  0.7561462E-02  0.1287994E+00
         -1   -1    0    0    0  501 -0.00000000000E+00  0.00000000000E+00  0.57050760149E+03  0.57050760149E+03  0.00000000000E+00 0. -1.
          1   -1    0    0  501    0  0.00000000000E+00 -0.00000000000E+00 -0.24123654569E+02  0.24123654569E+02  0.00000000000E+00 0.  1.
         23    2    1    2    0    0 -0.42584817684E+02  0.11712973640E+02  0.29387380303E+03  0.32242720998E+03  0.12508730223E+03 0.  0.
          5    1    3    3  502    0 -0.73651843688E+02 -0.17108158849E+02  0.25028485832E+03  0.26149046997E+03  0.41800000000E+01 0. -1.
         -5    1    3    3    0  502  0.31067026003E+02  0.28821132488E+02  0.43588944701E+02  0.60936740008E+02  0.41800000000E+01 0. -1.
        -11    1    1    2    0    0  0.20853522456E+02  0.24584636965E+02  0.25004209938E+02  0.40798091722E+02  0.00000000000E+00 0.  1.
         11    1    1    2    0    0  0.21731295228E+02 -0.36297610605E+02  0.22750593396E+03  0.23140595436E+03  0.00000000000E+00 0. -1.
</event>
<event>
 7    1  0.6473813E-006  0.1284387E+03  0.7561462E-02  0.1229791E+00
          2   -1    0    0  501    0  0.00000000000E+00  0.00000000000E+00  0.35727896015E+03  0.35727896015E+03  0.00000000000E+00 0. -1.
         -2   -1    0    0    0  501 -0.00000000000E+00 -0.00000000000E+00 -0.55408462709E+02  0.55408462709E+02  0.00000000000E+00 0.  1.
         23    2    1    2    0    0 -0.78692922092E+02  0.29039390369E+02  0.12203654292E+03  0.19384616631E+03  0.12509019228E+03 0.  0.
          5    1    3    3  502    0  0.94116911149E+01  0.47198537476E+02  0.86962495457E+01  0.49085425797E+02  0.41800000000E+01 0.  1.
         -5    1    3    3    0  502 -0.88104613207E+02 -0.18159147107E+02  0.11334029338E+03  0.14476074052E+03  0.41800000000E+01 0.  1.
        -11    1    1    2    0    0  0.22864147289E+02  0.29696919781E+02  0.91970456339E+02  0.99313851577E+02  0.00000000000E+00 0.  1.
         11    1    1    2    0    0  0.55828774803E+02 -0.58736310151E+02  0.87863498176E+02  0.11952740497E+03  0.00000000000E+00 0. -1.
</event>
<event>
 7    1  0.6473813E-006  0.1056957E+03  0.7561462E-02  0.1268755E+00
          2   -1    0    0  501    0  0.00000000000E+00  0.00000000000E+00  0.60424831652E+02  0.60424831652E+02  0.00000000000E+00 0. -1.
         -2   -1    0    0    0  501 -0.00000000000E+00 -0.00000000000E+00 -0.19492825863E+03  0.19492825863E+03  0.00000000000E+00 0.  1.
         23    2    1    2    0    0 -0.43159665602E+01  0.72071901568E+01 -0.10205247305E+03  0.16165689952E+03  0.12509066612E+03 0.  0.
          5    1    3    3  502    0 -0.59349077183E+02  0.27844643836E+02 -0.44895039400E+02  0.79565533465E+02  0.41800000000E+01 0.  1.
         -5    1    3    3    0  502  0.55033110623E+02 -0.20637453679E+02 -0.57157433649E+02  0.82091366053E+02  0.41800000000E+01 0.  1.
        -11    1    1    2    0    0  0.43174107303E+01  0.39668286485E+02 -0.75261222937E+01  0.40606101818E+02  0.00000000000E+00 0. -1.
         11    1    1    2    0    0 -0.14441700679E-02 -0.46875476642E+02 -0.24924831640E+02  0.53090088951E+02  0.00000000000E+00 0.  1.
</event>
<event>
 7    1  0.6473813E-006  0.1561800E+03  0.7561462E-02  0.1193078E+00
         -2   -1    0    0    0  501 -0.00000000000E+00  0.00000000000E+00  0.74934233507E+02  0.74934233507E+02  0.00000000000E+00 0.  1.
          2   -1    0    0  501    0  0.00000000000E+00 -0.00000000000E+00 -0.44976375191E+03  0.44976375191E+03  0.00000000000E+00 0. -1.
         23    2    1    2    0    0 -0.60581867708E+01 -0.14827187227E+03 -0.19689100942E+03  0.27647279357E+03  0.12509950543E+03 0.  0.
          5    1    3    3  502    0 -0.23657777529E+02 -0.14315305935E+03 -0.20874159684E+03  0.25424990756E+03  0.41800000000E+01 0.  1.
         -5    1    3    3    0  502  0.17599590758E+02 -0.51188129105E+01  0.11850587420E+02  0.22222886011E+02  0.41800000000E+01 0.  1.
        -11    1    1    2    0    0  0.17386853223E+01  0.63449980770E+02 -0.16145845652E+02  0.65495125149E+02  0.00000000000E+00 0.  1.
         11    1    1    2    0    0  0.43195014486E+01  0.84821891495E+02 -0.16179266333E+03  0.18273006670E+03  0.00000000000E+00 0. -1.
</event>
<event>
 7    1  0.6473813E-006  0.1134147E+03  0.7561462E-02  0.1254374E+00
          2   -1    0    0  501    0  0.00000000000E+00  0.00000000000E+00  0.29254941062E+03  0.29254941062E+03  0.00000000000E+00 0. -1.
         -2   -1    0    0    0  501 -0.00000000000E+00 -0.00000000000E+00 -0.56440439844E+02  0.56440439844E+02  0.00000000000E+00 0.  1.
         23    2    1    2    0    0  0.37784858529E+02 -0.31814928314E+02  0.70411691920E+02  0.15165384798E+03  0.12490475591E+03 0.  0.
          5    1    3    3  502    0 -0.20364086924E+02 -0.59669016865E+02  0.11515624872E+02  0.64227483417E+02  0.41800000000E+01 0. -1.
         -5    1    3    3    0  502  0.58148945453E+02  0.27854088551E+02  0.58896067048E+02  0.87426364559E+02  0.41800000000E+01 0. -1.
        -11    1    1    2    0    0  0.55414331608E+00 -0.27988462312E+02  0.86646343255E+02  0.91056300699E+02  0.00000000000E+00 0. -1.
         11    1    1    2    0    0 -0.38339001845E+02  0.59803390626E+02  0.79050935599E+02  0.10627970179E+03  0.00000000000E+00 0.  1.
</event>
<event>
 7    1  0.6473813E-006  0.1207126E+03  0.7561462E-02  0.1241926E+00
          1   -1    0    0  501    0  0.00000000000E+00  0.00000000000E+00  0.16577754810E+03  0.16577754810E+03  0.00000000000E+00 0. -1.
         -1   -1    0    0    0  501 -0.00000000000E+00 -0.00000000000E+00 -0.98477047467E+02  0.98477047467E+02  0.00000000000E+00 0.  1.
         23    2    1    2    0    0 -0.41806451179E+02 -0.50777739382E+02  0.24808050579E+02  0.14349073213E+03  0.12509193682E+03 0.  0.
          5    1    3    3  502    0 -0.48262313879E+02  0.29316914726E+02  0.27573467763E+02  0.62980163183E+02  0.41800000000E+01 0. -1.
         -5    1    3    3    0  502  0.64558627000E+01 -0.80094654108E+02 -0.27654171845E+01  0.80510568947E+02  0.41800000000E+01 0. -1.
        -11    1    1    2    0    0  0.38177499805E+02 -0.13096654546E+02  0.39869241844E+02  0.56732709233E+02  0.00000000000E+00 0. -1.
         11    1    1    2    0    0  0.36289513737E+01  0.63874393928E+02  0.26232082132E+01  0.64031154207E+02  0.00000000000E+00 0.  1.
</event>
<event>
 7    1  0.6473813E-006  0.8953546E+02  0.7561462E-02  0.1303981E+00
         -1   -1    0    0    0  501 -0.00000000000E+00  0.00000000000E+00  0.15208863093E+03  0.15208863093E+03  0.00000000000E+00 0.  1.
          1   -1    0    0  501    0  0.00000000000E+00 -0.00000000000E+00 -0.76760833902E+02  0.76760833902E+02  0.00000000000E+00 0. -1.
         23    2    1    2    0    0 -0.15838247990E+02 -0.11229629017E+02  0.69005047544E+02  0.14417410749E+03  0.12509005562E+03 0.  0.
          5    1    3    3  502    0  0.21209709205E+02 -0.42186055578E+02  0.81362394993E+02  0.94163829408E+02  0.41800000000E+01 0.  1.
         -5    1    3    3    0  502 -0.37047957195E+02  0.30956426560E+02 -0.12357347448E+02  0.50010278081E+02  0.41800000000E+01 0.  1.
        -11    1    1    2    0    0 -0.26555779320E+02  0.27099500064E+02 -0.42816471517E+01  0.38182781739E+02  0.00000000000E+00 0. -1.
         11    1    1    2    0    0  0.42394027310E+02 -0.15869871047E+02  0.10604396638E+02  0.46492575608E+02  0.00000000000E+00 0.  1.
</event>
<event>
 7    1  0.6473813E-006  0.8299175E+02  0.7561462E-02  0.1320769E+00
         -2   -1    0    0    0  501 -0.00000000000E+00  0.00000000000E+00  0.27135835789E+02  0.27135835789E+02  0.00000000000E+00 0.  1.
          2   -1    0    0  501    0  0.00000000000E+00 -0.00000000000E+00 -0.58607022163E+03  0.58607022163E+03  0.00000000000E+00 0. -1.
         23    2    1    2    0    0  0.31757975329E+02 -0.53752413351E+02 -0.27137961946E+03  0.30527488704E+03  0.12509183772E+03 0.  0.
          5    1    3    3  502    0  0.37486369375E+02 -0.52876553018E+02 -0.45547411137E+02  0.79329671683E+02  0.41800000000E+01 0.  1.
         -5    1    3    3    0  502 -0.57283940466E+01 -0.87586033305E+00 -0.22583220832E+03  0.22594521536E+03  0.41800000000E+01 0.  1.
        -11    1    1    2    0    0 -0.52182658048E+02  0.23131818377E+02 -0.24547979630E+03  0.25202865158E+03  0.00000000000E+00 0. -1.
         11    1    1    2    0    0  0.20424682719E+02  0.30620594974E+02 -0.42074970076E+02  0.55902518795E+02  0.00000000000E+00 0.  1.
</event>
<event>
 7    1  0.6473813E-006  0.5930810E+02  0.7561462E-02  0.1400758E+00
          2   -1    0    0  501    0  0.00000000000E+00  0.00000000000E+00  0.87864505746E+02  0.87864505746E+02  0.00000000000E+00 0. -1.
         -2   -1    0    0    0  501 -0.00000000000E+00 -0.00000000000E+00 -0.19015699386E+03  0.19015699386E+03  0.00000000000E+00 0.  1.
         23    2    1    2    0    0  0.22992806680E+02  0.37070204544E+02 -0.11285856051E+03  0.17403018435E+03  0.12508629486E+03 0.  0.
          5    1    3    3  502    0  0.15241470379E+02  0.14480625111E+01  0.25969244004E+02  0.30434739008E+02  0.41800000000E+01 0. -1.
         -5    1    3    3    0  502  0.77513363001E+01  0.35622142033E+02 -0.13882780451E+03  0.14359544534E+03  0.41800000000E+01 0. -1.
        -11    1    1    2    0    0  0.10711516703E+02  0.52668811923E+01 -0.32633622452E+02  0.34748092637E+02  0.00000000000E+00 0.  1.
         11    1    1    2    0    0 -0.33704323383E+02 -0.42337085736E+02  0.43199694848E+02  0.69243222616E+02  0.00000000000E+00 0. -1.
</event>
<event>
 7    1  0.6473813E-006  0.2277425E+03  0.7561462E-02  0.1128239E+00
          3   -1    0    0  501    0  0.00000000000E+00  0.00000000000E+00  0.57669258061E+03  0.57669258061E+03  0.00000000000E+00 0. -1.
         -3   -1    0    0    0  501 -0.00000000000E+00 -0.00000000000E+00 -0.10569854812E+03  0.10569854812E+03  0.00000000000E+00 0.  1.
         23    2    1    2    0    0 -0.20678931857E+03 -0.27101817927E+02  0.14006163839E+03  0.28064421232E+03  0.12509028959E+03 0.  0.
          5    1    3    3  502    0 -0.18100495031E+02 -0.49729268933E+02  0.32169246832E+02  0.62072223665E+02  0.41800000000E+01 0.  1.
         -5    1    3    3    0  502 -0.18868882354E+03  0.22627451006E+02  0.10789239155E+03  0.21857198866E+03  0.41800000000E+01 0.  1.
        -11    1    1    2    0    0  0.26131764453E+02  0.17399906146E+02  0.11911555644E+03  0.12318336589E+03  0.00000000000E+00 0. -1.
         11    1    1    2    0    0  0.18065755412E+03  0.97019117811E+01  0.21181683767E+03  0.27856355052E+03  0.00000000000E+00 0.  1.
</event>
<event>
 7    1  0.6473813E-006  0.1207705E+03  0.7561462E-02  0.1241831E+00
          2   -1    0    0  501    0  0.00000000000E+00  0.00000000000E+00  0.15513373730E+03  0.15513373730E+03  0.00000000000E+00 0.  1.
         -2   -1    0    0    0  501 -0.00000000000E+00 -0.00000000000E+00 -0.11099031986E+03  0.11099031986E+03  0.00000000000E+00 0. -1.
         23    2    1    2    0    0  0.62551110527E+02  0.15596411430E+02 -0.12886546413E+02  0.14130792073E+03  0.12508387548E+03 0.  0.
          5    1    3    3  502    0  0.44354231333E+02 -0.50088339911E+02 -0.25768633337E+02  0.71816672829E+02  0.41800000000E+01 0. -1.
         -5    1    3    3    0  502  0.18196879194E+02  0.65684751342E+02  0.12882086924E+02  0.69491247900E+02  0.41800000000E+01 0. -1.
        -11    1    1    2    0    0  0.19607471985E+02  0.73132310644E+01 -0.20993065307E+01  0.21031961253E+02  0.00000000000E+00 0. -1.
         11    1    1    2    0    0 -0.82158582512E+02 -0.22909642495E+02  0.59129270387E+02  0.10378417517E+03  0.00000000000E+00 0.  1.
</event>
<event>
 7    1  0.6473813E-006  0.1541542E+03  0.7561462E-02  0.1195459E+00
         -1   -1    0    0    0  501 -0.00000000000E+00  0.00000000000E+00  0.54456988779E+02  0.54456988779E+02  0.00000000000E+00 0.  1.
          1   -1    0    0  501    0  0.00000000000E+00 -0.00000000000E+00 -0.48802269232E+03  0.48802269232E+03  0.00000000000E+00 0. -1.
         23    2    1    2    0    0  0.68511572438E+02  0.99929566049E+02 -0.23640531018E+03  0.29363042732E+03  0.12510636851E+03 0.  0.
          5    1    3    3  502    0  0.70947334765E+02  0.11888815629E+03 -0.23648627084E+03  0.27406412883E+03  0.41800000000E+01 0. -1.
         -5    1    3    3    0  502 -0.24357623267E+01 -0.18958590240E+02  0.80960664450E-01  0.19566298491E+02  0.41800000000E+01 0. -1.
        -11    1    1    2    0    0 -0.59682828491E+02 -0.10784127294E+02 -0.97699809018E+02  0.11499386984E+03  0.00000000000E+00 0.  1.
         11    1    1    2    0    0 -0.88287439473E+01 -0.89145438755E+02 -0.99460584346E+02  0.13385538394E+03  0.00000000000E+00 0. -1.
</event>
<event>
 7    1  0.6473813E-006  0.9614375E+02  0.7561462E-02  0.1288621E+00
          1   -1    0    0  501    0  0.00000000000E+00  0.00000000000E+00  0.46020898803E+02  0.46020898803E+02  0.00000000000E+00 0. -1.
         -1   -1    0    0    0  501 -0.00000000000E+00 -0.00000000000E+00 -0.37491360458E+03  0.37491360458E+03  0.00000000000E+00 0.  1.
         23    2    1    2    0    0  0.12455226240E+02 -0.43020493570E+02 -0.26312157007E+03  0.29476387528E+03  0.12508751340E+03 0.  0.
          5    1    3    3  502    0 -0.38324889783E+02 -0.55698252763E+02 -0.82933926980E+02  0.10708221693E+03  0.41800000000E+01 0.  1.
         -5    1    3    3    0  502  0.50780116023E+02  0.12677759193E+02 -0.18018764308E+03  0.18768165835E+03  0.41800000000E+01 0.  1.
        -11    1    1    2    0    0 -0.33331057057E+02  0.38049086738E+02 -0.83972912615E+02  0.98031333865E+02  0.00000000000E+00 0.  1.
         11    1    1    2    0    0  0.20875830818E+02  0.49714068314E+01  0.18201776899E+02  0.28139294243E+02  0.00000000000E+00 0. -1.
</event>
<event>
 7    1  0.6473813E-006  0.1348173E+03  0.7561462E-02  0.1220478E+00
          2   -1    0    0  501    0  0.00000000000E+00  0.00000000000E+00  0.15589001559E+02  0.15589001559E+02  0.00000000000E+00 0. -1.
         -2   -1    0    0    0  501 -0.00000000000E+00 -0.00000000000E+00 -0.19046685114E+04  0.19046685114E+04  0.00000000000E+00 0.  1.
         23    2    1    2    0    0 -0.71687569056E+02 -0.10521893635E+03 -0.12318341915E+04  0.12446979548E+04  0.12508953256E+03 0.  0.
          5    1    3    3  502    0 -0.45694006779E+01  0.28862411945E+01 -0.60632827716E+03  0.60636677176E+03  0.41800000000E+01 0. -1.
         -5    1    3    3    0  502 -0.67118168378E+02 -0.10810517754E+03 -0.62550591434E+03  0.63833118302E+03  0.41800000000E+01 0. -1.
        -11    1    1    2    0    0 -0.12373113161E+01  0.32425267407E+02 -0.49810751023E+02  0.59447790735E+02  0.00000000000E+00 0. -1.
         11    1    1    2    0    0  0.72924880372E+02  0.72793668942E+02 -0.60743456735E+03  0.61611176748E+03  0.00000000000E+00 0.  1.
</event>
<event>
 7    1  0.6473813E-006  0.1333888E+03  0.7561462E-02  0.1222512E+00
          2   -1    0    0  501    0  0.00000000000E+00  0.00000000000E+00  0.17101576653E+03  0.17101576653E+03  0.00000000000E+00 0. -1.
         -2   -1    0    0    0  501 -0.00000000000E+00 -0.00000000000E+00 -0.13207922320E+03  0.13207922320E+03  0.00000000000E+00 0.  1.
         23    2    1    2    0    0 -0.10661657424E+03 -0.38250860288E+01  0.25000115148E+02  0.16629368901E+03  0.12508740968E+03 0.  0.
          5    1    3    3  502    0 -0.75166402198E+02 -0.58439091790E+02  0.36577161737E+02  0.10208073584E+03  0.41800000000E+01 0.  1.
         -5    1    3    3    0  502 -0.31450172044E+02  0.54614005761E+02 -0.11577046590E+02  0.64212953168E+02  0.41800000000E+01 0.  1.
        -11    1    1    2    0    0  0.79844683389E+02  0.10996764480E+02 -0.29033571420E+02  0.85668258789E+02  0.00000000000E+00 0.  1.
         11    1    1    2    0    0  0.26771890853E+02 -0.71716784509E+01  0.42969999599E+02  0.51133041931E+02  0.00000000000E+00 0. -1.
</event>
<event>
 7    1  0.6473813E-006  0.2482296E+03  0.7561462E-02  0.1114429E+00
          2   -1    0    0  501    0  0.00000000000E+00  0.00000000000E+00  0.79326016465E+03  0.79326016465E+03  0.00000000000E+00 0.  1.
         -2   -1    0    0    0  501 -0.00000000000E+00 -0.00000000000E+00 -0.13451685073E+03  0.13451685073E+03  0.00000000000E+00 0. -1.
         23    2    1    2    0    0 -0.86730137503E+02 -0.21549852170E+03  0.48054281665E+02  0.26817617451E+03  0.12509003551E+03 0.  0.
          5    1    3    3  502    0  0.19301606906E+02 -0.90657400948E+02 -0.12241936227E+02  0.93587679629E+02  0.41800000000E+01 0.  1.
         -5    1    3    3    0  502 -0.10603174441E+03 -0.12484112075E+03  0.60296217892E+02  0.17458849488E+03  0.41800000000E+01 0.  1.
        -11    1    1    2    0    0  0.72645960564E+02  0.10069247239E+03  0.22553740782E+03  0.25745588343E+03  0.00000000000E+00 0. -1.
         11    1    1    2    0    0  0.14084176939E+02  0.11480604930E+03  0.38515162444E+03  0.40214495745E+03  0.00000000000E+00 0.  1.
</event>
<event>
 6    1  0.6473813E-006  0.1757463E+03  0.7561462E-02  0.1171984E+00
         -1   -1    0    0    0  501 -0.00000000000E+00  0.00000000000E+00  0.90862329169E+02  0.90862329169E+02  0.00000000000E+00 0.  1.
          1   -1    0    0  501    0  0.00000000000E+00 -0.00000000000E+00 -0.43649630852E+03  0.43649630852E+03  0.00000000000E+00 0. -1.
          5    1    1    2  502    0 -0.61520931924E+02 -0.64373731016E+02 -0.82931727700E+02  0.12175362898E+03  0.41800000000E+01 0. -1.
         -5    1    1    2    0  502  0.21561058017E+02  0.14127043366E+03 -0.38850857925E+02  0.14815220623E+03  0.41800000000E+01 0.  1.
        -11    1    1    2    0    0 -0.12085632514E+02  0.11577547263E+02 -0.73647756082E+02  0.75525453258E+02  0.00000000000E+00 0.  1.
         11    1    1    2    0    0  0.52045506421E+02 -0.88474249906E+02 -0.15020363764E+03  0.18192734923E+03  0.00000000000E+00 0. -1.
</event>
<event>
 7    1  0.6473813E-006  0.9190008E+02  0.7561462E-02  0.1298315E+00
          2   -1    0    0  501    0  0.00000000000E+00  0.00000000000E+00  0.12193230175E+03  0.12193230175E+03  0.00000000000E+00 0. -1.
         -2   -1    0    0    0  501 -0.00000000000E+00 -0.00000000000E+00 -0.11412927467E+03  0.11412927467E+03  0.00000000000E+00 0.  1.
         23    2    1    2    0    0  0.44900321194E+02  0.39378794249E+01 -0.72111578934E+01  0.13315837722E+03  0.12509039487E+03 0.  0.
          5    1    3    3  502    0 -0.21687099727E+02 -0.36594141184E+02  0.24075699850E+02  0.49056836290E+02  0.41800000000E+01 0. -1.
         -5    1    3    3    0  502  0.66587420921E+02  0.40532020609E+02 -0.31286857743E+02  0.84101540931E+02  0.41800000000E+01 0. -1.
        -11    1    1    2    0    0 -0.17520847005E+02  0.20024591449E+02 -0.33171082053E+02  0.42523934755E+02  0.00000000000E+00 0.  1.
         11    1    1    2    0    0 -0.27379474189E+02 -0.23962470874E+02  0.48185267021E+02  0.60379264447E+02  0.00000000000E+00 0. -1.
</event>
<event>
 7    1  0.6473813E-006  0.9624267E+02  0.7561462E-02  0.1288402E+00
         -2   -1    0    0    0  501 -0.00000000000E+00  0.00000000000E+00  0.39731080392E+02  0.39731080392E+02  0.00000000000E+00 0.  1.
          2   -1    0    0  501    0  0.00000000000E+00 -0.00000000000E+00 -0.41456770103E+03  0.41456770103E+03  0.00000000000E+00 0. -1.
         23    2    1    2    0    0 -0.37988643263E+02  0.56902538160E+02 -0.19377112889E+03  0.24057742408E+03  0.12509680539E+03 0.  0.
          5    1    3    3  502    0 -0.25093749491E+02  0.61011603642E+02 -0.20934037622E+03  0.21952899025E+03  0.41800000000E+01 0.  1.
         -5    1    3    3    0  502 -0.12894893772E+02 -0.41090654811E+01  0.15569247329E+02  0.21048433836E+02  0.41800000000E+01 0.  1.
        -11    1    1    2    0    0  0.66830274704E+02 -0.31925100923E+02 -0.10338652500E+03  0.12717810833E+03  0.00000000000E+00 0.  1.
         11    1    1    2    0    0 -0.28841631441E+02 -0.24977437237E+02 -0.77678966750E+02  0.86543249017E+02  0.00000000000E+00 0. -1.
</event>
<event>
 7    1  0.6473813E-006  0.1101877E+03  0.7561462E-02  0.1260223E+00
         -2   -1    0    0    0  501 -0.00000000000E+00  0.00000000000E+00  0.37586285895E+03  0.37586285895E+03  0.00000000000E+00 0. -1.
          2   -1    0    0  501    0  0.00000000000E+00 -0.00000000000E+00 -0.35214187553E+02  0.35214187553E+02  0.00000000000E+00 0.  1.
         23    2    1    2    0    0 -0.25707111518E+02  0.26510310539E+02  0.19351326079E+03  0.23336016875E+03  0.12508370841E+03 0.  0.
          5    1    3    3  502    0  0.43406359073E+02 -0.18878935791E+02  0.75255714822E+02  0.89002366474E+02  0.41800000000E+01 0.  1.
         -5    1    3    3    0  502 -0.69113470591E+02  0.45389246331E+02  0.11825754597E+03  0.14435780228E+03  0.41800000000E+01 0.  1.
        -11    1    1    2    0    0 -0.23068201634E+02  0.13720348308E+02  0.84732469478E+02  0.88881838798E+02  0.00000000000E+00 0.  1.
         11    1    1    2    0    0  0.48775313153E+02 -0.40230658848E+02  0.62402941126E+02  0.88835038952E+02  0.00000000000E+00 0. -1.
</event>
<event>
 7    1  0.6473813E-006  0.1492862E+03  0.7561462E-02  0.1201353E+00
         -2   -1    0    0    0  501 -0.00000000000E+00  0.00000000000E+00  0.28806893916E+03  0.28806893916E+03  0.00000000000E+00 0.  1.
          2   -1    0    0  501    0  0.00000000000E+00 -0.00000000000E+00 -0.12100043847E+03  0.12100043847E+03  0.00000000000E+00 0. -1.
         23    2    1    2    0    0  0.58867058436E+02  0.12264425458E+03  0.16267207706E+03  0.24620364995E+03  0.12508832417E+03 0.  0.
          5    1    3    3  502    0 -0.15662023671E+02  0.36705708575E+02  0.11675994098E+03  0.12346240013E+03  0.41800000000E+01 0.  1.
         -5    1    3    3    0  502  0.74529082106E+02  0.85938546005E+02  0.45912136078E+02  0.12274124982E+03  0.41800000000E+01 0.  1.
        -11    1    1    2    0    0 -0.31008230860E+02 -0.17005625678E+02 -0.32018610274E+02  0.47706321275E+02  0.00000000000E+00 0. -1.
         11    1    1    2    0    0 -0.27858827576E+02 -0.10563862890E+03  0.36415033903E+02  0.11515940641E+03  0.00000000000E+00 0.  1.
</event>
<event>
 6    1  0.6473813E-006  0.1810702E+03  0.7561462E-02  0.1166771E+00
         -2   -1    0    0    0  501 -0.00000000000E+00  0.00000000000E+00  0.11331285959E+03  0.11331285959E+03  0.00000000000E+00 0.  1.
          2   -1    0    0  501    0  0.00000000000E+00 -0.00000000000E+00 -0.29019650020E+03  0.29019650020E+03  0.00000000000E+00 0. -1.
          5    1    1    2  502    0  0.90823426136E+02 -0.11646960971E+03 -0.81039719903E+02  0.16851994933E+03  0.41800000000E+01 0. -1.
         -5    1    1    2    0  502 -0.88768229726E+02  0.55660938357E+02 -0.42501625064E+02  0.11314503613E+03  0.41800000000E+01 0.  1.
        -11    1    1    2    0    0 -0.58540924418E+01 -0.23963999900E+02 -0.13017937526E+02  0.27892837557E+02  0.00000000000E+00 0.  1.
         11    1    1    2    0    0  0.37988960311E+01  0.84772671256E+02 -0.40324358125E+02  0.93951536769E+02  0.00000000000E+00 0. -1.
</event>
<event>
 7    1  0.6473813E-006  0.1059937E+03  0.7561462E-02  0.1268174E+00
          1   -1    0    0  501    0  0.00000000000E+00  0.00000000000E+00  0.12287708881E+03  0.12287708881E+03  0.00000000000E+00 0. -1.
         -1   -1    0    0    0  501 -0.00000000000E+00 -0.00000000000E+00 -0.11930217051E+03  0.11930217051E+03  0.00000000000E+00 0.  1.
         23    2    1    2    0    0 -0.35080441513E+02 -0.30616962710E+02 -0.29683440404E+02  0.12990962118E+03  0.11758982634E+03 0.  0.
          5    1    3    3  502    0 -0.34830820268E+02 -0.68418158293E+02  0.68254345150E+01  0.77189956478E+02  0.41800000000E+01 0. -1.
         -5    1    3    3    0  502 -0.24962124495E+00  0.37801195583E+02 -0.36508874919E+02  0.52719664701E+02  0.41800000000E+01 0.  1.
        -11    1    1    2    0    0  0.63530152410E+02  0.23535640013E+02 -0.24484009086E+00  0.67750029983E+02  0.00000000000E+00 0.  1.
         11    1    1    2    0    0 -0.28449710897E+02  0.70813226969E+01  0.33503198789E+02  0.44519608156E+02  0.00000000000E+00 0. -1.
</event>
<event>
 7    1  0.6473813E-006  0.1764895E+03  0.7561462E-02  0.1171244E+00
          1   -1    0    0  501    0  0.00000000000E+00  0.00000000000E+00  0.87011789421E+03  0.87011789421E+03  0.00000000000E+00 0. -1.
         -1   -1    0    0    0  501 -0.00000000000E+00 -0.00000000000E+00 -0.45397712363E+02  0.45397712363E+02  0.00000000000E+00 0.  1.
         23    2    1    2    0    0  0.37239573706E+02 -0.16047233172E+03  0.37014865745E+03  0.42402094721E+03  0.12508229275E+03 0.  0.
          5    1    3    3  502    0  0.47938345286E+02 -0.30144022740E+02  0.20832115542E+03  0.21592110422E+03  0.41800000000E+01 0. -1.
         -5    1    3    3    0  502 -0.10698771579E+02 -0.13032830898E+03  0.16182750204E+03  0.20809984299E+03  0.41800000000E+01 0. -1.
        -11    1    1    2    0    0 -0.37877052141E+01  0.44551175123E+02  0.40931964575E+02  0.60618311092E+02  0.00000000000E+00 0.  1.
         11    1    1    2    0    0 -0.33451868492E+02  0.11592115660E+03  0.41363955982E+03  0.43087634827E+03  0.00000000000E+00 0. -1.
</event>
<event>
 7    1  0.6473813E-006  0.1087752E+03  0.7561462E-02  0.1262855E+00
          1   -1    0    0  501    0  0.00000000000E+00  0.00000000000E+00  0.34380280206E+03  0.34380280206E+03  0.00000000000E+00 0. -1.
         -1   -1    0    0    0  501 -0.00000000000E+00 -0.00000000000E+00 -0.62195146703E+02  0.62195146703E+02  0.00000000000E+00 0.  1.
         23    2    1    2    0    0  0.23419692971E+02  0.40454069759E+02  0.34302401212E+02  0.13786866446E+03  0.12508437205E+03 0.  0.
          5    1    3    3  502    0 -0.38602494482E+02  0.56636314175E+02  0.24405332268E+02  0.72876040690E+02  0.41800000000E+01 0. -1.
         -5    1    3    3    0  502  0.62022187453E+02 -0.16182244416E+02  0.98970689436E+01  0.64992623770E+02  0.41800000000E+01 0. -1.
        -11    1    1    2    0    0  0.12363837184E+02 -0.46712556867E+02  0.58570985617E+02  0.75930809261E+02  0.00000000000E+00 0. -1.
         11    1    1    2    0    0 -0.35783530154E+02  0.62584871077E+01  0.18873426853E+03  0.19219847505E+03  0.00000000000E+00 0.  1.
</event>
<event>
 7    1  0.6473813E-006  0.1278832E+03  0.7561462E-02  0.1230631E+00
         -3   -1    0    0    0  501 -0.00000000000E+00  0.00000000000E+00  0.55127418992E+03  0.55127418992E+03  0.00000000000E+00 0.  1.
          3   -1    0    0  501    0  0.00000000000E+00 -0.00000000000E+00 -0.41135251410E+02  0.41135251410E+02  0.00000000000E+00 0. -1.
         23    2    1    2    0    0  0.62830236643E+02 -0.41032042825E+02  0.41846674240E+03  0.44299671368E+03  0.12450062917E+03 0.  0.
          5    1    3    3  502    0 -0.23408680767E+02 -0.45718192311E+02  0.93917479088E+02  0.10712648936E+03  0.41800000000E+01 0. -1.
         -5    1    3    3    0  502  0.86238917410E+02  0.46861494862E+01  0.32454926331E+03  0.33587022432E+03  0.41800000000E+01 0.  1.
        -11    1    1    2    0    0 -0.86332116058E+02  0.27292779672E+02  0.66561311784E+02  0.11237676945E+03  0.00000000000E+00 0. -1.
         11    1    1    2    0    0  0.23501879416E+02  0.13739263153E+02  0.25110884326E+02  0.37035958198E+02  0.00000000000E+00 0.  1.
</event>
<event>
 7    1  0.6473813E-006  0.8041652E+02  0.7561462E-02  0.1327874E+00
          1   -1    0    0  501    0  0.00000000000E+00  0.00000000000E+00  0.59547168478E+03  0.59547168478E+03  0.00000000000E+00 0. -1.
         -1   -1    0    0    0  501 -0.00000000000E+00 -0.00000000000E+00 -0.25478923553E+02  0.25478923553E+02  0.00000000000E+00 0.  1.
         23    2    1    2    0    0 -0.21626484359E+02  0.49274434566E+02  0.21701976231E+03  0.25254062515E+03  0.11740321713E+03 0.  0.
          5    1    3    3  502    0 -0.17739643808E+02  0.10204159467E+02  0.21166621929E+03  0.21269433613E+03  0.41800000000E+01 0. -1.
         -5    1    3    3    0  502 -0.38868405502E+01  0.39070275098E+02  0.53535430150E+01  0.39846289018E+02  0.41800000000E+01 0.  1.
        -11    1    1    2    0    0 -0.25774554875E+02  0.71694236864E+01  0.15223203909E+03  0.15456494441E+03  0.00000000000E+00 0.  1.
         11    1    1    2    0    0  0.47401039233E+02 -0.56443858252E+02  0.20074095983E+03  0.21384503877E+03  0.00000000000E+00 0. -1.
</event>
<event>
 7    1  0.6473813E-006  0.8581943E+02  0.7561462E-02  0.1313303E+00
         -4   -1    0    0    0  501 -0.00000000000E+00  0.00000000000E+00  0.77081857802E+02  0.77081857802E+02  0.00000000000E+00 0.  1.
          4   -1    0    0  501    0  0.00000000000E+00 -0.00000000000E+00 -0.16705013048E+03  0.16705013048E+03  0.00000000000E+00 0. -1.
         23    2    1    2    0    0 -0.11718275488E+01  0.56592791415E+01 -0.15628765862E+02  0.12619900126E+03  0.12509408051E+03 0.  0.
          5    1    3    3  502    0  0.48265932990E+02  0.38463486063E+02  0.76445620532E+01  0.62329381326E+02  0.41800000000E+01 0. -1.
         -5    1    3    3    0  502 -0.49437760538E+02 -0.32804206922E+02 -0.23273327915E+02  0.63869619938E+02  0.41800000000E+01 0. -1.
        -11    1    1    2    0    0  0.23192393467E+02  0.78293042479E+01 -0.86133210644E+02  0.89543928301E+02  0.00000000000E+00 0. -1.
         11    1    1    2    0    0 -0.22020565918E+02 -0.13488583389E+02  0.11793703824E+02  0.28389058721E+02  0.00000000000E+00 0.  1.
</event>
<event>
 7    1  0.6473813E-006  0.1025157E+03  0.7561462E-02  0.1275093E+00
         -1   -1    0    0    0  501 -0.00000000000E+00  0.00000000000E+00  0.82404122139E+02  0.82404122139E+02  0.00000000000E+00 0.  1.
          1   -1    0    0  501    0  0.00000000000E+00 -0.00000000000E+00 -0.18364006753E+03  0.18364006753E+03  0.00000000000E+00 0. -1.
         23    2    1    2    0    0 -0.44528044762E+02  0.10253846952E+02 -0.17805547662E+02  0.13435472785E+03  0.12508503996E+03 0.  0.
          5    1    3    3  502    0 -0.83467805092E+01  0.50278514537E+02 -0.49889741608E+02  0.71442679727E+02  0.41800000000E+01 0.  1.
         -5    1    3    3    0  502 -0.36181264253E+02 -0.40024667584E+02  0.32084193946E+02  0.62912048126E+02  0.41800000000E+01 0.  1.
        -11    1    1    2    0    0  0.45346436148E+02  0.33272453827E+02 -0.60043215082E+02  0.82271156138E+02  0.00000000000E+00 0. -1.
         11    1    1    2    0    0 -0.81839138540E+00 -0.43526300779E+02 -0.23387182650E+02  0.49418305680E+02  0.00000000000E+00 0.  1.
</event>
<event>
 7    1  0.6473813E-006  0.9124128E+02  0.7561462E-02  0.1299873E+00
          2   -1    0    0  501    0  0.00000000000E+00  0.00000000000E+00  0.21203038430E+03  0.21203038430E+03  0.00000000000E+00 0. -1.
         -2   -1    0    0    0  501 -0.00000000000E+00 -0.00000000000E+00 -0.59208870323E+02  0.59208870323E+02  0.00000000000E+00 0.  1.
         23    2    1    2    0    0 -0.54665287662E+01 -0.29435278432E+02  0.67058231459E+02  0.14505973966E+03  0.12509677498E+03 0.  0.
          5    1    3    3  502    0 -0.91001828789E+01  0.35617442613E+02  0.70566375929E+02  0.79677483385E+02  0.41800000000E+01 0.  1.
         -5    1    3    3    0  502  0.36336541127E+01 -0.65052721045E+02 -0.35081444699E+01  0.65382256271E+02  0.41800000000E+01 0.  1.
        -11    1    1    2    0    0  0.26546791664E+01 -0.25274742509E+02  0.12251587180E+01  0.25443288786E+02  0.00000000000E+00 0.  1.
         11    1    1    2    0    0  0.28118495998E+01  0.54710020941E+02  0.84538123802E+02  0.10073622618E+03  0.00000000000E+00 0. -1.
</event>
<event>
 6    1  0.6473813E-006  0.7349047E+02  0.7561462E-02  0.1348610E+00
         -2   -1    0    0    0  501 -0.00000000000E+00  0.00000000000E+00  0.22022529127E+03  0.22022529127E+03  0.00000000000E+00 0.  1.
          2   -1    0    0  501    0  0.00000000000E+00 -0.00000000000E+00 -0.67880631692E+02  0.67880631692E+02  0.00000000000E+00 0. -1.
          5    1    1    2  502    0  0.68997024306E+01  0.34012961529E+02 -0.32892021169E+02  0.47998384371E+02  0.41800000000E+01 0. -1.
         -5    1    1    2    0  502  0.21129501123E+02 -0.63071668427E+01  0.11983629738E+03  0.12191983736E+03  0.41800000000E+01 0.  1.
        -11    1    1    2    0    0 -0.45838250680E+02  0.10855237924E+02  0.96229058286E+01  0.48078911514E+02  0.00000000000E+00 0. -1.
         11    1    1    2    0    0  0.17809047126E+02 -0.38561032610E+02  0.55777477538E+02  0.70108789720E+02  0.00000000000E+00 0.  1.
</event>
<event>
 7    1  0.6473813E-006  0.1942102E+03  0.7561462E-02  0.1154718E+00
          2   -1    0    0  501    0  0.00000000000E+00  0.00000000000E+00  0.34400357493E+02  0.34400357493E+02  0.00000000000E+00 0. -1.
         -2   -1    0    0    0  501 -0.00000000000E+00 -0.00000000000E+00 -0.12090776736E+04  0.12090776736E+04  0.00000000000E+00 0.  1.
         23    2    1    2    0    0  0.67380312763E+02  0.15573394672E+03 -0.54941678141E+03  0.58847168296E+03  0.12508778212E+03 0.  0.
          5    1    3    3  502    0 -0.23665099998E+02  0.11327693242E+02 -0.23303068047E+02  0.35339198810E+02  0.41800000000E+01 0. -1.
         -5    1    3    3    0  502  0.91045412761E+02  0.14440625348E+03 -0.52611371337E+03  0.55313248415E+03  0.41800000000E+01 0. -1.
        -11    1    1    2    0    0  0.18362927765E+02 -0.59164827615E+02 -0.26959711005E+03  0.27662298475E+03  0.00000000000E+00 0.  1.
         11    1    1    2    0    0 -0.85743240527E+02 -0.96569119108E+02 -0.35566342469E+03  0.37838336343E+03  0.00000000000E+00 0. -1.
</event>
<event>
 7    1  0.6473813E-006  0.8478039E+02  0.7561462E-02  0.1316008E+00
         -2   -1    0    0    0  501 -0.00000000000E+00  0.00000000000E+00  0.55314688294E+02  0.55314688294E+02  0.00000000000E+00 0.  1.
          2   -1    0    0  501    0  0.00000000000E+00 -0.00000000000E+00 -0.23127652168E+03  0.23127652168E+03  0.00000000000E+00 0. -1.
         23    2    1    2    0    0  0.23352217715E+02 -0.24858189082E+02 -0.99025631917E+02  0.16313146059E+03  0.12507014840E+03 0.  0.
          5    1    3    3  502    0 -0.38629122473E+02  0.25604700768E+02 -0.19975782558E+02  0.50639056994E+02  0.41800000000E+01 0. -1.
         -5    1    3    3    0  502  0.61981340187E+02 -0.50462889850E+02 -0.79049849358E+02  0.11249240360E+03  0.41800000000E+01 0. -1.
        -11    1    1    2    0    0  0.38797770266E+01  0.12499251024E+02  0.18943339187E+02  0.23024639965E+02  0.00000000000E+00 0.  1.
         11    1    1    2    0    0 -0.27231994741E+02  0.12358938058E+02 -0.95879540654E+02  0.10043510942E+03  0.00000000000E+00 0. -1.
</event>
<event>
 7    1  0.6473813E-006  0.3417243E+03  0.7561462E-02  0.1066064E+00
         -2   -1    0    0    0  501 -0.00000000000E+00  0.00000000000E+00  0.13939438637E+03  0.13939438637E+03  0.00000000000E+00 0. -1.
          2   -1    0    0  501    0  0.00000000000E+00 -0.00000000000E+00 -0.95153196221E+03  0.95153196221E+03  0.00000000000E+00 0.  1.
         23    2    1    2    0    0 -0.29963809948E+03  0.15368826062E+03 -0.28494114105E+03  0.45852180799E+03  0.12509085670E+03 0.  0.
          5    1    3    3  502    0 -0.18275983685E+03  0.67625919639E+02 -0.23421509725E+03  0.30471069419E+03  0.41800000000E+01 0.  1.
         -5    1    3    3    0  502 -0.11687826263E+03  0.86062340977E+02 -0.50726043800E+02  0.15381111380E+03  0.41800000000E+01 0.  1.
        -11    1    1    2    0    0  0.32699438662E+02  0.45468727034E+01 -0.93249248666E+02  0.98920926588E+02  0.00000000000E+00 0. -1.
         11    1    1    2    0    0  0.26693866082E+03 -0.15823513332E+03 -0.43394718612E+03  0.53348361399E+03  0.00000000000E+00 0.  1.
</event>
<event>
 7    1  0.6473813E-006  0.1084601E+03  0.7561462E-02  0.1263448E+00
         -2   -1    0    0    0  501 -0.00000000000E+00  0.00000000000E+00  0.15065320090E+03  0.15065320090E+03  0.00000000000E+00 0.  1.
          2   -1    0    0  501    0  0.00000000000E+00 -0.00000000000E+00 -0.12384013577E+03  0.12384013577E+03  0.00000000000E+00 0. -1.
         23    2    1    2    0    0  0.81913206733E+01 -0.38917688946E+02  0.86268864040E+02  0.15707006707E+03  0.12508798831E+03 0.  0.
          5    1    3    3  502    0  0.52627760069E+02 -0.49901718023E+02  0.83991849473E+02  0.11104938437E+03  0.41800000000E+01 0.  1.
         -5    1    3    3    0  502 -0.44436439396E+02  0.10984029076E+02  0.22770145672E+01  0.46020682701E+02  0.41800000000E+01 0.  1.
        -11    1    1    2    0    0 -0.85909294712E+01 -0.29074547449E+02 -0.32041950400E+02  0.44111449352E+02  0.00000000000E+00 0. -1.
         11    1    1    2    0    0  0.39960879788E+00  0.67992236395E+02 -0.27413848510E+02  0.73311820243E+02  0.00000000000E+00 0.  1.
</event>
<event>
 7    1  0.6473813E-006  0.9367186E+02  0.7561462E-02  0.1294196E+00
         -1   -1    0    0    0  501 -0.00000000000E+00  0.00000000000E+00  0.14795477958E+03  0.14795477958E+03  0.00000000000E+00 0.  1.
          1   -1    0    0  501    0  0.00000000000E+00 -0.00000000000E+00 -0.12424771517E+03  0.12424771517E+03  0.00000000000E+00 0. -1.
         23    2    1    2    0    0  0.44707709105E+01  0.19922820800E+01  0.94534875428E+02  0.15687016248E+03  0.12508976066E+03 0.  0.
          5    1    3    3  502    0 -0.54266442344E+02 -0.22196173206E+02  0.61791205407E+02  0.85282720027E+02  0.41800000000E+01 0. -1.
         -5    1    3    3    0  502  0.58737213254E+02  0.24188455286E+02  0.32743670021E+02  0.71587442449E+02  0.41800000000E+01 0. -1.
        -11    1    1    2    0    0  0.19086949290E+02  0.23446416927E+02  0.61989184047E+01  0.30862156265E+02  0.00000000000E+00 0.  1.
         11    1    1    2    0    0 -0.23557720201E+02 -0.25438699007E+02 -0.77026729425E+02  0.84470176004E+02  0.00000000000E+00 0. -1.
</event>
<event>
 7    1  0.6473813E-006  0.1146311E+03  0.7561462E-02  0.1252226E+00
          1   -1    0    0  501    0  0.00000000000E+00  0.00000000000E+00  0.39246680622E+03  0.39246680622E+03  0.00000000000E+00 0. -1.
         -1   -1    0    0    0  501 -0.00000000000E+00 -0.00000000000E+00 -0.41763097287E+02  0.41763097287E+02  0.00000000000E+00 0.  1.
         23    2    1    2    0    0  0.57984522688E+02  0.32259593516E+02  0.14813949244E+03  0.20492860140E+03  0.12509011234E+03 0.  0.
          5    1    3    3  502    0 -0.37170055274E+02 -0.75848380160E+01  0.44776816562E+02  0.58835180617E+02  0.41800000000E+01 0.  1.
         -5    1    3    3    0  502  0.95154577962E+02  0.39844431532E+02  0.10336267588E+03  0.14609342078E+03  0.41800000000E+01 0.  1.
        -11    1    1    2    0    0 -0.40337388069E+02  0.10425386550E+02  0.31832136913E+02  0.52431655527E+02  0.00000000000E+00 0.  1.
         11    1    1    2    0    0 -0.17647134619E+02 -0.42684980066E+02  0.17073207958E+03  0.17686964658E+03  0.00000000000E+00 0. -1.
</event>
<event>
 6    1  0.6473813E-006  0.1107091E+03  0.7561462E-02  0.1259262E+00
         -2   -1    0    0    0  501 -0.00000000000E+00  0.00000000000E+00  0.24872156552E+02  0.24872156552E+02  0.00000000000E+00 0.  1.
          2   -1    0    0  501    0  0.00000000000E+00 -0.00000000000E+00 -0.62158879087E+03  0.62158879087E+03  0.00000000000E+00 0. -1.
          5    1    1    2  502    0  0.34125948231E+02  0.52109891056E+02 -0.31177521389E+03  0.31796427076E+03  0.41800000000E+01 0. -1.
         -5    1    1    2    0  502  0.77908070007E+01 -0.60257609731E+02 -0.88650461582E+02  0.10755488340E+03  0.41800000000E+01 0.  1.
        -11    1    1    2    0    0  0.65082852571E+01  0.39738007264E+02 -0.54065400012E+02  0.67413162489E+02  0.00000000000E+00 0.  1.
         11    1    1    2    0    0 -0.48425040489E+02 -0.31590288589E+02 -0.14222555884E+03  0.15352863077E+03  0.00000000000E+00 0. -1.
</event>
<event>
 7    1  0.6473813E-006  0.1470126E+03  0.7561462E-02  0.1204193E+00
          1   -1    0    0  501    0  0.00000000000E+00  0.00000000000E+00  0.98031659774E+03  0.98031659774E+03  0.00000000000E+00 0. -1.
         -1   -1    0    0    0  501 -0.00000000000E+00 -0.00000000000E+00 -0.27217386963E+02  0.27217386963E+02  0.00000000000E+00 0.  1.
         23    2    1    2    0    0 -0.12093218135E+03  0.13443977047E+02  0.50940976802E+03  0.53847127972E+03  0.12509066443E+03 0.  0.
          5    1    3    3  502    0 -0.14228456105E+03 -0.53808977037E+01  0.45696987906E+03  0.47865728151E+03  0.41800000000E+01 0. -1.
         -5    1    3    3    0  502  0.21352379698E+02  0.18824874750E+02  0.52439888953E+02  0.59813998208E+02  0.41800000000E+01 0. -1.
        -11    1    1    2    0    0  0.88843494781E+02 -0.24182559449E+01  0.41565089080E+03  0.42504667691E+03  0.00000000000E+00 0. -1.
         11    1    1    2    0    0  0.32088686568E+02 -0.11025721102E+02  0.28038551953E+02  0.44016028070E+02  0.00000000000E+00 0.  1.
</event>
<event>
 7    1  0.6473813E-006  0.3555161E+03  0.7561462E-02  0.1060374E+00
          2   -1    0    0  501    0  0.00000000000E+00  0.00000000000E+00  0.44410985879E+03  0.44410985879E+03  0.00000000000E+00 0.  1.
         -2   -1    0    0    0  501 -0.00000000000E+00 -0.00000000000E+00 -0.33579088416E+03  0.33579088416E+03  0.00000000000E+00 0. -1.
         23    2    1    2    0    0  0.25423301802E+03 -0.24362812657E+03 -0.57404285486E+02  0.37806561485E+03  0.12509702488E+03 0.  0.
          5    1    3    3  502    0  0.90461866762E+01 -0.94202145860E+01 -0.35735274635E+02  0.38276052428E+02  0.41800000000E+01 0.  1.
         -5    1    3    3    0  502  0.24518683135E+03 -0.23420791199E+03 -0.21669010851E+02  0.33978956243E+03  0.41800000000E+01 0.  1.
        -11    1    1    2    0    0 -0.24330968374E+03  0.20525122231E+03  0.17139967831E+03  0.36153217863E+03  0.00000000000E+00 0.  1.
         11    1    1    2    0    0 -0.10923334279E+02  0.38376904259E+02 -0.56764181855E+01  0.40302949467E+02  0.00000000000E+00 0. -1.
</event>
<event>
 7    1  0.6473813E-006  0.8346436E+02  0.7561462E-02  0.1319498E+00
         -1   -1    0    0    0  501 -0.00000000000E+00  0.00000000000E+00  0.91249705125E+02  0.91249705125E+02  0.00000000000E+00 0.  1.
          1   -1    0    0  501    0  0.00000000000E+00 -0.00000000000E+00 -0.13979465482E+03  0.13979465482E+03  0.00000000000E+00 0. -1.
         23    2    1    2    0    0 -0.24931722841E+02 -0.13500655462E+02 -0.29258881377E+02  0.13155530217E+03  0.12508739700E+03 0.  0.
          5    1    3    3  502    0  0.21941707871E+01  0.27701405074E+02  0.38483412040E+02  0.47651103143E+02  0.41800000000E+01 0. -1.
         -5    1    3    3    0  502 -0.27125893628E+02 -0.41202060535E+02 -0.67742293417E+02  0.83904199030E+02  0.41800000000E+01 0. -1.
        -11    1    1    2    0    0 -0.16880963908E+02 -0.26523733132E+02 -0.26553897211E+02  0.41153187225E+02  0.00000000000E+00 0. -1.
         11    1    1    2    0    0  0.41812686749E+02  0.40024388594E+02  0.72678288940E+01  0.58335870545E+02  0.00000000000E+00 0.  1.
</event>
<event>
 7    1  0.6473813E-006  0.1023708E+03  0.7561462E-02  0.1275388E+00
          1   -1    0    0  501    0  0.00000000000E+00  0.00000000000E+00  0.12434727928E+03  0.12434727928E+03  0.00000000000E+00 0. -1.
         -1   -1    0    0    0  501 -0.00000000000E+00 -0.00000000000E+00 -0.15626624917E+03  0.15626624917E+03  0.00000000000E+00 0.  1.
         23    2    1    2    0    0 -0.25025178584E+02  0.61407830441E+02 -0.73027169860E+02  0.15931823705E+03  0.12510856052E+03 0.  0.
          5    1    3    3  502    0  0.35960332452E+02  0.26523656479E+02  0.14352708581E+02  0.47118175969E+02  0.41800000000E+01 0. -1.
         -5    1    3    3    0  502 -0.60985511036E+02  0.34884173962E+02 -0.87379878440E+02  0.11220006108E+03  0.41800000000E+01 0. -1.
        -11    1    1    2    0    0 -0.16885883260E+02 -0.37747494828E+02  0.57169600071E+02  0.70557562256E+02  0.00000000000E+00 0. -1.
         11    1    1    2    0    0  0.41911061845E+02 -0.23660335613E+02 -0.16061400103E+02  0.50737729152E+02  0.00000000000E+00 0.  1.
</event>
<event>
 7    1  0.6473813E-006  0.9343150E+02  0.7561462E-02  0.1294748E+00
          2   -1    0    0  501    0  0.00000000000E+00  0.00000000000E+00  0.14788376899E+03  0.14788376899E+03  0.00000000000E+00 0. -1.
         -2   -1    0    0    0  501 -0.00000000000E+00 -0.00000000000E+00 -0.79971411408E+02  0.79971411408E+02  0.00000000000E+00 0.  1.
         23    2    1    2    0    0 -0.10606160231E+02 -0.14645349574E+02 -0.43910355412E+01  0.11453751773E+03  0.11301586117E+03 0.  0.
          5    1    3    3  502    0 -0.51610448382E+02  0.18962878545E+02  0.16254940869E+02  0.57488474040E+02  0.41800000000E+01 0. -1.
         -5    1    3    3    0  502  0.41004288151E+02 -0.33608228119E+02 -0.20645976410E+02  0.57049043690E+02  0.41800000000E+01 0.  1.
        -11    1    1    2    0    0 -0.30357705376E+02  0.21235493708E+02  0.98438531287E+01  0.38333248143E+02  0.00000000000E+00 0. -1.
         11    1    1    2    0    0  0.40963865607E+02 -0.65901441346E+01  0.62459539994E+02  0.74984414524E+02  0.00000000000E+00 0.  1.
</event>
<event>
 7    1  0.6473813E-006  0.3000747E+03  0.7561462E-02  0.1085203E+00
          3   -1    0    0  501    0  0.00000000000E+00  0.00000000000E+00  0.16902618288E+03  0.16902618288E+03  0.00000000000E+00 0. -1.
         -3   -1    0    0    0  501 -0.00000000000E+00 -0.00000000000E+00 -0.58468981841E+03  0.58468981841E+03  0.00000000000E+00 0.  1.
         23    2    1    2    0    0  0.63542053449E+02  0.27435541037E+03 -0.31813911524E+03  0.44290970240E+03  0.12509206240E+03 0.  0.
          5    1    3    3  502    0  0.87453931213E+02  0.10388632768E+03 -0.14595463241E+03  0.19940106892E+03  0.41800000000E+01 0. -1.
         -5    1    3    3    0  502 -0.23911877764E+02  0.17046908269E+03 -0.17218448283E+03  0.24350863348E+03  0.41800000000E+01 0. -1.
        -11    1    1    2    0    0 -0.30963774397E+02 -0.24873419018E+03 -0.67366190686E+02  0.25954894786E+03  0.00000000000E+00 0. -1.
         11    1    1    2    0    0 -0.32578279052E+02 -0.25621220198E+02 -0.30158329612E+02  0.51257351038E+02  0.00000000000E+00 0.  1.
</event>
<event>
 7    1  0.6473813E-006  0.9653502E+02  0.7561462E-02  0.1287756E+00
         -2   -1    0    0    0  501 -0.00000000000E+00  0.00000000000E+00  0.47526409947E+02  0.47526409947E+02  0.00000000000E+00 0.  1.
          2   -1    0    0  501    0  0.00000000000E+00 -0.00000000000E+00 -0.38083367321E+03  0.38083367321E+03  0.00000000000E+00 0. -1.
         23    2    1    2    0    0  0.33717363721E+02 -0.60803989038E+02 -0.12075027584E+03  0.18723731618E+03  0.12507276984E+03 0.  0.
          5    1    3    3  502    0 -0.56155708925E+01  0.49244781317E+01 -0.10934769553E+03  0.10968215917E+03  0.41800000000E+01 0.  1.
         -5    1    3    3    0  502  0.39332934613E+02 -0.65728467169E+02 -0.11402580307E+02  0.77555157013E+02  0.41800000000E+01 0.  1.
        -11    1    1    2    0    0 -0.28514454669E+02  0.81559788036E+02 -0.13192623860E+03  0.15770100057E+03  0.00000000000E+00 0.  1.
         11    1    1    2    0    0 -0.52029090520E+01 -0.20755798998E+02 -0.80630748829E+02  0.83421766412E+02  0.00000000000E+00 0. -1.
</event>
<event>
 7    1  0.6473813E-006  0.8635929E+02  0.7561462E-02  0.1311916E+00
         -1   -1    0    0    0  501 -0.00000000000E+00  0.00000000000E+00  0.15410291234E+03  0.15410291234E+03  0.00000000000E+00 0.  1.
          1   -1    0    0  501    0  0.00000000000E+00 -0.00000000000E+00 -0.80099436339E+02  0.80099436339E+02  0.00000000000E+00 0. -1.
         23    2    1    2    0    0 -0.10437793758E+02  0.22846943436E+02  0.49358009658E+02  0.13680126372E+03  0.12508973689E+03 0.  0.
          5    1    3    3  502    0  0.30299306482E+02  0.55447083980E+02 -0.21569778070E+01  0.63360492804E+02  0.41800000000E+01 0. -1.
         -5    1    3    3    0  502 -0.40737100239E+02 -0.32600140543E+02  0.51514987465E+02  0.73440770917E+02  0.41800000000E+01 0. -1.
        -11    1    1    2    0    0 -0.19062854872E+01  0.16091453603E+02  0.47782577285E+02  0.50455361414E+02  0.00000000000E+00 0.  1.
         11    1    1    2    0    0  0.12344079245E+02 -0.38938397039E+02 -0.23137110941E+02  0.46945723544E+02  0.00000000000E+00 0. -1.
</event>
<event>
 7    1  0.6473813E-006  0.2101818E+03  0.7561462E-02  0.1141422E+00
          2   -1    0    0  501    0  0.00000000000E+00  0.00000000000E+00  0.96497755849E+03  0.96497755849E+03  0.00000000000E+00 0.  1.
         -2   -1    0    0    0  501 -0.00000000000E+00 -0.00000000000E+00 -0.87023090285E+02  0.87023090285E+02  0.00000000000E+00 0. -1.
         23    2    1    2    0    0 -0.17743504473E+03  0.43669393315E+02  0.91477929949E+02  0.23959401490E+03  0.12508744659E+03 0.  0.
          5    1    3    3  502    0 -0.44360069388E+01 -0.29082461766E+02  0.29591082767E+02  0.41935334972E+02  0.41800000000E+01 0. -1.
         -5    1    3    3    0  502 -0.17299903780E+03  0.72751855081E+02  0.61886847182E+02  0.19765867993E+03  0.41800000000E+01 0. -1.
        -11    1    1    2    0    0  0.57852309400E+01 -0.30202490840E+02  0.97050429359E+02  0.10180591922E+03  0.00000000000E+00 0. -1.
         11    1    1    2    0    0  0.17164981379E+03 -0.13466902475E+02  0.68942610889E+03  0.71060071465E+03  0.00000000000E+00 0.  1.
</event>
<event>
 7    1  0.6473813E-006  0.1260427E+03  0.7561462E-02  0.1233449E+00
         -1   -1    0    0    0  501 -0.00000000000E+00  0.00000000000E+00  0.29297967029E+02  0.29297967029E+02  0.00000000000E+00 0.  1.
          1   -1    0    0  501    0  0.00000000000E+00 -0.00000000000E+00 -0.55206393531E+03  0.55206393531E+03  0.00000000000E+00 0. -1.
         23    2    1    2    0    0 -0.35688447719E+02  0.55848644519E+02 -0.28666261334E+03  0.31968458735E+03  0.12502017878E+03 0.  0.
          5    1    3    3  502    0 -0.82696793839E+02  0.34707105632E+02 -0.18341739095E+03  0.20421252311E+03  0.41800000000E+01 0. -1.
         -5    1    3    3    0  502  0.47008346121E+02  0.21141538887E+02 -0.10324522239E+03  0.11547206423E+03  0.41800000000E+01 0. -1.
        -11    1    1    2    0    0  0.65382685175E+02 -0.42868260491E+02 -0.14129669411E+03  0.16148479509E+03  0.00000000000E+00 0.  1.
         11    1    1    2    0    0 -0.29694237457E+02 -0.12980384028E+02 -0.94806660829E+02  0.10019251991E+03  0.00000000000E+00 0. -1.
</event>
<event>
 7    1  0.6473813E-006  0.1097998E+03  0.7561462E-02  0.1260941E+00
          1   -1    0    0  501    0  0.00000000000E+00  0.00000000000E+00  0.71997803405E+03  0.71997803405E+03  0.00000000000E+00 0. -1.
         -1   -1    0    0    0  501 -0.00000000000E+00 -0.00000000000E+00 -0.20389679725E+02  0.20389679725E+02  0.00000000000E+00 0.  1.
         23    2    1    2    0    0  0.54678027457E+01  0.52565375460E+02  0.35828975268E+03  0.38316055851E+03  0.12508977238E+03 0.  0.
          5    1    3    3  502    0  0.41657508151E+02 -0.15122962324E+02  0.57574251765E+02  0.72775812198E+02  0.41800000000E+01 0. -1.
         -5    1    3    3    0  502 -0.36189705405E+02  0.67688337785E+02  0.30071550092E+03  0.31038474631E+03  0.41800000000E+01 0. -1.
        -11    1    1    2    0    0  0.32584432879E+02 -0.50509980081E+02  0.26727248727E+03  0.27394814438E+03  0.00000000000E+00 0. -1.
         11    1    1    2    0    0 -0.38052235624E+02 -0.20553953798E+01  0.74026114372E+02  0.83259010894E+02  0.00000000000E+00 0.  1.
</event>
<event>
 6    1  0.6473813E-006  0.1858489E+03  0.7561462E-02  0.1162260E+00
         -2   -1    0    0    0  501 -0.00000000000E+00  0.00000000000E+00  0.11416671915E+03  0.11416671915E+03  0.00000000000E+00 0.  1.
          2   -1    0    0  501    0  0.00000000000E+00 -0.00000000000E+00 -0.50685982219E+03  0.50685982219E+03  0.00000000000E+00 0. -1.
          5    1    1    2  502    0 -0.30183497836E+02 -0.15620161178E+03 -0.26495636751E+03  0.30907820393E+03  0.41800000000E+01 0. -1.
         -5    1    1    2    0  502  0.30243231484E+02 -0.10958426628E+02  0.44840910530E+02  0.55343652047E+02  0.41800000000E+01 0.  1.
        -11    1    1    2    0    0  0.29479398483E+02  0.40729546534E+02 -0.15082361245E+02  0.52491985259E+02  0.00000000000E+00 0.  1.
         11    1    1    2    0    0 -0.29539132131E+02  0.12643049187E+03 -0.15749528482E+03  0.20411270010E+03  0.00000000000E+00 0. -1.
</event>
<event>
 7    1  0.6473813E-006  0.1311553E+03  0.7561462E-02  0.1225752E+00
          2   -1    0    0  501    0  0.00000000000E+00  0.00000000000E+00  0.46517444719E+03  0.46517444719E+03  0.00000000000E+00 0. -1.
         -2   -1    0    0    0  501 -0.00000000000E+00 -0.00000000000E+00 -0.48621775306E+02  0.48621775306E+02  0.00000000000E+00 0.  1.
         23    2    1    2    0    0 -0.48348945100E+02  0.57404908005E+02  0.11887045337E+03  0.18817883665E+03  0.12509254943E+03 0.  0.
          5    1    3    3  502    0  0.49463236627E+00  0.80325712077E+02  0.33569048284E+02  0.87159727423E+02  0.41800000000E+01 0. -1.
         -5    1    3    3    0  502 -0.48843577466E+02 -0.22920804072E+02  0.85301405091E+02  0.10101910923E+03  0.41800000000E+01 0. -1.
        -11    1    1    2    0    0  0.77885947180E+02 -0.20594142086E+02  0.22468659503E+03  0.23869311980E+03  0.00000000000E+00 0. -1.
         11    1    1    2    0    0 -0.29537002080E+02 -0.36810765919E+02  0.72995623488E+02  0.86924266047E+02  0.00000000000E+00 0.  1.
</event>
<event>
 7    1  0.6473813E-006  0.1058427E+03  0.7561462E-02  0.1268468E+00
         -3   -1    0    0    0  501 -0.00000000000E+00  0.00000000000E+00  0.89707131066E+02  0.89707131066E+02  0.00000000000E+00 0.  1.
          3   -1    0    0  501    0  0.00000000000E+00 -0.00000000000E+00 -0.21450657709E+03  0.21450657709E+03  0.00000000000E+00 0. -1.
         23    2    1    2    0    0 -0.12281325422E+02 -0.58573509215E+01  0.24021569223E+02  0.12810148983E+03  0.12509123229E+03 0.  0.
          5    1    3    3  502    0  0.19386489189E+02  0.54205301960E+02  0.87308025723E+01  0.58375937142E+02  0.41800000000E+01 0.  1.
         -5    1    3    3    0  502 -0.31667814611E+02 -0.60062652881E+02  0.15290766651E+02  0.69725552691E+02  0.41800000000E+01 0.  1.
        -11    1    1    2    0    0 -0.89161571358E+01  0.42597799643E+02 -0.39205177800E+02  0.58575731825E+02  0.00000000000E+00 0.  1.
         11    1    1    2    0    0  0.21197482558E+02 -0.36740448722E+02 -0.10961583745E+03  0.11753648650E+03  0.00000000000E+00 0. -1.
</event>
<event>
 7    1  0.6473813E-006  0.1925433E+03  0.7561462E-02  0.1156187E+00
         -2   -1    0    0    0  501 -0.00000000000E+00  0.00000000000E+00  0.44889491372E+02  0.44889491372E+02  0.00000000000E+00 0.  1.
          2   -1    0    0  501    0  0.00000000000E+00 -0.00000000000E+00 -0.92952599164E+03  0.92952599164E+03  0.00000000000E+00 0. -1.
         23    2    1    2    0    0  0.14163578974E+03  0.98602425690E+02 -0.40818199319E+03  0.46048146123E+03  0.12508997275E+03 0.  0.
          5    1    3    3  502    0 -0.76518306176E+01 -0.56220559580E+01 -0.11413017525E+03  0.11460073005E+03  0.41800000000E+01 0.  1.
         -5    1    3    3    0  502  0.14928762036E+03  0.10422448165E+03 -0.29405181794E+03  0.34588073118E+03  0.41800000000E+01 0.  1.
        -11    1    1    2    0    0 -0.15301689217E+03 -0.85670273275E+02 -0.43764298273E+03  0.47147104401E+03  0.00000000000E+00 0. -1.
         11    1    1    2    0    0  0.11381102434E+02 -0.12932152415E+02 -0.38811524347E+02  0.42462977767E+02  0.00000000000E+00 0.  1.
</event>
<event>
 7    1  0.6473813E-006  0.6084775E+02  0.7561462E-02  0.1394308E+00
          1   -1    0    0  501    0  0.00000000000E+00  0.00000000000E+00  0.36568397407E+02  0.36568397407E+02  0.00000000000E+00 0. -1.
         -1   -1    0    0    0  501 -0.00000000000E+00 -0.00000000000E+00 -0.38675168894E+03  0.38675168894E+03  0.00000000000E+00 0.  1.
         23    2    1    2    0    0 -0.25168111492E+02 -0.28846687768E+02 -0.14570590035E+03  0.19581370615E+03  0.12508889995E+03 0.  0.
          5    1    3    3  502    0 -0.49846935495E+01 -0.36659122102E+02 -0.16337486230E+03  0.16756358923E+03  0.41800000000E+01 0.  1.
         -5    1    3    3    0  502 -0.20183417943E+02  0.78124343334E+01  0.17668961951E+02  0.28250116929E+02  0.41800000000E+01 0.  1.
        -11    1    1    2    0    0  0.33860198377E+02  0.37244033166E+02 -0.20871525610E+03  0.21469906653E+03  0.00000000000E+00 0.  1.
         11    1    1    2    0    0 -0.86920868850E+01 -0.83973453977E+01  0.42378649148E+01  0.12807313660E+02  0.00000000000E+00 0. -1.
</event>
<event>
 7    1  0.6473813E-006  0.1299072E+03  0.7561462E-02  0.1227594E+00
          1   -1    0    0  501    0  0.00000000000E+00  0.00000000000E+00  0.45191341009E+03  0.45191341009E+03  0.00000000000E+00 0. -1.
         -1   -1    0    0    0  501 -0.00000000000E+00 -0.00000000000E+00 -0.52864268272E+02  0.52864268272E+02  0.00000000000E+00 0.  1.
         23    2    1    2    0    0 -0.96369228093E+02  0.22335464434E+02  0.13709970621E+03  0.21031002835E+03  0.12509227588E+03 0.  0.
          5    1    3    3  502    0 -0.12492593955E+03  0.31125733634E+02  0.10429664449E+03  0.16574246323E+03  0.41800000000E+01 0.  1.
         -5    1    3    3    0  502  0.28556711456E+02 -0.87902692004E+01  0.32803061721E+02  0.44567565113E+02  0.41800000000E+01 0.  1.
        -11    1    1    2    0    0  0.65680129145E+02 -0.24416878763E+02  0.25286544397E+03  0.26239473334E+03  0.00000000000E+00 0. -1.
         11    1    1    2    0    0  0.30689098948E+02  0.20814143290E+01  0.90839916370E+01  0.32072916673E+02  0.00000000000E+00 0.  1.
</event>
<event>
 6    1  0.6473813E-006  0.1196208E+03  0.7561462E-02  0.1243724E+00
         -2   -1    0    0    0  501 -0.00000000000E+00  0.00000000000E+00  0.16974027085E+03  0.16974027085E+03  0.00000000000E+00 0.  1.
          2   -1    0    0  501    0  0.00000000000E+00 -0.00000000000E+00 -0.18918938979E+03  0.18918938979E+03  0.00000000000E+00 0. -1.
          5    1    1    2  502    0  0.83447828569E+02  0.29602096233E+02 -0.12384418230E+03  0.15229799107E+03  0.41800000000E+01 0. -1.
         -5    1    1    2    0  502  0.10918641795E+02 -0.20024417354E+02  0.66457861669E+02  0.70386886610E+02  0.41800000000E+01 0.  1.
        -11    1    1    2    0    0 -0.97817239146E+02  0.18136530956E+02  0.16069396430E+02  0.10077386333E+03  0.00000000000E+00 0.  1.
         11    1    1    2    0    0  0.34507687825E+01 -0.27714209836E+02  0.21867805260E+02  0.35470919623E+02  0.00000000000E+00 0. -1.
</event>
<event>
 7    1  0.6473813E-006  0.1018657E+03  0.7561462E-02  0.1276421E+00
         -2   -1    0    0    0  501 -0.00000000000E+00  0.00000000000E+00  0.53618871327E+02  0.53618871327E+02  0.00000000000E+00 0. -1.
          2   -1    0    0  501    0  0.00000000000E+00 -0.00000000000E+00 -0.24426904932E+03  0.24426904932E+03  0.00000000000E+00 0.  1.
         23    2    1    2    0    0 -0.15566451729E+02 -0.17944751448E+02 -0.68951172335E+02  0.14479754780E+03  0.12509091558E+03 0.  0.
          5    1    3    3  502    0 -0.54303850383E+00  0.49398970807E+02 -0.55420133910E+02  0.74360048750E+02  0.41800000000E+01 0. -1.
         -5    1    3    3    0  502 -0.15023413225E+02 -0.67343722255E+02 -0.13531038426E+02  0.70437499054E+02  0.41800000000E+01 0. -1.
        -11    1    1    2    0    0  0.43538668343E+02  0.31699662469E+02 -0.44591371382E+02  0.69920488010E+02  0.00000000000E+00 0. -1.
         11    1    1    2    0    0 -0.27972216614E+02 -0.13754911021E+02 -0.77107634274E+02  0.83169884832E+02  0.00000000000E+00 0.  1.
</event>
<event>
 7    1  0.6473813E-006  0.1018401E+03  0.7561462E-02  0.1276473E+00
         -1   -1    0    0    0  501 -0.00000000000E+00  0.00000000000E+00  0.30586460048E+03  0.30586460048E+03  0.00000000000E+00 0.  1.
          1   -1    0    0  501    0  0.00000000000E+00 -0.00000000000E+00 -0.56737040321E+02  0.56737040321E+02  0.00000000000E+00 0. -1.
         23    2    1    2    0    0  0.20315003201E+02 -0.58515256301E+02  0.19445408997E+03  0.23936403683E+03  0.12508402955E+03 0.  0.
          5    1    3    3  502    0 -0.22683338728E+02 -0.46325221978E+02  0.18679060028E+03  0.19382662562E+03  0.41800000000E+01 0.  1.
         -5    1    3    3    0  502  0.42998341929E+02 -0.12190034323E+02  0.76634896893E+01  0.45537411209E+02  0.41800000000E+01 0.  1.
        -11    1    1    2    0    0  0.14985806348E+02 -0.17614479374E+02  0.81525586033E-01  0.23126844185E+02  0.00000000000E+00 0.  1.
         11    1    1    2    0    0 -0.35300809549E+02  0.76129735675E+02  0.54591944602E+02  0.10011075978E+03  0.00000000000E+00 0. -1.
</event>
<event>
 7    1  0.6473813E-006  0.1528925E+03  0.7561462E-02  0.1196963E+00
         -2   -1    0    0    0  501 -0.00000000000E+00  0.00000000000E+00  0.37894256401E+02  0.37894256401E+02  0.00000000000E+00 0.  1.
          2   -1    0    0  501    0  0.00000000000E+00 -0.00000000000E+00 -0.79352315956E+03  0.79352315956E+03  0.00000000000E+00 0. -1.
         23    2    1    2    0    0 -0.20274965772E+00  0.11925282214E+03 -0.24514554105E+03  0.29994293124E+03  0.12509256175E+03 0.  0.
          5    1    3    3  502    0  0.58781499044E+02  0.85513169737E+02 -0.16272430759E+03  0.19303999459E+03  0.41800000000E+01 0. -1.
         -5    1    3    3    0  502 -0.58984248702E+02  0.33739652404E+02 -0.82421233460E+02  0.10690293665E+03  0.41800000000E+01 0. -1.
        -11    1    1    2    0    0 -0.15810905903E+02 -0.25011339701E+01 -0.14221226267E+02  0.21412232325E+02  0.00000000000E+00 0.  1.
         11    1    1    2    0    0  0.16013655561E+02 -0.11675168817E+03 -0.49626213584E+03  0.51006225240E+03  0.00000000000E+00 0. -1.
</event>
<event>
 7    1  0.6473813E-006  0.1539078E+03  0.7561462E-02  0.1195752E+00
         -3   -1    0    0    0  501 -0.00000000000E+00  0.00000000000E+00  0.16273525510E+03  0.16273525510E+03  0.00000000000E+00 0.  1.
          3   -1    0    0  501    0  0.00000000000E+00 -0.00000000000E+00 -0.49327815200E+03  0.49327815200E+03  0.00000000000E+00 0. -1.
         23    2    1    2    0    0 -0.83493653304E+01  0.14038551692E+03  0.85816601724E+02  0.20685659996E+03  0.12508940225E+03 0.  0.
          5    1    3    3  502    0 -0.18569004011E+02  0.80932778857E+02  0.11322002276E+03  0.14046767798E+03  0.41800000000E+01 0. -1.
         -5    1    3    3    0  502  0.10219638680E+02  0.59452738061E+02 -0.27403421033E+02  0.66388921983E+02  0.41800000000E+01 0. -1.
        -11    1    1    2    0    0 -0.36205302255E+02 -0.89642667157E+02 -0.29281099589E+03  0.30835841321E+03  0.00000000000E+00 0. -1.
         11    1    1    2    0    0  0.44554667585E+02 -0.50742849761E+02 -0.12354850273E+03  0.14079839393E+03  0.00000000000E+00 0.  1.
</event>
<event>
 7    1  0.6473813E-006  0.8935074E+02  0.7561462E-02  0.1304432E+00
          1   -1    0    0  501    0  0.00000000000E+00  0.00000000000E+00  0.37612844990E+02  0.37612844990E+02  0.00000000000E+00 0. -1.
         -1   -1    0    0    0  501 -0.00000000000E+00 -0.00000000000E+00 -0.34691659540E+03  0.34691659540E+03  0.00000000000E+00 0.  1.
         23    2    1    2    0    0  0.11344308800E+02  0.31827284465E+02 -0.18396616878E+03  0.22501696255E+03  0.12508961908E+03 0.  0.
          5    1    3    3  502    0 -0.51010064963E+02  0.41010902539E+02 -0.81037634910E+02  0.10425205766E+03  0.41800000000E+01 0.  1.
         -5    1    3    3    0  502  0.62354373764E+02 -0.91836180747E+01 -0.10292853387E+03  0.12076490489E+03  0.41800000000E+01 0.  1.
        -11    1    1    2    0    0  0.12199221411E+02 -0.26929499324E+01  0.11900760563E+02  0.17254016470E+02  0.00000000000E+00 0. -1.
         11    1    1    2    0    0 -0.23543530211E+02 -0.29134334532E+02 -0.13723834219E+03  0.14225846137E+03  0.00000000000E+00 0.  1.
</event>
<event>
 7    1  0.6473813E-006  0.1146474E+03  0.7561462E-02  0.1252198E+00
         -2   -1    0    0    0  501 -0.00000000000E+00  0.00000000000E+00  0.58531689326E+02  0.58531689326E+02  0.00000000000E+00 0.  1.
          2   -1    0    0  501    0  0.00000000000E+00 -0.00000000000E+00 -0.31791522078E+03  0.31791522078E+03  0.00000000000E+00 0. -1.
         23    2    1    2    0    0  0.68848911099E+02 -0.15980006628E+02 -0.83387826110E+02  0.16612511852E+03  0.12509393386E+03 0.  0.
          5    1    3    3  502    0 -0.30383943205E+02  0.11598668717E+02  0.11556780109E+01  0.32810381167E+02  0.41800000000E+01 0. -1.
         -5    1    3    3    0  502  0.99232854304E+02 -0.27578675344E+02 -0.84543504121E+02  0.13331473736E+03  0.41800000000E+01 0. -1.
        -11    1    1    2    0    0  0.96208631967E+01 -0.67242030442E+01  0.42064826949E+01  0.12468777482E+02  0.00000000000E+00 0.  1.
         11    1    1    2    0    0 -0.78469774296E+02  0.22704209672E+02 -0.18020218804E+03  0.19785301410E+03  0.00000000000E+00 0. -1.
</event>
<event>
 7    1  0.6473813E-006  0.1507021E+03  0.7561462E-02  0.1199613E+00
         -2   -1    0    0    0  501 -0.00000000000E+00  0.00000000000E+00  0.15076937521E+03  0.15076937521E+03  0.00000000000E+00 0.  1.
          2   -1    0    0  501    0  0.00000000000E+00 -0.00000000000E+00 -0.20248192561E+03  0.20248192561E+03  0.00000000000E+00 0. -1.
         23    2    1    2    0    0 -0.64363299602E+02 -0.11966013852E+03 -0.21966526024E+02  0.18598647330E+03  0.12508899591E+03 0.  0.
          5    1    3    3  502    0 -0.70786218178E+02 -0.11130804808E+03  0.27862050158E+02  0.13488490090E+03  0.41800000000E+01 0. -1.
         -5    1    3    3    0  502  0.64229185765E+01 -0.83520904446E+01 -0.49828576182E+02  0.51101572404E+02  0.41800000000E+01 0. -1.
        -11    1    1    2    0    0  0.59820717354E+02  0.13201158453E+03 -0.12359254470E+02  0.14545902463E+03  0.00000000000E+00 0. -1.
         11    1    1    2    0    0  0.45425822478E+01 -0.12351446001E+02 -0.17386769912E+02  0.21805802892E+02  0.00000000000E+00 0.  1.
</event>
<event>
 7    1  0.6473813E-006  0.8785918E+02  0.7561462E-02  0.1308120E+00
          4   -1    0    0  501    0  0.00000000000E+00  0.00000000000E+00  0.24720199887E+03  0.24720199887E+03  0.00000000000E+00 0. -1.
         -4   -1    0    0    0  501 -0.00000000000E+00 -0.00000000000E+00 -0.60721553989E+02  0.60721553989E+02  0.00000000000E+00 0.  1.
         23    2    1    2    0    0 -0.60220963442E+02 -0.75599849614E+01  0.10398713851E+03  0.17362078791E+03  0.12508850951E+03 0.  0.
          5    1    3    3  502    0  0.25319154943E+01 -0.11923432725E+02  0.10957536943E+03  0.11033047099E+03  0.41800000000E+01 0.  1.
         -5    1    3    3    0  502 -0.62752878936E+02  0.43634477631E+01 -0.55882309213E+01  0.63290316921E+02  0.41800000000E+01 0.  1.
        -11    1    1    2    0    0  0.61923432080E+02  0.35780375843E+02  0.36445040219E+02  0.80268223430E+02  0.00000000000E+00 0.  1.
         11    1    1    2    0    0 -0.17024686384E+01 -0.28220390882E+02  0.46048266158E+02  0.54034541519E+02  0.00000000000E+00 0. -1.
</event>
<event>
 7    1  0.6473813E-006  0.1931238E+03  0.7561462E-02  0.1155674E+00
          2   -1    0    0  501    0  0.00000000000E+00  0.00000000000E+00  0.22063564549E+03  0.22063564549E+03  0.00000000000E+00 0. -1.
         -2   -1    0    0    0  501 -0.00000000000E+00 -0.00000000000E+00 -0.22247293841E+03  0.22247293841E+03  0.00000000000E+00 0.  1.
         23    2    1    2    0    0 -0.12710207337E+02 -0.18934899894E+03 -0.35375444095E+02  0.23003084020E+03  0.12509265618E+03 0.  0.
          5    1    3    3  502    0 -0.16328808883E+02 -0.18916779137E+03 -0.64357640788E+02  0.20052546377E+03  0.41800000000E+01 0.  1.
         -5    1    3    3    0  502  0.36186015466E+01 -0.18120756544E+00  0.28982196693E+02  0.29505376433E+02  0.41800000000E+01 0.  1.
        -11    1    1    2    0    0  0.14499653869E+02  0.72485693830E+02  0.57644492003E+02  0.93740616761E+02  0.00000000000E+00 0.  1.
         11    1    1    2    0    0 -0.17894465318E+01  0.11686330510E+03 -0.24106340832E+02  0.11933712694E+03  0.00000000000E+00 0. -1.
</event>
<event>
 7    1  0.6473813E-006  0.1629599E+03  0.7561462E-02  0.1185395E+00
          4   -1    0    0  501    0  0.00000000000E+00  0.00000000000E+00  0.21710069509E+03  0.21710069509E+03  0.00000000000E+00 0.  1.
         -4   -1    0    0    0  501 -0.00000000000E+00 -0.00000000000E+00 -0.12689527594E+03  0.12689527594E+03  0.00000000000E+00 0. -1.
         23    2    1    2    0    0  0.50876311124E+02 -0.11296806682E+03  0.48740627692E+02  0.18268245413E+03  0.12508815733E+03 0.  0.
          5    1    3    3  502    0  0.41393673011E+02  0.16242060795E+02  0.24053414067E+02  0.50727505679E+02  0.41800000000E+01 0.  1.
         -5    1    3    3    0  502  0.94826381131E+01 -0.12921012761E+03  0.24687213625E+02  0.13195494845E+03  0.41800000000E+01 0.  1.
        -11    1    1    2    0    0 -0.75440246075E+02  0.74752796657E+02  0.45840277111E+02  0.11567429421E+03  0.00000000000E+00 0.  1.
         11    1    1    2    0    0  0.24563934951E+02  0.38215270160E+02 -0.43754856568E+01  0.45639222697E+02  0.00000000000E+00 0. -1.
</event>
<event>
 6    1  0.6473813E-006  0.1052187E+03  0.7561462E-02  0.1269689E+00
         -2   -1    0    0    0  501 -0.00000000000E+00  0.00000000000E+00  0.32334788163E+03  0.32334788163E+03  0.00000000000E+00 0.  1.
          2   -1    0    0  501    0  0.00000000000E+00 -0.00000000000E+00 -0.72951127540E+02  0.72951127540E+02  0.00000000000E+00 0. -1.
          5    1    1    2  502    0  0.51824055093E+02 -0.18589272159E+02  0.70967777531E+02  0.89917693327E+02  0.41800000000E+01 0. -1.
         -5    1    1    2    0  502 -0.88315492385E+02  0.21123215423E+02  0.21197324444E+03  0.23064246180E+03  0.41800000000E+01 0.  1.
        -11    1    1    2    0    0  0.85082669166E+01 -0.26277169714E+02 -0.14835553631E+01  0.27660101059E+02  0.00000000000E+00 0.  1.
         11    1    1    2    0    0  0.27983170376E+02  0.23743226449E+02 -0.31060712519E+02  0.48078752986E+02  0.00000000000E+00 0. -1.
</event>
<event>
 7    1  0.6473813E-006  0.8904949E+02  0.7561462E-02  0.1305170E+00
         -1   -1    0    0    0  501 -0.00000000000E+00  0.00000000000E+00  0.16284582368E+03  0.16284582368E+03  0.00000000000E+00 0.  1.
          1   -1    0    0  501    0  0.00000000000E+00 -0.00000000000E+00 -0.79343372812E+02  0.79343372812E+02  0.00000000000E+00 0. -1.
         23    2    1    2    0    0  0.16129179747E+02  0.23659291770E+02  0.71028249085E+02  0.14667069210E+03  0.12508943691E+03 0.  0.
          5    1    3    3  502    0 -0.23333756610E+02 -0.37548312117E+02  0.57220160186E+02  0.72428993311E+02  0.41800000000E+01 0.  1.
         -5    1    3    3    0  502  0.39462936358E+02  0.61207603887E+02  0.13808088900E+02  0.74241698786E+02  0.41800000000E+01 0.  1.
        -11    1    1    2    0    0 -0.24592704445E+02 -0.37310022846E+02 -0.27478192041E+02  0.52458459323E+02  0.00000000000E+00 0. -1.
         11    1    1    2    0    0  0.84635246982E+01  0.13650731077E+02  0.39952393821E+02  0.43060045069E+02  0.00000000000E+00 0.  1.
</event>
<event>
 7    1  0.6473813E-006  0.1530713E+03  0.7561462E-02  0.1196749E+00
         -1   -1    0    0    0  501 -0.00000000000E+00  0.00000000000E+00  0.72575359122E+02  0.72575359122E+02  0.00000000000E+00 0.  1.
          1   -1    0    0  501    0  0.00000000000E+00 -0.00000000000E+00 -0.44962458162E+03  0.44962458162E+03  0.00000000000E+00 0. -1.
         23    2    1    2    0    0  0.51062042831E+01 -0.13734091393E+03 -0.13679571953E+03  0.23075684396E+03  0.12508817765E+03 0.  0.
          5    1    3    3  502    0  0.11039513746E+02  0.69264290320E+01 -0.70507012062E+02  0.71823098184E+02  0.41800000000E+01 0.  1.
         -5    1    3    3    0  502 -0.59333094627E+01 -0.14426734296E+03 -0.66288707470E+02  0.15893374577E+03  0.41800000000E+01 0.  1.
        -11    1    1    2    0    0  0.22532617479E+02  0.93528817709E+02 -0.21113091191E+03  0.23201642303E+03  0.00000000000E+00 0. -1.
         11    1    1    2    0    0 -0.27638821762E+02  0.43812096222E+02 -0.29122591057E+02  0.59426673756E+02  0.00000000000E+00 0.  1.
</event>
<event>
 7    1  0.6473813E-006  0.1255722E+03  0.7561462E-02  0.1234178E+00
         -1   -1    0    0    0  501 -0.00000000000E+00  0.00000000000E+00  0.34153488677E+03  0.34153488677E+03  0.00000000000E+00 0.  1.
          1   -1    0    0  501    0  0.00000000000E+00 -0.00000000000E+00 -0.49592264280E+02  0.49592264280E+02  0.00000000000E+00 0. -1.
         23    2    1    2    0    0 -0.26935271296E+02  0.64693972462E+02  0.18465243144E+03  0.23378455472E+03  0.12509148122E+03 0.  0.
          5    1    3    3  502    0 -0.53781371069E+01  0.99241035706E+02  0.15085712859E+03  0.18070155830E+03  0.41800000000E+01 0.  1.
         -5    1    3    3    0  502 -0.21557134189E+02 -0.34547063244E+02  0.33795302854E+02  0.53082996414E+02  0.41800000000E+01 0.  1.
        -11    1    1    2    0    0  0.15200955548E+02  0.20061945319E+02  0.44806237543E+02  0.51392116344E+02  0.00000000000E+00 0.  1.
         11    1    1    2    0    0  0.11734315748E+02 -0.84755917781E+02  0.62483953505E+02  0.10595047999E+03  0.00000000000E+00 0. -1.
</event>
<event>
 7    1  0.6473813E-006  0.8611971E+02  0.7561462E-02  0.1312530E+00
         -3   -1    0    0    0  501 -0.00000000000E+00  0.00000000000E+00  0.46194752414E+03  0.46194752414E+03  0.00000000000E+00 0.  1.
          3   -1    0    0  501    0  0.00000000000E+00 -0.00000000000E+00 -0.31984323587E+02  0.31984323587E+02  0.00000000000E+00 0. -1.
         23    2    1    2    0    0  0.23519100265E+02 -0.37620319209E+02  0.30478419070E+03  0.33243120091E+03  0.12509461996E+03 0.  0.
          5    1    3    3  502    0  0.59858535234E+02 -0.32005307723E+02  0.27939319645E+03  0.28755071654E+03  0.41800000000E+01 0.  1.
         -5    1    3    3    0  502 -0.36339434969E+02 -0.56150114854E+01  0.25390994254E+02  0.44880484367E+02  0.41800000000E+01 0.  1.
        -11    1    1    2    0    0  0.11380349982E+02  0.29179075016E+02  0.12142492070E+03  0.12539913138E+03  0.00000000000E+00 0.  1.
         11    1    1    2    0    0 -0.34899450247E+02  0.84412441931E+01  0.37540891475E+01  0.36101515431E+02  0.00000000000E+00 0. -1.
</event>
<event>
 7    1  0.6473813E-006  0.6911866E+02  0.7561462E-02  0.1363116E+00
         -1   -1    0    0    0  501 -0.00000000000E+00  0.00000000000E+00  0.19067914409E+03  0.19067914409E+03  0.00000000000E+00 0.  1.
          1   -1    0    0  501    0  0.00000000000E+00 -0.00000000000E+00 -0.86178855847E+02  0.86178855847E+02  0.00000000000E+00 0. -1.
         23    2    1    2    0    0  0.46073630669E+02 -0.23692779011E+02  0.10441499544E+03  0.17097897921E+03  0.12508873985E+03 0.  0.
          5    1    3    3  502    0  0.37484265372E+02 -0.22771756176E+02 -0.18431730711E+02  0.47757974484E+02  0.41800000000E+01 0.  1.
         -5    1    3    3    0  502  0.85893652977E+01 -0.92102283488E+00  0.12284672615E+03  0.12322100473E+03  0.41800000000E+01 0.  1.
        -11    1    1    2    0    0  0.17454161787E+02  0.26118108623E+01  0.28210294140E+02  0.33275967531E+02  0.00000000000E+00 0.  1.
         11    1    1    2    0    0 -0.63527792456E+02  0.21080968149E+02 -0.28125001342E+02  0.72603053193E+02  0.00000000000E+00 0. -1.
</event>
<event>
 7    1  0.6473813E-006  0.1065779E+03  0.7561462E-02  0.1267042E+00
         -1   -1    0    0    0  501 -0.00000000000E+00  0.00000000000E+00  0.11702505163E+03  0.11702505163E+03  0.00000000000E+00 0.  1.
          1   -1    0    0  501    0  0.00000000000E+00 -0.00000000000E+00 -0.22419460937E+03  0.22419460937E+03  0.00000000000E+00 0. -1.
         23    2    1    2    0    0 -0.32987380142E+02  0.77604229447E+02  0.28909258594E+02  0.15360156110E+03  0.12508841138E+03 0.  0.
          5    1    3    3  502    0 -0.35264823073E+02  0.39034566113E+02 -0.45485076386E+02  0.69668283112E+02  0.41800000000E+01 0.  1.
         -5    1    3    3    0  502  0.22774429313E+01  0.38569663334E+02  0.74394334980E+02  0.83933277984E+02  0.41800000000E+01 0.  1.
        -11    1    1    2    0    0  0.55444686841E+02 -0.81658041144E+02 -0.13136939322E+03  0.16431696947E+03  0.00000000000E+00 0. -1.
         11    1    1    2    0    0 -0.22457306699E+02  0.40538116972E+01 -0.47094231120E+01  0.23301130434E+02  0.00000000000E+00 0.  1.
</event>
<event>
 7    1  0.6473813E-006  0.1171247E+03  0.7561462E-02  0.1247917E+00
         -4   -1    0    0    0  501 -0.00000000000E+00  0.00000000000E+00  0.39604994686E+03  0.39604994686E+03  0.00000000000E+00 0.  1.
          4   -1    0    0  501    0  0.00000000000E+00 -0.00000000000E+00 -0.36354381522E+02  0.36354381522E+02  0.00000000000E+00 0. -1.
         23    2    1    2    0    0 -0.19981181234E+02  0.45161467903E+02  0.22917063843E+03  0.26571636067E+03  0.12508875656E+03 0.  0.
          5    1    3    3  502    0 -0.29180023033E+02  0.86706749357E+02  0.16193229676E+03  0.18603514523E+03  0.41800000000E+01 0.  1.
         -5    1    3    3    0  502  0.91988417984E+01 -0.41545281454E+02  0.67238341677E+02  0.79681215434E+02  0.41800000000E+01 0.  1.
        -11    1    1    2    0    0  0.50289583028E+02 -0.47937841867E+02  0.10955438431E+03  0.12972756826E+03  0.00000000000E+00 0.  1.
         11    1    1    2    0    0 -0.30308401793E+02  0.27763739637E+01  0.20970542591E+02  0.36960399460E+02  0.00000000000E+00 0. -1.
</event>
<event>
 7    1  0.6473813E-006  0.1071861E+03  0.7561462E-02  0.1265871E+00
          1   -1    0    0  501    0  0.00000000000E+00  0.00000000000E+00  0.33795540139E+03  0.33795540139E+03  0.00000000000E+00 0. -1.
         -1   -1    0    0    0  501 -0.00000000000E+00 -0.00000000000E+00 -0.45796184069E+02  0.45796184069E+02  0.00000000000E+00 0.  1.
         23    2    1    2    0    0 -0.19203760200E+02 -0.48649818456E+02  0.11236665174E+03  0.17609436602E+03  0.12508945631E+03 0.  0.
          5    1    3    3  502    0  0.42319843477E+02 -0.13106719403E+02  0.17210447474E+01  0.44533017419E+02  0.41800000000E+01 0. -1.
         -5    1    3    3    0  502 -0.61523603677E+02 -0.35543099053E+02  0.11064560699E+03  0.13156134860E+03  0.41800000000E+01 0. -1.
        -11    1    1    2    0    0 -0.10336315065E+01  0.69577320417E+02  0.93263639399E+02  0.11636227200E+03  0.00000000000E+00 0.  1.
         11    1    1    2    0    0  0.20237391707E+02 -0.20927501961E+02  0.86528926184E+02  0.91294947440E+02  0.00000000000E+00 0. -1.
</event>
<event>
 7    1  0.6473813E-006  0.1538477E+03  0.7561462E-02  0.1195823E+00
         -1   -1    0    0    0  501 -0.00000000000E+00  0.00000000000E+00  0.38046690997E+03  0.38046690997E+03  0.00000000000E+00 0.  1.
          1   -1    0    0  501    0  0.00000000000E+00 -0.00000000000E+00 -0.63939709094E+02  0.63939709094E+02  0.00000000000E+00 0. -1.
         23    2    1    2    0    0  0.84787102572E+02 -0.68350544803E+02  0.20248404765E+03  0.26174404855E+03  0.12509799223E+03 0.  0.
          5    1    3    3  502    0  0.10101847969E+03 -0.91618980648E+02  0.17613801020E+03  0.22280224839E+03  0.41800000000E+01 0.  1.
         -5    1    3    3    0  502 -0.16231377115E+02  0.23268435845E+02  0.26346037450E+02  0.38941800152E+02  0.41800000000E+01 0.  1.
        -11    1    1    2    0    0 -0.42668692335E+02 -0.18149407002E+02  0.33756084431E+02  0.57354088923E+02  0.00000000000E+00 0.  1.
         11    1    1    2    0    0 -0.42118410237E+02  0.86499951806E+02  0.80287068797E+02  0.12530848159E+03  0.00000000000E+00 0. -1.
</event>
<event>
 7    1  0.6473813E-006  0.9517854E+02  0.7561462E-02  0.1290774E+00
         -2   -1    0    0    0  501 -0.00000000000E+00  0.00000000000E+00  0.92638144894E+02  0.92638144894E+02  0.00000000000E+00 0.  1.
          2   -1    0    0  501    0  0.00000000000E+00 -0.00000000000E+00 -0.17063548847E+03  0.17063548847E+03  0.00000000000E+00 0. -1.
         23    2    1    2    0    0 -0.61693908236E+02  0.90729912123E+01 -0.45400349829E+02  0.14695836975E+03  0.12508842149E+03 0.  0.
          5    1    3    3  502    0  0.11855452045E+02 -0.34413966977E+02 -0.49182250002E+02  0.61328940815E+02  0.41800000000E+01 0.  1.
         -5    1    3    3    0  502 -0.73549360281E+02  0.43486958190E+02  0.37819001725E+01  0.85629428932E+02  0.41800000000E+01 0.  1.
        -11    1    1    2    0    0  0.49042432819E+01 -0.10259187912E+02 -0.54322748012E+02  0.55500121534E+02  0.00000000000E+00 0. -1.
         11    1    1    2    0    0  0.56789664955E+02  0.11861966997E+01  0.21725754264E+02  0.60815142083E+02  0.00000000000E+00 0.  1.
</event>
<event>
 7    1  0.6473813E-006  0.1729738E+03  0.7561462E-02  0.1174782E+00
         -1   -1    0    0    0  501 -0.00000000000E+00  0.00000000000E+00  0.31776461638E+03  0.31776461638E+03  0.00000000000E+00 0.  1.
          1   -1    0    0  501    0  0.00000000000E+00 -0.00000000000E+00 -0.12516850246E+03  0.12516850246E+03  0.00000000000E+00 0. -1.
         23    2    1    2    0    0 -0.10360063244E+03  0.11211336534E+03  0.17540890051E+03  0.26404273714E+03  0.12509111451E+03 0.  0.
          5    1    3    3  502    0 -0.10287824776E+03  0.13482420841E+03  0.17030829453E+03  0.24038279602E+03  0.41800000000E+01 0.  1.
         -5    1    3    3    0  502 -0.72238468246E+00 -0.22710843070E+02  0.51006059775E+01  0.23659941122E+02  0.41800000000E+01 0.  1.
        -11    1    1    2    0    0  0.17272480423E+02 -0.12137805665E+02  0.39635362375E+02  0.44906868706E+02  0.00000000000E+00 0.  1.
         11    1    1    2    0    0  0.86328152016E+02 -0.99975559677E+02 -0.22448148963E+02  0.13398351300E+03  0.00000000000E+00 0. -1.
</event>
<event>
 7    1  0.6473813E-006  0.3393436E+03  0.7561462E-02  0.1067076E+00
         -2   -1    0    0    0  501 -0.00000000000E+00  0.00000000000E+00  0.64009599838E+03  0.64009599838E+03  0.00000000000E+00 0.  1.
          2   -1    0    0  501    0  0.00000000000E+00 -0.00000000000E+00 -0.33439294512E+03  0.33439294512E+03  0.00000000000E+00 0. -1.
         23    2    1    2    0    0 -0.31463492484E+03 -0.11900673169E+03  0.46819047195E+03  0.58992181508E+03  0.12509073416E+03 0.  0.
          5    1    3    3  502    0 -0.31024372505E+03 -0.11515283945E+03  0.47571962355E+03  0.57951529574E+03  0.41800000000E+01 0. -1.
         -5    1    3    3    0  502 -0.43911997833E+01 -0.38538922408E+01 -0.75291516018E+01  0.10406519340E+02  0.41800000000E+01 0. -1.
        -11    1    1    2    0    0  0.69930784858E+02  0.36649443608E+01 -0.20739290978E+01  0.70057459774E+02  0.00000000000E+00 0.  1.
         11    1    1    2    0    0  0.24470413998E+03  0.11534178733E+03 -0.16041348960E+03  0.31450966864E+03  0.00000000000E+00 0. -1.
</event>
<event>
 7    1  0.6473813E-006  0.5253348E+02  0.7561462E-02  0.1432137E+00
         -1   -1    0    0    0  501 -0.00000000000E+00  0.00000000000E+00  0.41414917888E+02  0.41414917888E+02  0.00000000000E+00 0.  1.
          1   -1    0    0  501    0  0.00000000000E+00 -0.00000000000E+00 -0.21468166869E+03  0.21468166869E+03  0.00000000000E+00 0. -1.
         23    2    1    2    0    0  0.10764079179E+02  0.99851297912E+01 -0.91973768536E+02  0.15595553683E+03  0.12508951656E+03 0.  0.
          5    1    3    3  502    0  0.95525563853E+01 -0.23938486074E+02  0.23742076486E+02  0.35291090163E+02  0.41800000000E+01 0. -1.
         -5    1    3    3    0  502  0.12115227937E+01  0.33923615866E+02 -0.11571584502E+03  0.12066444667E+03  0.41800000000E+01 0. -1.
        -11    1    1    2    0    0 -0.11013574704E+02  0.15639682702E+02 -0.69218337946E+02  0.71812790023E+02  0.00000000000E+00 0. -1.
         11    1    1    2    0    0  0.24949552541E+00 -0.25624812494E+02 -0.12074644318E+02  0.28328259720E+02  0.00000000000E+00 0.  1.
</event>
<event>
 7    1  0.6473813E-006  0.1684939E+03  0.7561462E-02  0.1179428E+00
         -1   -1    0    0    0  501 -0.00000000000E+00  0.00000000000E+00  0.31873280455E+02  0.31873280455E+02  0.00000000000E+00 0.  1.
          1   -1    0    0  501    0  0.00000000000E+00 -0.00000000000E+00 -0.10657849076E+04  0.10657849076E+04  0.00000000000E+00 0. -1.
         23    2    1    2    0    0  0.14874555002E+03  0.54198508395E+00 -0.55031747311E+03  0.58362853173E+03  0.12508960566E+03 0.  0.
          5    1    3    3  502    0  0.36583883552E+02  0.51307669965E+02 -0.11479685391E+03  0.13102155395E+03  0.41800000000E+01 0.  1.
         -5    1    3    3    0  502  0.11216166647E+03 -0.50765684881E+02 -0.43552061920E+03  0.45260697778E+03  0.41800000000E+01 0.  1.
        -11    1    1    2    0    0 -0.17773231614E+02  0.78023166711E+01 -0.85847131068E+01  0.21224071394E+02  0.00000000000E+00 0.  1.
         11    1    1    2    0    0 -0.13097231841E+03 -0.83443017550E+01 -0.47500944091E+03  0.49280558491E+03  0.00000000000E+00 0. -1.
</event>
<event>
 7    1  0.6473813E-006  0.1125813E+03  0.7561462E-02  0.1255863E+00
         -2   -1    0    0    0  501 -0.00000000000E+00  0.00000000000E+00  0.26837759042E+02  0.26837759042E+02  0.00000000000E+00 0. -1.
          2   -1    0    0  501    0  0.00000000000E+00 -0.00000000000E+00 -0.70392038182E+03  0.70392038182E+03  0.00000000000E+00 0.  1.
         23    2    1    2    0    0  0.13783785420E+02 -0.85239988889E+02 -0.38808432085E+03  0.41678863677E+03  0.12508988450E+03 0.  0.
          5    1    3    3  502    0 -0.17152516382E+02 -0.84175179721E+02 -0.37169225493E+03  0.38151313801E+03  0.41800000000E+01 0.  1.
         -5    1    3    3    0  502  0.30936301802E+02 -0.10648091680E+01 -0.16392065926E+02  0.35275498765E+02  0.41800000000E+01 0.  1.
        -11    1    1    2    0    0 -0.17175825952E+02 -0.47862083438E+01 -0.92787274483E+01  0.20100039067E+02  0.00000000000E+00 0. -1.
         11    1    1    2    0    0  0.33920405315E+01  0.90026197232E+02 -0.27971957448E+03  0.29386946502E+03  0.00000000000E+00 0.  1.
</event>
<event>
 7    1  0.6473813E-006  0.1614340E+03  0.7561462E-02  0.1187087E+00
          1   -1    0    0  501    0  0.00000000000E+00  0.00000000000E+00  0.37355430627E+03  0.37355430627E+03  0.00000000000E+00 0. -1.
         -1   -1    0    0    0  501 -0.00000000000E+00 -0.00000000000E+00 -0.80556700932E+02  0.80556700932E+02  0.00000000000E+00 0.  1.
         23    2    1    2    0    0  0.69572913907E+02  0.10375070831E+03  0.86210940973E+02  0.19668426470E+03  0.12509106208E+03 0.  0.
          5    1    3    3  502    0 -0.56111458530E+01  0.10071325083E+03  0.42269285296E+02  0.10944774428E+03  0.41800000000E+01 0.  1.
         -5    1    3    3    0  502  0.75184059760E+02  0.30374574869E+01  0.43941655678E+02  0.87236520413E+02  0.41800000000E+01 0.  1.
        -11    1    1    2    0    0 -0.20444626822E+02 -0.94338900783E+02  0.16941873842E+03  0.19498851221E+03  0.00000000000E+00 0. -1.
         11    1    1    2    0    0 -0.49128287085E+02 -0.94118075292E+01  0.37367925947E+02  0.62438230296E+02  0.00000000000E+00 0.  1.
</event>
<event>
 7    1  0.6473813E-006  0.9942137E+02  0.7561462E-02  0.1281517E+00
         -2   -1    0    0    0  501 -0.00000000000E+00  0.00000000000E+00  0.38993809728E+03  0.38993809728E+03  0.00000000000E+00 0.  1.
          2   -1    0    0  501    0  0.00000000000E+00 -0.00000000000E+00 -0.33989348074E+02  0.33989348074E+02  0.00000000000E+00 0. -1.
         23    2    1    2    0    0 -0.12116809561E+02  0.29318169087E+02  0.24838835976E+03  0.27991134240E+03  0.12508880936E+03 0.  0.
          5    1    3    3  502    0 -0.21268448831E+02 -0.39740869782E+02  0.16538441899E+03  0.17146767069E+03  0.41800000000E+01 0.  1.
         -5    1    3    3    0  502  0.91516392706E+01  0.69059038869E+02  0.83003940770E+02  0.10844367171E+03  0.41800000000E+01 0.  1.
        -11    1    1    2    0    0  0.38664776029E+02  0.64955478352E+01  0.85958559138E+02  0.94477674273E+02  0.00000000000E+00 0. -1.
         11    1    1    2    0    0 -0.26547966468E+02 -0.35813716922E+02  0.21601830306E+02  0.49538428679E+02  0.00000000000E+00 0.  1.
</event>
<event>
 7    1  0.6473813E-006  0.1951575E+03  0.7561462E-02  0.1153890E+00
         -2   -1    0    0    0  501 -0.00000000000E+00  0.00000000000E+00  0.11190532932E+03  0.11190532932E+03  0.00000000000E+00 0.  1.
          2   -1    0    0  501    0  0.00000000000E+00 -0.00000000000E+00 -0.40875864479E+03  0.40875864479E+03  0.00000000000E+00 0. -1.
         23    2    1    2    0    0  0.13582535178E+03  0.11776370079E+03 -0.10242671360E+03  0.24177640455E+03  0.12509109772E+03 0.  0.
          5    1    3    3  502    0  0.64354414935E+02  0.11961698098E+03 -0.28503785021E+02  0.13885118300E+03  0.41800000000E+01 0.  1.
         -5    1    3    3    0  502  0.71470936847E+02 -0.18532801872E+01 -0.73922928581E+02  0.10292522155E+03  0.41800000000E+01 0.  1.
        -11    1    1    2    0    0 -0.20165927876E+02 -0.35654894289E+02 -0.36016899766E+01  0.41120655449E+02  0.00000000000E+00 0. -1.
         11    1    1    2    0    0 -0.11565942391E+03 -0.82108806504E+02 -0.19082491189E+03  0.23776691410E+03  0.00000000000E+00 0.  1.
</event>
<event>
 6    1  0.6473813E-006  0.1083908E+03  0.7561462E-02  0.1263579E+00
          1   -1    0    0  501    0  0.00000000000E+00  0.00000000000E+00  0.22068670734E+03  0.22068670734E+03  0.00000000000E+00 0. -1.
         -1   -1    0    0    0  501 -0.00000000000E+00 -0.00000000000E+00 -0.65346308411E+02  0.65346308411E+02  0.00000000000E+00 0.  1.
          5    1    1    2  502    0  0.62163795897E+02  0.57420092778E+02  0.52762472171E+02  0.99813603505E+02  0.41800000000E+01 0. -1.
         -5    1    1    2    0  502 -0.47820469956E+02 -0.54270775509E+02  0.42809101735E+02  0.84155843603E+02  0.41800000000E+01 0.  1.
        -11    1    1    2    0    0 -0.89968788722E+01  0.27268925810E+02  0.64701922837E+02  0.70787548079E+02  0.00000000000E+00 0. -1.
         11    1    1    2    0    0 -0.53464470694E+01 -0.30418243079E+02 -0.49330978134E+01  0.31276020564E+02  0.00000000000E+00 0.  1.
</event>
<event>
 7    1  0.6473813E-006  0.1061029E+03  0.7561462E-02  0.1267962E+00
         -2   -1    0    0    0  501 -0.00000000000E+00  0.00000000000E+00  0.21119972655E+02  0.21119972655E+02  0.00000000000E+00 0.  1.
          2   -1    0    0  501    0  0.00000000000E+00 -0.00000000000E+00 -0.55993506271E+03  0.55993506271E+03  0.00000000000E+00 0. -1.
         23    2    1    2    0    0 -0.92897444494E+01  0.40755927113E+00 -0.32425676207E+03  0.34767286712E+03  0.12509000488E+03 0.  0.
          5    1    3    3  502    0  0.30197982743E+02  0.49022666788E+02 -0.10762351558E+03  0.12212875798E+03  0.41800000000E+01 0.  1.
         -5    1    3    3    0  502 -0.39487727192E+02 -0.48615107517E+02 -0.21663324649E+03  0.22554410913E+03  0.41800000000E+01 0.  1.
        -11    1    1    2    0    0 -0.35743765093E+02  0.21410596480E+02 -0.91580323541E+02  0.10061305107E+03  0.00000000000E+00 0.  1.
         11    1    1    2    0    0  0.45033509543E+02 -0.21818155751E+02 -0.12297800444E+03  0.13276911719E+03  0.00000000000E+00 0. -1.
</event>
<event>
 7    1  0.6473813E-006  0.1930010E+03  0.7561462E-02  0.1155782E+00
         -1   -1    0    0    0  501 -0.00000000000E+00  0.00000000000E+00  0.24057238527E+03  0.24057238527E+03  0.00000000000E+00 0.  1.
          1   -1    0    0  501    0  0.00000000000E+00 -0.00000000000E+00 -0.19961612782E+03  0.19961612782E+03  0.00000000000E+00 0. -1.
         23    2    1    2    0    0 -0.17133170348E+03 -0.81080685840E+02  0.14106131392E+02  0.22754218982E+03  0.12509130653E+03 0.  0.
          5    1    3    3  502    0 -0.11118131515E+03 -0.25155246422E+02  0.64549550213E+02  0.13106558699E+03  0.41800000000E+01 0. -1.
         -5    1    3    3    0  502 -0.60150388337E+02 -0.55925439419E+02 -0.50443418822E+02  0.96476602830E+02  0.41800000000E+01 0. -1.
        -11    1    1    2    0    0  0.11253586678E+03  0.49315838385E+02 -0.28202571513E+02  0.12606251730E+03  0.00000000000E+00 0. -1.
         11    1    1    2    0    0  0.58795836703E+02  0.31764847455E+02  0.55052697565E+02  0.86583805972E+02  0.00000000000E+00 0.  1.
</event>
<event>
 7    1  0.6473813E-006  0.1059714E+03  0.7561462E-02  0.1268217E+00
          1   -1    0    0  501    0  0.00000000000E+00  0.00000000000E+00  0.21054312347E+03  0.21054312347E+03  0.00000000000E+00 0. -1.
         -1   -1    0    0    0  501 -0.00000000000E+00 -0.00000000000E+00 -0.80087232832E+02  0.80087232832E+02  0.00000000000E+00 0.  1.
         23    2    1    2    0    0  0.23014355191E+02 -0.28038922866E+02  0.11080120615E+02  0.13072495399E+03  0.12510156986E+03 0.  0.
          5    1    3    3  502    0  0.55139861164E+02  0.29685975178E+02 -0.38047752134E+01  0.62877739510E+02  0.41800000000E+01 0. -1.
         -5    1    3    3    0  502 -0.32125505973E+02 -0.57724898044E+02  0.14884895828E+02  0.67847214476E+02  0.41800000000E+01 0. -1.
        -11    1    1    2    0    0  0.12983480352E+02  0.42313966151E+02  0.12146073157E+02  0.45897381043E+02  0.00000000000E+00 0.  1.
         11    1    1    2    0    0 -0.35997835543E+02 -0.14275043285E+02  0.10722969687E+03  0.11400802128E+03  0.00000000000E+00 0. -1.
</event>
<event>
 7    1  0.6473813E-006  0.1055868E+03  0.7561462E-02  0.1268968E+00
         -2   -1    0    0    0  501 -0.00000000000E+00  0.00000000000E+00  0.50232566227E+03  0.50232566227E+03  0.00000000000E+00 0.  1.
          2   -1    0    0  501    0  0.00000000000E+00 -0.00000000000E+00 -0.54462700612E+02  0.54462700612E+02  0.00000000000E+00 0. -1.
         23    2    1    2    0    0  0.21118323729E+02 -0.54279874296E+02  0.42565655770E+03  0.44746314684E+03  0.12508986496E+03 0.  0.
          5    1    3    3  502    0  0.35272955101E+02  0.33364322478E+02  0.16682882787E+03  0.17380071802E+03  0.41800000000E+01 0.  1.
         -5    1    3    3    0  502 -0.14154631372E+02 -0.87644196774E+02  0.25882772983E+03  0.27366242882E+03  0.41800000000E+01 0.  1.
        -11    1    1    2    0    0  0.10961462335E+02  0.53768577691E+00 -0.27365060944E+02  0.29483712843E+02  0.00000000000E+00 0. -1.
         11    1    1    2    0    0 -0.32079786065E+02  0.53742188519E+02  0.49571464899E+02  0.79841503198E+02  0.00000000000E+00 0.  1.
</event>
<event>
 7    1  0.6473813E-006  0.1168617E+03  0.7561462E-02  0.1248366E+00
          3   -1    0    0  501    0  0.00000000000E+00  0.00000000000E+00  0.53084868798E+02  0.53084868798E+02  0.00000000000E+00 0.  1.
         -3   -1    0    0    0  501 -0.00000000000E+00 -0.00000000000E+00 -0.39531332297E+03  0.39531332297E+03  0.00000000000E+00 0. -1.
         23    2    1    2    0    0 -0.41251223654E+02 -0.11532164440E+02 -0.26700017108E+03  0.29794577319E+03  0.12509171887E+03 0.  0.
          5    1    3    3  502    0 -0.65183800240E+02 -0.48978782524E+02 -0.12678634587E+03  0.15079820573E+03  0.41800000000E+01 0.  1.
         -5    1    3    3    0  502  0.23932576586E+02  0.37446618084E+02 -0.14021382521E+03  0.14714756746E+03  0.41800000000E+01 0.  1.
        -11    1    1    2    0    0  0.41105493131E+02 -0.39147811166E+02  0.34443694129E+01  0.56868940252E+02  0.00000000000E+00 0.  1.
         11    1    1    2    0    0  0.14573052262E+00  0.50679975607E+02 -0.78672652501E+02  0.93583478331E+02  0.00000000000E+00 0. -1.
</event>
<event>
 7    1  0.6473813E-006  0.9291723E+02  0.7561462E-02  0.1295937E+00
         -1   -1    0    0    0  501 -0.00000000000E+00  0.00000000000E+00  0.76886072329E+02  0.76886072329E+02  0.00000000000E+00 0.  1.
          1   -1    0    0  501    0  0.00000000000E+00 -0.00000000000E+00 -0.19794502274E+03  0.19794502274E+03  0.00000000000E+00 0. -1.
         23    2    1    2    0    0 -0.29561253327E+02  0.21250486216E+02 -0.11213069263E+02  0.12578386001E+03  0.11987658510E+03 0.  0.
          5    1    3    3  502    0  0.36764145236E+02  0.39495869812E+02 -0.16730640653E+02  0.56647266870E+02  0.41800000000E+01 0. -1.
         -5    1    3    3    0  502 -0.66325398563E+02 -0.18245383596E+02  0.55175713903E+01  0.69136593142E+02  0.41800000000E+01 0.  1.
        -11    1    1    2    0    0  0.33603243999E+02  0.69458466477E+01  0.12713334161E+01  0.34337138517E+02  0.00000000000E+00 0.  1.
         11    1    1    2    0    0 -0.40419906716E+01 -0.28196332864E+02 -0.11111721456E+03  0.11471009654E+03  0.00000000000E+00 0. -1.
</event>
<event>
 7    1  0.6473813E-006  0.9630065E+02  0.7561462E-02  0.1288273E+00
         -3   -1    0    0    0  501 -0.00000000000E+00  0.00000000000E+00  0.16147766431E+03  0.16147766431E+03  0.00000000000E+00 0.  1.
          3   -1    0    0  501    0  0.00000000000E+00 -0.00000000000E+00 -0.80924225473E+02  0.80924225473E+02  0.00000000000E+00 0. -1.
         23    2    1    2    0    0 -0.30283969835E+02  0.13271342435E+02  0.58120799278E+02  0.14184606025E+03  0.12509608364E+03 0.  0.
          5    1    3    3  502    0 -0.61775515596E+02 -0.34376151947E+02  0.42068511854E+02  0.82372120523E+02  0.41800000000E+01 0. -1.
         -5    1    3    3    0  502  0.31491545762E+02  0.47647494382E+02  0.16052287424E+02  0.59473939729E+02  0.41800000000E+01 0. -1.
        -11    1    1    2    0    0  0.28186898327E+01 -0.31451706176E+02 -0.26735066494E+02  0.41375338237E+02  0.00000000000E+00 0. -1.
         11    1    1    2    0    0  0.27465280002E+02  0.18180363741E+02  0.49167706051E+02  0.59180491293E+02  0.00000000000E+00 0.  1.
</event>
<event>
 7    1  0.6473813E-006  0.9166466E+02  0.7561462E-02  0.1298870E+00
          1   -1    0    0  501    0  0.00000000000E+00  0.00000000000E+00  0.21133508607E+02  0.21133508607E+02  0.00000000000E+00 0. -1.
         -1   -1    0    0    0  501 -0.00000000000E+00 -0.00000000000E+00 -0.60181197965E+03  0.60181197965E+03  0.00000000000E+00 0.  1.
         23    2    1    2    0    0 -0.26870729665E+01 -0.29746710001E+02 -0.34603662124E+03  0.36916434445E+03  0.12509549494E+03 0.  0.
          5    1    3    3  502    0 -0.48849878540E+02 -0.26581364753E+02 -0.29468047978E+03  0.29991154887E+03  0.41800000000E+01 0.  1.
         -5    1    3    3    0  502  0.46162805573E+02 -0.31653452479E+01 -0.51356141465E+02  0.69252795576E+02  0.41800000000E+01 0.  1.
        -11    1    1    2    0    0  0.32708356698E+02  0.37829261789E+02 -0.68826685433E+02  0.85076449580E+02  0.00000000000E+00 0. -1.
         11    1    1    2    0    0 -0.30021283732E+02 -0.80825517881E+01 -0.16581516437E+03  0.16870469423E+03  0.00000000000E+00 0.  1.
</event>
<event>
 7    1  0.6473813E-006  0.1425762E+03  0.7561462E-02  0.1209904E+00
          3   -1    0    0  501    0  0.00000000000E+00  0.00000000000E+00  0.90096943875E+03  0.90096943875E+03  0.00000000000E+00 0.  1.
         -3   -1    0    0    0  501 -0.00000000000E+00 -0.00000000000E+00 -0.30834836079E+02  0.30834836079E+02  0.00000000000E+00 0. -1.
         23    2    1    2    0    0  0.81169535995E+02 -0.87530223693E+02  0.56676848282E+03  0.59255722408E+03  0.12509003582E+03 0.  0.
          5    1    3    3  502    0  0.72710658841E+02 -0.22170060949E+01  0.14657952332E+03  0.16369112402E+03  0.41800000000E+01 0. -1.
         -5    1    3    3    0  502  0.84588771540E+01 -0.85313217598E+02  0.42018895950E+03  0.42886610006E+03  0.41800000000E+01 0. -1.
        -11    1    1    2    0    0 -0.72496854811E+02  0.50324797035E+02  0.28197547608E+03  0.29546327736E+03  0.00000000000E+00 0.  1.
         11    1    1    2    0    0 -0.86726811841E+01  0.37205426659E+02  0.21390643776E+02  0.43783773397E+02  0.00000000000E+00 0. -1.
</event>
<event>
 7    1  0.6473813E-006  0.2086871E+03  0.7561462E-02  0.1142610E+00
         -2   -1    0    0    0  501 -0.00000000000E+00  0.00000000000E+00  0.49268057539E+02  0.49268057539E+02  0.00000000000E+00 0. -1.
          2   -1    0    0  501    0  0.00000000000E+00 -0.00000000000E+00 -0.12104244144E+04  0.12104244144E+04  0.00000000000E+00 0.  1.
         23    2    1    2    0    0 -0.15683701013E+03  0.10760387428E+03 -0.32098438960E+03  0.39351408478E+03  0.12508363220E+03 0.  0.
          5    1    3    3  502    0 -0.93561841854E+02  0.12395572954E+02 -0.22556161599E+03  0.24454648533E+03  0.41800000000E+01 0.  1.
         -5    1    3    3    0  502 -0.63275168278E+02  0.95208301322E+02 -0.95422773607E+02  0.14896759944E+03  0.41800000000E+01 0.  1.
        -11    1    1    2    0    0  0.10042077131E+02 -0.49703622302E+02 -0.26181361354E+03  0.26667894859E+03  0.00000000000E+00 0.  1.
         11    1    1    2    0    0  0.14679493300E+03 -0.57900251975E+02 -0.57835835367E+03  0.59949943853E+03  0.00000000000E+00 0. -1.
</event>
<event>
 7    1  0.6473813E-006  0.9538599E+02  0.7561462E-02  0.1290309E+00
          4   -1    0    0  501    0  0.00000000000E+00  0.00000000000E+00  0.21983908079E+03  0.21983908079E+03  0.00000000000E+00 0. -1.
         -4   -1    0    0    0  501 -0.00000000000E+00 -0.00000000000E+00 -0.76252055880E+02  0.76252055880E+02  0.00000000000E+00 0.  1.
         23    2    1    2    0    0 -0.69486130641E+02 -0.11769218030E+02  0.79470342611E+02  0.16410375020E+03  0.12509064166E+03 0.  0.
          5    1    3    3  502    0 -0.20989080208E+02 -0.43781971439E+02  0.92365922673E+02  0.10443341698E+03  0.41800000000E+01 0. -1.
         -5    1    3    3    0  502 -0.48497050433E+02  0.32012753408E+02 -0.12895580062E+02  0.59670333220E+02  0.41800000000E+01 0. -1.
        -11    1    1    2    0    0  0.44559740892E+02  0.29278239541E+02  0.81141486016E+02  0.97091331085E+02  0.00000000000E+00 0. -1.
         11    1    1    2    0    0  0.24926389749E+02 -0.17509021511E+02 -0.17024803713E+02  0.34896055388E+02  0.00000000000E+00 0.  1.
</event>
<event>
 6    1  0.6473813E-006  0.2145263E+03  0.7561462E-02  0.1138031E+00
         -1   -1    0    0    0  501 -0.00000000000E+00  0.00000000000E+00  0.17026792737E+04  0.17026792737E+04  0.00000000000E+00 0.  1.
          1   -1    0    0  501    0  0.00000000000E+00 -0.00000000000E+00 -0.63566778689E+02  0.63566778689E+02  0.00000000000E+00 0. -1.
          5    1    1    2  502    0 -0.14737845557E+02 -0.13314186874E+03  0.32665460918E+03  0.35307884021E+03  0.41800000000E+01 0. -1.
         -5    1    1    2    0  502  0.18870049235E+02  0.17914555597E+03  0.12813997359E+04  0.12940061687E+04  0.41800000000E+01 0.  1.
        -11    1    1    2    0    0 -0.47498461804E+02 -0.52722853997E+02  0.22550662082E+02  0.74460295243E+02  0.00000000000E+00 0.  1.
         11    1    1    2    0    0  0.43366258126E+02  0.67191667723E+01  0.85074878380E+01  0.44700748263E+02  0.00000000000E+00 0. -1.
</event>
<event>
 7    1  0.6473813E-006  0.1128528E+03  0.7561462E-02  0.1255376E+00
         -1   -1    0    0    0  501 -0.00000000000E+00  0.00000000000E+00  0.37231239981E+03  0.37231239981E+03  0.00000000000E+00 0.  1.
          1   -1    0    0  501    0  0.00000000000E+00 -0.00000000000E+00 -0.38979567512E+02  0.38979567512E+02  0.00000000000E+00 0. -1.
         23    2    1    2    0    0 -0.43582190138E+00  0.46882337702E+02  0.19381233450E+03  0.23540130596E+03  0.12510959321E+03 0.  0.
          5    1    3    3  502    0  0.54135347913E+02  0.56119173343E+02  0.11156351946E+03  0.13617594790E+03  0.41800000000E+01 0. -1.
         -5    1    3    3    0  502 -0.54571169814E+02 -0.92368356413E+01  0.82248815038E+02  0.99225358063E+02  0.41800000000E+01 0. -1.
        -11    1    1    2    0    0  0.35378061735E+02 -0.44835207609E+02  0.38239177426E+02  0.68731635975E+02  0.00000000000E+00 0. -1.
         11    1    1    2    0    0 -0.34942239834E+02 -0.20471300921E+01  0.10128132037E+03  0.10715902538E+03  0.00000000000E+00 0.  1.
</event>
<event>
 7    1  0.6473813E-006  0.9843331E+02  0.7561462E-02  0.1283625E+00
          1   -1    0    0  501    0  0.00000000000E+00  0.00000000000E+00  0.24190197354E+03  0.24190197354E+03  0.00000000000E+00 0. -1.
         -1   -1    0    0    0  501 -0.00000000000E+00 -0.00000000000E+00 -0.72381247429E+02  0.72381247429E+02  0.00000000000E+00 0.  1.
         23    2    1    2    0    0 -0.66276711045E+02 -0.73011136351E+01  0.50251353335E+02  0.15039523613E+03  0.12509044669E+03 0.  0.
          5    1    3    3  502    0 -0.89948568205E+02  0.14692674414E+02  0.67535792312E+02  0.11351288582E+03  0.41800000000E+01 0. -1.
         -5    1    3    3    0  502  0.23671857159E+02 -0.21993788049E+02 -0.17284438977E+02  0.36882350316E+02  0.41800000000E+01 0. -1.
        -11    1    1    2    0    0  0.61398796949E+02 -0.31872167723E+01  0.13264722382E+03  0.14620279274E+03  0.00000000000E+00 0. -1.
         11    1    1    2    0    0  0.48779140966E+01  0.10488330407E+02 -0.13377851048E+02  0.17685192092E+02  0.00000000000E+00 0.  1.
</event>
<event>
 7    1  0.6473813E-006  0.1011544E+03  0.7561462E-02  0.1277887E+00
          1   -1    0    0  501    0  0.00000000000E+00  0.00000000000E+00  0.37218818324E+03  0.37218818324E+03  0.00000000000E+00 0. -1.
         -1   -1    0    0    0  501 -0.00000000000E+00 -0.00000000000E+00 -0.35302484476E+02  0.35302484476E+02  0.00000000000E+00 0.  1.
         23    2    1    2    0    0 -0.33583909665E+02 -0.86857867380E+01  0.15993181426E+03  0.20595665831E+03  0.12504654338E+03 0.  0.
          5    1    3    3  502    0  0.31373176323E+02 -0.35202380920E+02  0.24337074503E+02  0.53228276418E+02  0.41800000000E+01 0.  1.
         -5    1    3    3    0  502 -0.64957085988E+02  0.26516594182E+02  0.13559473975E+03  0.15272838189E+03  0.41800000000E+01 0.  1.
        -11    1    1    2    0    0  0.57720551847E+02 -0.31418977969E+01  0.67696059226E+02  0.89018481575E+02  0.00000000000E+00 0.  1.
         11    1    1    2    0    0 -0.24136642182E+02  0.11827684535E+02  0.10925782529E+03  0.11251552783E+03  0.00000000000E+00 0. -1.
</event>
<event>
 7    1  0.6473813E-006  0.9488135E+02  0.7561462E-02  0.1291444E+00
         -3   -1    0    0    0  501 -0.00000000000E+00  0.00000000000E+00  0.16613475123E+03  0.16613475123E+03  0.00000000000E+00 0.  1.
          3   -1    0    0  501    0  0.00000000000E+00 -0.00000000000E+00 -0.13409501120E+03  0.13409501120E+03  0.00000000000E+00 0. -1.
         23    2    1    2    0    0  0.13478741599E+02  0.92240027980E+02  0.60021150662E+02  0.16715146774E+03  0.12508867016E+03 0.  0.
          5    1    3    3  502    0 -0.32003200980E+00  0.66366091979E+02  0.98343867919E+02  0.11871625559E+03  0.41800000000E+01 0.  1.
         -5    1    3    3    0  502  0.13798773608E+02  0.25873936002E+02 -0.38322717257E+02  0.48435212142E+02  0.41800000000E+01 0.  1.
        -11    1    1    2    0    0 -0.12161125737E+02 -0.52800549418E+02  0.30765519549E+02  0.62308171143E+02  0.00000000000E+00 0.  1.
         11    1    1    2    0    0 -0.13176158613E+01 -0.39439478562E+02 -0.58746930182E+02  0.70770123545E+02  0.00000000000E+00 0. -1.
</event>
<event>
 7    1  0.6473813E-006  0.1060491E+03  0.7561462E-02  0.1268066E+00
          3   -1    0    0  501    0  0.00000000000E+00  0.00000000000E+00  0.13278775693E+03  0.13278775693E+03  0.00000000000E+00 0. -1.
         -3   -1    0    0    0  501 -0.00000000000E+00 -0.00000000000E+00 -0.14173399816E+03  0.14173399816E+03  0.00000000000E+00 0.  1.
         23    2    1    2    0    0  0.31775405421E+02 -0.73561736943E+02 -0.27866852836E+02  0.15114592546E+03  0.12509006261E+03 0.  0.
          5    1    3    3  502    0  0.97798079984E+01  0.24709985250E+02 -0.41481082824E+02  0.49440678068E+02  0.41800000000E+01 0.  1.
         -5    1    3    3    0  502  0.21995597423E+02 -0.98271722194E+02  0.13614229988E+02  0.10170524739E+03  0.41800000000E+01 0.  1.
        -11    1    1    2    0    0 -0.23980368674E+02  0.22932217589E+02  0.52513276322E+02  0.62117540803E+02  0.00000000000E+00 0. -1.
         11    1    1    2    0    0 -0.77950367469E+01  0.50629519354E+02 -0.33592664718E+02  0.61258288833E+02  0.00000000000E+00 0.  1.
</event>
<event>
 7    1  0.6473813E-006  0.9761579E+02  0.7561462E-02  0.1285391E+00
         -1   -1    0    0    0  501 -0.00000000000E+00  0.00000000000E+00  0.35008683333E+02  0.35008683333E+02  0.00000000000E+00 0.  1.
          1   -1    0    0  501    0  0.00000000000E+00 -0.00000000000E+00 -0.38184891145E+03  0.38184891145E+03  0.00000000000E+00 0. -1.
         23    2    1    2    0    0 -0.20640465958E+02 -0.21432764714E+02 -0.14946156507E+03  0.19715907903E+03  0.12509017056E+03 0.  0.
          5    1    3    3  502    0  0.34561552620E+02  0.31037672003E+02 -0.30105903313E+02  0.55512843713E+02  0.41800000000E+01 0.  1.
         -5    1    3    3    0  502 -0.55202018578E+02 -0.52470436717E+02 -0.11935566176E+03  0.14164623531E+03  0.41800000000E+01 0.  1.
        -11    1    1    2    0    0 -0.12624805016E+02  0.34376569257E+02 -0.26684760719E+02  0.45312367740E+02  0.00000000000E+00 0.  1.
         11    1    1    2    0    0  0.33265270974E+02 -0.12943804543E+02 -0.17069390232E+03  0.17438614801E+03  0.00000000000E+00 0. -1.
</event>
<event>
 7    1  0.6473813E-006  0.1206521E+03  0.7561462E-02  0.1242025E+00
          1   -1    0    0  501    0  0.00000000000E+00  0.00000000000E+00  0.15221665705E+03  0.15221665705E+03  0.00000000000E+00 0. -1.
         -1   -1    0    0    0  501 -0.00000000000E+00 -0.00000000000E+00 -0.16445113965E+03  0.16445113965E+03  0.00000000000E+00 0.  1.
         23    2    1    2    0    0  0.82175019541E+02  0.33798569093E+01 -0.85407907941E+02  0.17235837380E+03  0.12509492799E+03 0.  0.
          5    1    3    3  502    0  0.11265375231E+03 -0.61481407231E+01 -0.47148211008E+02  0.12234824782E+03  0.41800000000E+01 0.  1.
         -5    1    3    3    0  502 -0.30478732771E+02  0.95279976324E+01 -0.38259696933E+02  0.50010125971E+02  0.41800000000E+01 0.  1.
        -11    1    1    2    0    0 -0.25590450737E+02 -0.24857674060E+02 -0.13882520250E+02  0.38281842916E+02  0.00000000000E+00 0.  1.
         11    1    1    2    0    0 -0.56584568804E+02  0.21477817151E+02  0.87055945586E+02  0.10602757999E+03  0.00000000000E+00 0. -1.
</event>
<event>
 7    1  0.6473813E-006  0.1013055E+03  0.7561462E-02  0.1277574E+00
         -2   -1    0    0    0  501 -0.00000000000E+00  0.00000000000E+00  0.36395896959E+02  0.36395896959E+02  0.00000000000E+00 0.  1.
          2   -1    0    0  501    0  0.00000000000E+00 -0.00000000000E+00 -0.44016118848E+03  0.44016118848E+03  0.00000000000E+00 0. -1.
         23    2    1    2    0    0 -0.84564173881E+01 -0.59979990138E+02 -0.16399609156E+03  0.21280793677E+03  0.12133997566E+03 0.  0.
          5    1    3    3  502    0 -0.29033943845E+02 -0.68093385384E+02 -0.17326625708E+03  0.18846311912E+03  0.41800000000E+01 0. -1.
         -5    1    3    3    0  502  0.20577526457E+02  0.81133952466E+01  0.92701655187E+01  0.24344817647E+02  0.41800000000E+01 0.  1.
        -11    1    1    2    0    0 -0.39283302970E+02  0.22564579289E+02 -0.13832637844E+03  0.14555591745E+03  0.00000000000E+00 0.  1.
         11    1    1    2    0    0  0.47739720358E+02  0.37415410849E+02 -0.10144282152E+03  0.11819323122E+03  0.00000000000E+00 0. -1.
</event>
<event>
 7    1  0.6473813E-006  0.1110465E+03  0.7561462E-02  0.1258644E+00
          2   -1    0    0  501    0  0.00000000000E+00  0.00000000000E+00  0.30596199062E+03  0.30596199062E+03  0.00000000000E+00 0. -1.
         -2   -1    0    0    0  501 -0.00000000000E+00 -0.00000000000E+00 -0.69048266248E+02  0.69048266248E+02  0.00000000000E+00 0.  1.
         23    2    1    2    0    0 -0.14494274593E+02 -0.78008954010E+02  0.54455385042E+02  0.15782402201E+03  0.12509017572E+03 0.  0.
          5    1    3    3  502    0 -0.10068968066E+01  0.12603414427E+02 -0.30207822089E+02  0.33012797697E+02  0.41800000000E+01 0.  1.
         -5    1    3    3    0  502 -0.13487377786E+02 -0.90612368436E+02  0.84663207131E+02  0.12481122431E+03  0.41800000000E+01 0.  1.
        -11    1    1    2    0    0  0.50791721023E+02  0.41522895852E+02  0.11415766671E+03  0.13166595108E+03  0.00000000000E+00 0.  1.
         11    1    1    2    0    0 -0.36297446430E+02  0.36486058158E+02  0.68300672620E+02  0.85520283778E+02  0.00000000000E+00 0. -1.
</event>
<event>
 7    1  0.6473813E-006  0.5888531E+02  0.7561462E-02  0.1402570E+00
         -3   -1    0    0    0  501 -0.00000000000E+00  0.00000000000E+00  0.18872836114E+03  0.18872836114E+03  0.00000000000E+00 0.  1.
          3   -1    0    0  501    0  0.00000000000E+00 -0.00000000000E+00 -0.71270149067E+02  0.71270149067E+02  0.00000000000E+00 0. -1.
         23    2    1    2    0    0 -0.66854828085E+01  0.28150219229E+02  0.99113551195E+02  0.16219722266E+03  0.12508921809E+03 0.  0.
          5    1    3    3  502    0 -0.16371301503E+02  0.16925051288E+02 -0.26469296338E+02  0.35673140072E+02  0.41800000000E+01 0. -1.
         -5    1    3    3    0  502  0.96858186946E+01  0.11225167941E+02  0.12558284753E+03  0.12652408258E+03  0.41800000000E+01 0. -1.
        -11    1    1    2    0    0 -0.33267394594E+02 -0.12285012271E+02  0.36721797418E+02  0.51050283792E+02  0.00000000000E+00 0.  1.
         11    1    1    2    0    0  0.39952877403E+02 -0.15865206958E+02 -0.18377136545E+02  0.46751003756E+02  0.00000000000E+00 0. -1.
</event>
<event>
 7    1  0.6473813E-006  0.8608372E+02  0.7561462E-02  0.1312623E+00
          2   -1    0    0  501    0  0.00000000000E+00  0.00000000000E+00  0.26475005328E+03  0.26475005328E+03  0.00000000000E+00 0. -1.
         -2   -1    0    0    0  501 -0.00000000000E+00 -0.00000000000E+00 -0.51682305969E+02  0.51682305969E+02  0.00000000000E+00 0.  1.
         23    2    1    2    0    0 -0.24081605786E+02  0.35866211423E+02  0.11401483711E+03  0.17468289941E+03  0.12509365854E+03 0.  0.
          5    1    3    3  502    0 -0.92112362304E-01  0.78944777076E+02  0.49116590928E+02  0.93070931105E+02  0.41800000000E+01 0.  1.
         -5    1    3    3    0  502 -0.23989493424E+02 -0.43078565653E+02  0.64898246184E+02  0.81611968309E+02  0.41800000000E+01 0.  1.
        -11    1    1    2    0    0  0.81720017478E+01 -0.17595817060E+02 -0.15394111051E+02  0.24766369246E+02  0.00000000000E+00 0.  1.
         11    1    1    2    0    0  0.15909604038E+02 -0.18270394363E+02  0.11444702125E+03  0.11698309059E+03  0.00000000000E+00 0. -1.
</event>
<event>
 7    1  0.6473813E-006  0.1510364E+03  0.7561462E-02  0.1199205E+00
         -4   -1    0    0    0  501 -0.00000000000E+00  0.00000000000E+00  0.15061626482E+03  0.15061626482E+03  0.00000000000E+00 0.  1.
          4   -1    0    0  501    0  0.00000000000E+00 -0.00000000000E+00 -0.16815980056E+03  0.16815980056E+03  0.00000000000E+00 0. -1.
         23    2    1    2    0    0 -0.85780727542E+02  0.35596898864E+02 -0.45315612474E+01  0.15470106069E+03  0.12363822510E+03 0.  0.
          5    1    3    3  502    0 -0.24077469741E+02  0.69840255975E+02 -0.29603487109E+02  0.79694571664E+02  0.41800000000E+01 0. -1.
         -5    1    3    3    0  502 -0.61703257801E+02 -0.34243357110E+02  0.25071925862E+02  0.75006489025E+02  0.41800000000E+01 0.  1.
        -11    1    1    2    0    0 -0.29375607496E+02 -0.30163031335E+02  0.16256454529E+02  0.45133214919E+02  0.00000000000E+00 0.  1.
         11    1    1    2    0    0  0.11515633504E+03 -0.54338675291E+01 -0.29268429019E+02  0.11894178977E+03  0.00000000000E+00 0. -1.
</event>
<event>
 7    1  0.6473813E-006  0.1731555E+03  0.7561462E-02  0.1174597E+00
         -2   -1    0    0    0  501 -0.00000000000E+00  0.00000000000E+00  0.14362870756E+03  0.14362870756E+03  0.00000000000E+00 0.  1.
          2   -1    0    0  501    0  0.00000000000E+00 -0.00000000000E+00 -0.67449323634E+03  0.67449323634E+03  0.00000000000E+00 0. -1.
         23    2    1    2    0    0  0.59049134813E+02 -0.12743957592E+03  0.65231594146E+02  0.19907385738E+03  0.12509034330E+03 0.  0.
          5    1    3    3  502    0  0.50073335431E+02  0.55310039161E+01  0.37347042579E+02  0.62850655644E+02  0.41800000000E+01 0. -1.
         -5    1    3    3    0  502  0.89757993815E+01 -0.13297057983E+03  0.27884551567E+02  0.13622320174E+03  0.41800000000E+01 0. -1.
        -11    1    1    2    0    0 -0.79204200216E+02  0.89903040867E+02 -0.36821877531E+03  0.38722206623E+03  0.00000000000E+00 0.  1.
         11    1    1    2    0    0  0.20155065403E+02  0.37536535049E+02 -0.22787734762E+03  0.23182602029E+03  0.00000000000E+00 0. -1.
</event>
<event>
 7    1  0.6473813E-006  0.1186807E+03  0.7561462E-02  0.1245289E+00
         -2   -1    0    0    0  501 -0.00000000000E+00  0.00000000000E+00  0.13228636953E+04  0.13228636953E+04  0.00000000000E+00 0.  1.
          2   -1    0    0  501    0  0.00000000000E+00 -0.00000000000E+00 -0.17160843454E+02  0.17160843454E+02  0.00000000000E+00 0. -1.
         23    2    1    2    0    0  0.53374979798E+02 -0.84670469137E+02  0.84066920739E+03  0.85579735649E+03  0.12508565989E+03 0.  0.
          5    1    3    3  502    0  0.14370457586E+02 -0.44626164561E+02  0.78217722146E+02  0.91287945931E+02  0.41800000000E+01 0. -1.
         -5    1    3    3    0  502  0.39004522212E+02 -0.40044304575E+02  0.76245148524E+03  0.76450941056E+03  0.41800000000E+01 0. -1.
        -11    1    1    2    0    0 -0.71366321570E+02  0.31325881214E+02  0.29465881338E+03  0.30479218985E+03  0.00000000000E+00 0.  1.
         11    1    1    2    0    0  0.17991341772E+02  0.53344587922E+02  0.17037483104E+03  0.17943499238E+03  0.00000000000E+00 0. -1.
</event>
<event>
 7    1  0.6473813E-006  0.1056964E+03  0.7561462E-02  0.1268754E+00
         -1   -1    0    0    0  501 -0.00000000000E+00  0.00000000000E+00  0.19849888768E+03  0.19849888768E+03  0.00000000000E+00 0.  1.
          1   -1    0    0  501    0  0.00000000000E+00 -0.00000000000E+00 -0.95170282705E+02  0.95170282705E+02  0.00000000000E+00 0. -1.
         23    2    1    2    0    0  0.17166005429E+02 -0.76238452661E+02  0.93387398181E+02  0.17457125956E+03  0.12508774968E+03 0.  0.
          5    1    3    3  502    0  0.36189136569E+02 -0.14565510427E+01  0.90131295045E+02  0.97226014487E+02  0.41800000000E+01 0.  1.
         -5    1    3    3    0  502 -0.19023131139E+02 -0.74781901619E+02  0.32561031353E+01  0.77345245075E+02  0.41800000000E+01 0.  1.
        -11    1    1    2    0    0 -0.39065232584E+02  0.46661258791E+02 -0.27337734337E+02  0.66713695651E+02  0.00000000000E+00 0. -1.
         11    1    1    2    0    0  0.21899227154E+02  0.29577193871E+02  0.37278941128E+02  0.52384215168E+02  0.00000000000E+00 0.  1.
</event>
<event>
 7    1  0.6473813E-006  0.1165766E+03  0.7561462E-02  0.1248854E+00
          2   -1    0    0  501    0  0.00000000000E+00  0.00000000000E+00  0.39141657276E+03  0.39141657276E+03  0.00000000000E+00 0. -1.
         -2   -1    0    0    0  501 -0.00000000000E+00 -0.00000000000E+00 -0.51091173561E+02  0.51091173561E+02  0.00000000000E+00 0.  1.
         23    2    1    2    0    0  0.43991681386E+02 -0.53951271105E+02  0.96048500449E+02  0.17239064721E+03  0.12508882092E+03 0.  0.
          5    1    3    3  502    0  0.31633083474E+02  0.31197296293E+02  0.17355048849E+01  0.44658791332E+02  0.41800000000E+01 0. -1.
         -5    1    3    3    0  502  0.12358597913E+02 -0.85148567399E+02  0.94312995565E+02  0.12773185587E+03  0.41800000000E+01 0. -1.
        -11    1    1    2    0    0  0.10644050815E+02  0.45950903186E+02  0.52626818813E+02  0.70670809955E+02  0.00000000000E+00 0.  1.
         11    1    1    2    0    0 -0.54635732201E+02  0.80003679196E+01  0.19165007994E+03  0.19944628916E+03  0.00000000000E+00 0. -1.
</event>
<event>
 7    1  0.6473813E-006  0.8020272E+02  0.7561462E-02  0.1328477E+00
          1   -1    0    0  501    0  0.00000000000E+00  0.00000000000E+00  0.15479598936E+03  0.15479598936E+03  0.00000000000E+00 0. -1.
         -1   -1    0    0    0  501 -0.00000000000E+00 -0.00000000000E+00 -0.10714564334E+03  0.10714564334E+03  0.00000000000E+00 0.  1.
         23    2    1    2    0    0 -0.16446969225E+02 -0.63312608961E+02  0.30923285422E+01  0.14119563462E+03  0.12509058914E+03 0.  0.
          5    1    3    3  502    0 -0.15092663204E+01 -0.43665942795E+01 -0.55973501002E+02  0.56319181855E+02  0.41800000000E+01 0. -1.
         -5    1    3    3    0  502 -0.14937702905E+02 -0.58946014682E+02  0.59065829544E+02  0.84876452769E+02  0.41800000000E+01 0. -1.
        -11    1    1    2    0    0 -0.11325017725E+02  0.64439860973E+02 -0.31812901842E+01  0.65504750331E+02  0.00000000000E+00 0.  1.
         11    1    1    2    0    0  0.27771986950E+02 -0.11272520121E+01  0.47739307662E+02  0.55241247743E+02  0.00000000000E+00 0. -1.
</event>
<event>
 7    1  0.6473813E-006  0.1001063E+03  0.7561462E-02  0.1280073E+00
          1   -1    0    0  501    0  0.00000000000E+00  0.00000000000E+00  0.94347959169E+02  0.94347959169E+02  0.00000000000E+00 0. -1.
         -1   -1    0    0    0  501 -0.00000000000E+00 -0.00000000000E+00 -0.16513038379E+03  0.16513038379E+03  0.00000000000E+00 0.  1.
         23    2    1    2    0    0  0.48090505156E+02  0.13753833616E+01 -0.80112438008E+02  0.15614976583E+03  0.12510059264E+03 0.  0.
          5    1    3    3  502    0  0.43244881661E+02  0.39516321306E+02  0.86171410115E+01  0.59358124622E+02  0.41800000000E+01 0. -1.
         -5    1    3    3    0  502  0.48456234954E+01 -0.38140937945E+02 -0.88729579020E+02  0.96791641206E+02  0.41800000000E+01 0. -1.
        -11    1    1    2    0    0 -0.48673308716E+02  0.39036325890E+02  0.78542709268E+01  0.62885732024E+02  0.00000000000E+00 0. -1.
         11    1    1    2    0    0  0.58280355987E+00 -0.40411709251E+02  0.14757424595E+01  0.40442845108E+02  0.00000000000E+00 0.  1.
</event>
<event>
 6    1  0.6473813E-006  0.1086348E+03  0.7561462E-02  0.1263119E+00
         -3   -1    0    0    0  501 -0.00000000000E+00  0.00000000000E+00  0.56698844255E+02  0.56698844255E+02  0.00000000000E+00 0.  1.
          3   -1    0    0  501    0  0.00000000000E+00 -0.00000000000E+00 -0.29556895497E+03  0.29556895497E+03  0.00000000000E+00 0. -1.
          5    1    1    2  502    0  0.87273764497E+01  0.71637766308E+02 -0.18947661160E+02  0.74730334702E+02  0.41800000000E+01 0. -1.
         -5    1    1    2    0  502 -0.37526442448E+00 -0.65930222612E+02 -0.42679511935E+02  0.78650799208E+02  0.41800000000E+01 0.  1.
        -11    1    1    2    0    0  0.30846606343E+02  0.15312936322E+02 -0.12789997895E+03  0.13245528965E+03  0.00000000000E+00 0. -1.
         11    1    1    2    0    0 -0.39198718369E+02 -0.21020480018E+02 -0.49342958666E+02  0.66431375658E+02  0.00000000000E+00 0.  1.
</event>
<event>
 7    1  0.6473813E-006  0.1522784E+03  0.7561462E-02  0.1197701E+00
          2   -1    0    0  501    0  0.00000000000E+00  0.00000000000E+00  0.46428888513E+03  0.46428888513E+03  0.00000000000E+00 0.  1.
         -2   -1    0    0    0  501 -0.00000000000E+00 -0.00000000000E+00 -0.81692965821E+02  0.81692965821E+02  0.00000000000E+00 0. -1.
         23    2    1    2    0    0  0.63778466810E+02 -0.10132111907E+03  0.49251744608E+02  0.18001892336E+03  0.12508963356E+03 0.  0.
          5    1    3    3  502    0  0.98237249159E+02 -0.82372747645E+02  0.17818947052E+02  0.12950217740E+03  0.41800000000E+01 0. -1.
         -5    1    3    3    0  502 -0.34458782350E+02 -0.18948371424E+02  0.31432797556E+02  0.50516745964E+02  0.41800000000E+01 0. -1.
        -11    1    1    2    0    0 -0.24011438792E+02  0.93081127609E+02  0.14988325330E+03  0.17806076246E+03  0.00000000000E+00 0. -1.
         11    1    1    2    0    0 -0.39767028017E+02  0.82399914599E+01  0.18346092140E+03  0.18790216512E+03  0.00000000000E+00 0.  1.
</event>
<event>
 7    1  0.6473813E-006  0.1186402E+03  0.7561462E-02  0.1245357E+00
          1   -1    0    0  501    0  0.00000000000E+00  0.00000000000E+00  0.43331866164E+03  0.43331866164E+03  0.00000000000E+00 0. -1.
         -1   -1    0    0    0  501 -0.00000000000E+00 -0.00000000000E+00 -0.36520771525E+02  0.36520771525E+02  0.00000000000E+00 0.  1.
         23    2    1    2    0    0  0.59809127739E+02  0.21207449973E+02  0.19232662953E+03  0.23804073117E+03  0.12508784743E+03 0.  0.
          5    1    3    3  502    0 -0.17794095156E+02  0.52998897195E+02  0.83804190566E+02  0.10082721697E+03  0.41800000000E+01 0.  1.
         -5    1    3    3    0  502  0.77603222895E+02 -0.31791447222E+02  0.10852243896E+03  0.13721351420E+03  0.41800000000E+01 0.  1.
        -11    1    1    2    0    0 -0.50078496294E+02  0.20730107771E+02  0.59114669537E+02  0.80200606692E+02  0.00000000000E+00 0. -1.
         11    1    1    2    0    0 -0.97306314448E+01 -0.41937557744E+02  0.14535659105E+03  0.15159809530E+03  0.00000000000E+00 0.  1.
</event>
<event>
 6    1  0.6473813E-006  0.1968804E+03  0.7561462E-02  0.1152398E+00
          1   -1    0    0  501    0  0.00000000000E+00  0.00000000000E+00  0.16689676433E+03  0.16689676433E+03  0.00000000000E+00 0. -1.
         -1   -1    0    0    0  501 -0.00000000000E+00 -0.00000000000E+00 -0.25965623775E+03  0.25965623775E+03  0.00000000000E+00 0.  1.
          5    1    1    2  502    0 -0.85447031891E+02  0.98521466769E+02 -0.33254010283E+02  0.13465131367E+03  0.41800000000E+01 0. -1.
         -5    1    1    2    0  502  0.71067858002E+02 -0.15825582381E+03 -0.57017620953E+02  0.18265822651E+03  0.41800000000E+01 0.  1.
        -11    1    1    2    0    0 -0.25525802452E+02  0.14223050286E+02 -0.30769487549E+02  0.42433749708E+02  0.00000000000E+00 0.  1.
         11    1    1    2    0    0  0.39904976341E+02  0.45511306756E+02  0.28281645362E+02  0.66809712197E+02  0.00000000000E+00 0. -1.
</event>
<event>
 7    1  0.6473813E-006  0.1131976E+03  0.7561462E-02  0.1254760E+00
         -2   -1    0    0    0  501 -0.00000000000E+00  0.00000000000E+00  0.52740984267E+03  0.52740984267E+03  0.00000000000E+00 0.  1.
          2   -1    0    0  501    0  0.00000000000E+00 -0.00000000000E+00 -0.30798861820E+02  0.30798861820E+02  0.00000000000E+00 0. -1.
         23    2    1    2    0    0  0.57824181079E+02 -0.33875458288E+02  0.28533131033E+03  0.31867336887E+03  0.12509027452E+03 0.  0.
          5    1    3    3  502    0  0.39853585805E+02 -0.67369410733E+02  0.26290708315E+03  0.27434385828E+03  0.41800000000E+01 0. -1.
         -5    1    3    3    0  502  0.17970595274E+02  0.33493952445E+02  0.22424227184E+02  0.44329510596E+02  0.41800000000E+01 0. -1.
        -11    1    1    2    0    0  0.10026104595E+02 -0.20499058170E+02  0.24342081178E+02  0.33365717066E+02  0.00000000000E+00 0.  1.
         11    1    1    2    0    0 -0.67850285674E+02  0.54374516459E+02  0.18693758934E+03  0.20616961855E+03  0.00000000000E+00 0. -1.
</event>
<event>
 6    1  0.6473813E-006  0.1673772E+03  0.7561462E-02  0.1180611E+00
          2   -1    0    0  501    0  0.00000000000E+00  0.00000000000E+00  0.63441013617E+02  0.63441013617E+02  0.00000000000E+00 0. -1.
         -2   -1    0    0    0  501 -0.00000000000E+00 -0.00000000000E+00 -0.12732966590E+04  0.12732966590E+04  0.00000000000E+00 0.  1.
          5    1    1    2  502    0  0.17207280359E+02  0.14011316163E+02  0.27849921694E+02  0.35853842421E+02  0.41800000000E+01 0. -1.
         -5    1    1    2    0  502 -0.13697150919E+03  0.42843131897E+02 -0.98889026352E+03  0.99925880230E+03  0.41800000000E+01 0.  1.
        -11    1    1    2    0    0  0.15592049277E+02 -0.62360143095E+02 -0.11732944286E+03  0.13378377185E+03  0.00000000000E+00 0. -1.
         11    1    1    2    0    0  0.10417217955E+03  0.55056950348E+01 -0.13148586069E+03  0.16784125605E+03  0.00000000000E+00 0.  1.
</event>
<event>
 7    1  0.6473813E-006  0.8526286E+02  0.7561462E-02  0.1314747E+00
         -1   -1    0    0    0  501 -0.00000000000E+00  0.00000000000E+00  0.22892109734E+02  0.22892109734E+02  0.00000000000E+00 0.  1.
          1   -1    0    0  501    0  0.00000000000E+00 -0.00000000000E+00 -0.48647332779E+03  0.48647332779E+03  0.00000000000E+00 0. -1.
         23    2    1    2    0    0 -0.21151077271E+02 -0.39288588977E+02 -0.35378541075E+03  0.37542100534E+03  0.11741317259E+03 0.  0.
          5    1    3    3  502    0 -0.58932033597E+02  0.55649495852E+01 -0.24138738445E+03  0.24857452608E+03  0.41800000000E+01 0. -1.
         -5    1    3    3    0  502  0.37780956327E+02 -0.44853538562E+02 -0.11239802630E+03  0.12684647925E+03  0.41800000000E+01 0.  1.
        -11    1    1    2    0    0  0.27845634140E+01  0.32789965328E+02 -0.10962880453E+03  0.11446139263E+03  0.00000000000E+00 0. -1.
         11    1    1    2    0    0  0.18366513857E+02  0.64986236494E+01 -0.16700277944E+00  0.19483039560E+02  0.00000000000E+00 0.  1.
</event>
<event>
 7    1  0.6473813E-006  0.1212983E+03  0.7561462E-02  0.1240971E+00
          1   -1    0    0  501    0  0.00000000000E+00  0.00000000000E+00  0.42965237111E+03  0.42965237111E+03  0.00000000000E+00 0. -1.
         -1   -1    0    0    0  501 -0.00000000000E+00 -0.00000000000E+00 -0.44791453932E+02  0.44791453932E+02  0.00000000000E+00 0.  1.
         23    2    1    2    0    0 -0.31637675695E+02 -0.75189910491E+02  0.16079125600E+03  0.21945358007E+03  0.12510627738E+03 0.  0.
          5    1    3    3  502    0 -0.62319191807E+02 -0.36461488313E+02  0.15303652600E+03  0.16926539070E+03  0.41800000000E+01 0.  1.
         -5    1    3    3    0  502  0.30681516113E+02 -0.38728422178E+02  0.77547299943E+01  0.50188189374E+02  0.41800000000E+01 0.  1.
        -11    1    1    2    0    0 -0.29412961293E+02  0.92670229102E+01  0.72572219121E+02  0.78852564916E+02  0.00000000000E+00 0. -1.
         11    1    1    2    0    0  0.61050636987E+02  0.65922887581E+02  0.15149744206E+03  0.17613768005E+03  0.00000000000E+00 0.  1.
</event>
<event>
 7    1  0.6473813E-006  0.1025573E+03  0.7561462E-02  0.1275008E+00
         -2   -1    0    0    0  501 -0.00000000000E+00  0.00000000000E+00  0.54698280185E+02  0.54698280185E+02  0.00000000000E+00 0.  1.
          2   -1    0    0  501    0  0.00000000000E+00 -0.00000000000E+00 -0.29765208752E+03  0.29765208752E+03  0.00000000000E+00 0. -1.
         23    2    1    2    0    0 -0.61179471789E+02  0.24674053362E+02 -0.12089783091E+03  0.18605188596E+03  0.12508909653E+03 0.  0.
          5    1    3    3  502    0  0.18976426153E+02 -0.31392213571E+02 -0.60918965661E+02  0.71233198718E+02  0.41800000000E+01 0. -1.
         -5    1    3    3    0  502 -0.80155897942E+02  0.56066266933E+02 -0.59978865252E+02  0.11481868724E+03  0.41800000000E+01 0. -1.
        -11    1    1    2    0    0  0.11931577259E+02 -0.16506164949E+02  0.11729228969E+02  0.23502996180E+02  0.00000000000E+00 0.  1.
         11    1    1    2    0    0  0.49247894530E+02 -0.81678884130E+01 -0.13378520539E+03  0.14279548557E+03  0.00000000000E+00 0. -1.
</event>
<event>
 7    1  0.6473813E-006  0.1498438E+03  0.7561462E-02  0.1200665E+00
         -1   -1    0    0    0  501 -0.00000000000E+00  0.00000000000E+00  0.21212946227E+03  0.21212946227E+03  0.00000000000E+00 0.  1.
          1   -1    0    0  501    0  0.00000000000E+00 -0.00000000000E+00 -0.11053148095E+03  0.11053148095E+03  0.00000000000E+00 0. -1.
         23    2    1    2    0    0  0.95989546646E+02  0.44703710331E+02  0.80548575113E+02  0.18138430014E+03  0.12328737406E+03 0.  0.
          5    1    3    3  502    0  0.59429272421E+01 -0.38821638304E+02  0.22748595961E+02  0.45578602469E+02  0.41800000000E+01 0. -1.
         -5    1    3    3    0  502  0.90046619404E+02  0.83525348635E+02  0.57799979152E+02  0.13580569767E+03  0.41800000000E+01 0.  1.
        -11    1    1    2    0    0 -0.33108081315E+02 -0.63548469968E+02  0.23993483540E+02  0.75566132202E+02  0.00000000000E+00 0.  1.
         11    1    1    2    0    0 -0.62881465331E+02  0.18844759637E+02 -0.29440773320E+01  0.65710510874E+02  0.00000000000E+00 0. -1.
</event>
<event>
 7    1  0.6473813E-006  0.8722913E+02  0.7561462E-02  0.1309704E+00
          3   -1    0    0  501    0  0.00000000000E+00  0.00000000000E+00  0.11344445850E+03  0.11344445850E+03  0.00000000000E+00 0. -1.
         -3   -1    0    0    0  501 -0.00000000000E+00 -0.00000000000E+00 -0.11753704575E+03  0.11753704575E+03  0.00000000000E+00 0.  1.
         23    2    1    2    0    0 -0.37234240942E+02  0.18167066280E+02 -0.10497867982E+02  0.13219139126E+03  0.12509167717E+03 0.  0.
          5    1    3    3  502    0 -0.42807957987E+02 -0.43948920102E+02 -0.27577359200E+02  0.67394450703E+02  0.41800000000E+01 0.  1.
         -5    1    3    3    0  502  0.55737170459E+01  0.62115986382E+02  0.17079491218E+02  0.64796940562E+02  0.41800000000E+01 0.  1.
        -11    1    1    2    0    0  0.12414526226E+02 -0.22081812680E+02  0.45640152060E+02  0.52199141686E+02  0.00000000000E+00 0. -1.
         11    1    1    2    0    0  0.24819714716E+02  0.39147463995E+01 -0.39234871326E+02  0.46590971292E+02  0.00000000000E+00 0.  1.
</event>
<event>
 7    1  0.6473813E-006  0.1451019E+03  0.7561462E-02  0.1206624E+00
         -3   -1    0    0    0  501 -0.00000000000E+00  0.00000000000E+00  0.54211513099E+02  0.54211513099E+02  0.00000000000E+00 0.  1.
          3   -1    0    0  501    0  0.00000000000E+00 -0.00000000000E+00 -0.58698166751E+03  0.58698166751E+03  0.00000000000E+00 0. -1.
         23    2    1    2    0    0 -0.34329939207E+02 -0.10827365593E+03 -0.13115907348E+03  0.21389572696E+03  0.12508776983E+03 0.  0.
          5    1    3    3  502    0  0.16776419624E+02 -0.97589485047E+02 -0.12736112302E+03  0.16137993650E+03  0.41800000000E+01 0. -1.
         -5    1    3    3    0  502 -0.51106358830E+02 -0.10684170885E+02 -0.37979504641E+01  0.52515790465E+02  0.41800000000E+01 0. -1.
        -11    1    1    2    0    0  0.25362545388E+02 -0.43528129502E+01 -0.33530556111E+02  0.42267054336E+02  0.00000000000E+00 0. -1.
         11    1    1    2    0    0  0.89673938187E+01  0.11262646888E+03 -0.36808052482E+03  0.38503039932E+03  0.00000000000E+00 0.  1.
</event>
<event>
 7    1  0.6473813E-006  0.1179361E+03  0.7561462E-02  0.1246541E+00
         -2   -1    0    0    0  501 -0.00000000000E+00  0.00000000000E+00  0.71343560399E+02  0.71343560399E+02  0.00000000000E+00 0.  1.
          2   -1    0    0  501    0  0.00000000000E+00 -0.00000000000E+00 -0.31785361821E+03  0.31785361821E+03  0.00000000000E+00 0. -1.
         23    2    1    2    0    0 -0.51102648466E+02 -0.82037585477E+02 -0.83555315761E+02  0.17880663380E+03  0.12509466570E+03 0.  0.
          5    1    3    3  502    0 -0.29077521413E+02 -0.74023687810E+02 -0.11467982658E+03  0.13962071348E+03  0.41800000000E+01 0.  1.
         -5    1    3    3    0  502 -0.22025127053E+02 -0.80138976667E+01  0.31124510817E+02  0.39185920318E+02  0.41800000000E+01 0.  1.
        -11    1    1    2    0    0  0.61751416396E+02  0.13687287162E+02 -0.88271280556E+02  0.10859280928E+03  0.00000000000E+00 0.  1.
         11    1    1    2    0    0 -0.10648767930E+02  0.68350298315E+02 -0.74683461495E+02  0.10179773553E+03  0.00000000000E+00 0. -1.
</event>
<event>
 7    1  0.6473813E-006  0.9118909E+02  0.7561462E-02  0.1299997E+00
         -1   -1    0    0    0  501 -0.00000000000E+00  0.00000000000E+00  0.28316177776E+03  0.28316177776E+03  0.00000000000E+00 0.  1.
          1   -1    0    0  501    0  0.00000000000E+00 -0.00000000000E+00 -0.92717944898E+02  0.92717944898E+02  0.00000000000E+00 0. -1.
         23    2    1    2    0    0 -0.77542705639E+00  0.30097202652E+02  0.24091688382E+03  0.27312010618E+03  0.12508878685E+03 0.  0.
          5    1    3    3  502    0  0.45769698839E+02  0.86413858487E+01  0.20532075774E+03  0.21057926024E+03  0.41800000000E+01 0.  1.
         -5    1    3    3    0  502 -0.46545125895E+02  0.21455816804E+02  0.35596126073E+02  0.62540845939E+02  0.41800000000E+01 0.  1.
        -11    1    1    2    0    0 -0.97922763186E+01 -0.55667508691E+02 -0.49405492544E+02  0.75071052296E+02  0.00000000000E+00 0. -1.
         11    1    1    2    0    0  0.10567703375E+02  0.25570306038E+02 -0.10675584168E+01  0.27688564182E+02  0.00000000000E+00 0.  1.
</event>
<event>
 7    1  0.6473813E-006  0.4918132E+02  0.7561462E-02  0.1449808E+00
          1   -1    0    0  501    0  0.00000000000E+00  0.00000000000E+00  0.36614288079E+02  0.36614288079E+02  0.00000000000E+00 0. -1.
         -1   -1    0    0    0  501 -0.00000000000E+00 -0.00000000000E+00 -0.42125486408E+03  0.42125486408E+03  0.00000000000E+00 0.  1.
         23    2    1    2    0    0  0.12594970744E+02 -0.23790564022E+02 -0.33289117454E+03  0.35663371744E+03  0.12508577099E+03 0.  0.
          5    1    3    3  502    0  0.16691425968E+02  0.70505895480E+01 -0.32326498926E+03  0.32379938264E+03  0.41800000000E+01 0. -1.
         -5    1    3    3    0  502 -0.40964552239E+01 -0.30841153570E+02 -0.96261852782E+01  0.32834334802E+02  0.41800000000E+01 0. -1.
        -11    1    1    2    0    0  0.44528973531E+00 -0.11109807721E+02  0.18576722051E+02  0.21649958723E+02  0.00000000000E+00 0. -1.
         11    1    1    2    0    0 -0.13040260479E+02  0.34900371742E+02 -0.70326123511E+02  0.79585475994E+02  0.00000000000E+00 0.  1.
</event>
<event>
 7    1  0.6473813E-006  0.8836727E+02  0.7561462E-02  0.1306854E+00
         -2   -1    0    0    0  501 -0.00000000000E+00  0.00000000000E+00  0.21285473633E+03  0.21285473633E+03  0.00000000000E+00 0.  1.
          2   -1    0    0  501    0  0.00000000000E+00 -0.00000000000E+00 -0.75597760535E+02  0.75597760535E+02  0.00000000000E+00 0. -1.
         23    2    1    2    0    0 -0.25304087204E+02  0.47538356477E+02  0.11856041388E+03  0.18056130285E+03  0.12508245354E+03 0.  0.
          5    1    3    3  502    0 -0.16706692515E+02 -0.21778979020E+02  0.10586508340E+03  0.10944553799E+03  0.41800000000E+01 0.  1.
         -5    1    3    3    0  502 -0.85973946898E+01  0.69317335497E+02  0.12695330474E+02  0.71115764861E+02  0.41800000000E+01 0.  1.
        -11    1    1    2    0    0  0.41854771567E+02 -0.18911536070E+02 -0.25624859402E+02  0.52593740300E+02  0.00000000000E+00 0. -1.
         11    1    1    2    0    0 -0.16550684362E+02 -0.28626820408E+02  0.44321421323E+02  0.55297453717E+02  0.00000000000E+00 0.  1.
</event>
<event>
 7    1  0.6473813E-006  0.1074370E+03  0.7561462E-02  0.1265391E+00
          1   -1    0    0  501    0  0.00000000000E+00  0.00000000000E+00  0.34077117985E+03  0.34077117985E+03  0.00000000000E+00 0. -1.
         -1   -1    0    0    0  501 -0.00000000000E+00 -0.00000000000E+00 -0.55381978499E+02  0.55381978499E+02  0.00000000000E+00 0.  1.
         23    2    1    2    0    0  0.69730457409E+02 -0.43178887656E+02  0.18911709024E+03  0.24111766363E+03  0.12508277605E+03 0.  0.
          5    1    3    3  502    0  0.46086294112E+02 -0.17184810641E+01  0.29121438336E+00  0.46308280987E+02  0.41800000000E+01 0. -1.
         -5    1    3    3    0  502  0.23644163296E+02 -0.41460406592E+02  0.18882587586E+03  0.19480938264E+03  0.41800000000E+01 0. -1.
        -11    1    1    2    0    0 -0.50821235209E+02  0.70818355655E+02  0.60954780605E+02  0.10636504466E+03  0.00000000000E+00 0.  1.
         11    1    1    2    0    0 -0.18909222199E+02 -0.27639467999E+02  0.35317330508E+02  0.48670450066E+02  0.00000000000E+00 0. -1.
</event>
<event>
 7    1  0.6473813E-006  0.8318244E+02  0.7561462E-02  0.1320255E+00
          1   -1    0    0  501    0  0.00000000000E+00  0.00000000000E+00  0.30512561019E+03  0.30512561019E+03  0.00000000000E+00 0. -1.
         -1   -1    0    0    0  501 -0.00000000000E+00 -0.00000000000E+00 -0.43247742034E+02  0.43247742034E+02  0.00000000000E+00 0.  1.
         23    2    1    2    0    0 -0.63081998767E+01  0.17162941682E+02  0.97620052405E+02  0.15972263604E+03  0.12508911175E+03 0.  0.
          5    1    3    3  502    0  0.28972987198E+02 -0.22352027778E+02  0.99963574942E+02  0.10653279236E+03  0.41800000000E+01 0. -1.
         -5    1    3    3    0  502 -0.35281187074E+02  0.39514969459E+02 -0.23435225368E+01  0.53189843679E+02  0.41800000000E+01 0. -1.
        -11    1    1    2    0    0  0.23964675112E+02  0.22567857959E+02  0.12761227223E+03  0.13178962740E+03  0.00000000000E+00 0. -1.
         11    1    1    2    0    0 -0.17656475235E+02 -0.39730799641E+02  0.36645543517E+02  0.56861088782E+02  0.00000000000E+00 0.  1.
</event>
<event>
 7    1  0.6473813E-006  0.1704842E+03  0.7561462E-02  0.1177344E+00
         -2   -1    0    0    0  501 -0.00000000000E+00  0.00000000000E+00  0.10207572233E+03  0.10207572233E+03  0.00000000000E+00 0.  1.
          2   -1    0    0  501    0  0.00000000000E+00 -0.00000000000E+00 -0.38829780486E+03  0.38829780486E+03  0.00000000000E+00 0. -1.
         23    2    1    2    0    0 -0.14952969903E+03 -0.18703666834E+02 -0.61007611612E+02  0.20513319848E+03  0.12509493355E+03 0.  0.
          5    1    3    3  502    0 -0.40712043897E+02 -0.40297680604E+02 -0.73649454795E+02  0.93397474120E+02  0.41800000000E+01 0. -1.
         -5    1    3    3    0  502 -0.10881765513E+03  0.21594013770E+02  0.12641843183E+02  0.11173572436E+03  0.41800000000E+01 0. -1.
        -11    1    1    2    0    0  0.15500893483E+02 -0.26810129256E+02 -0.61228454315E+02  0.68614753132E+02  0.00000000000E+00 0. -1.
         11    1    1    2    0    0  0.13402880555E+03  0.45513796090E+02 -0.16398601660E+03  0.21662557557E+03  0.00000000000E+00 0.  1.
</event>
<event>
 7    1  0.6473813E-006  0.8655599E+02  0.7561462E-02  0.1311413E+00
         -1   -1    0    0    0  501 -0.00000000000E+00  0.00000000000E+00  0.38262843852E+03  0.38262843852E+03  0.00000000000E+00 0.  1.
          1   -1    0    0  501    0  0.00000000000E+00 -0.00000000000E+00 -0.47603409597E+02  0.47603409597E+02  0.00000000000E+00 0. -1.
         23    2    1    2    0    0 -0.42801164709E+02 -0.77380956457E+01  0.29235615328E+03  0.32095370939E+03  0.12508934961E+03 0.  0.
          5    1    3    3  502    0 -0.63781045909E+02 -0.49979067309E+02  0.21996741718E+03  0.23445482722E+03  0.41800000000E+01 0. -1.
         -5    1    3    3    0  502  0.20979881200E+02  0.42240971663E+02  0.72388736100E+02  0.86498882168E+02  0.41800000000E+01 0. -1.
        -11    1    1    2    0    0  0.13099230590E+02  0.71358784781E+01 -0.28494422748E+02  0.32162753791E+02  0.00000000000E+00 0. -1.
         11    1    1    2    0    0  0.29701934119E+02  0.60221716757E+00  0.71163298387E+02  0.77115384932E+02  0.00000000000E+00 0.  1.
</event>
<event>
 7    1  0.6473813E-006  0.1227625E+03  0.7561462E-02  0.1238608E+00
          3   -1    0    0  501    0  0.00000000000E+00  0.00000000000E+00  0.11687617693E+04  0.11687617693E+04  0.00000000000E+00 0. -1.
         -3   -1    0    0    0  501 -0.00000000000E+00 -0.00000000000E+00 -0.19600925961E+02  0.19600925961E+02  0.00000000000E+00 0.  1.
         23    2    1    2    0    0  0.64964447454E+02 -0.79680571572E+02  0.53385533747E+03  0.55786594308E+03  0.12507404277E+03 0.  0.
          5    1    3    3  502    0  0.17979251780E+02 -0.47319155872E+02  0.52227618196E+02  0.72852951274E+02  0.41800000000E+01 0.  1.
         -5    1    3    3    0  502  0.46985195674E+02 -0.32361415700E+02  0.48162771928E+03  0.48501299180E+03  0.41800000000E+01 0.  1.
        -11    1    1    2    0    0  0.22937791081E+02  0.25368715643E+02  0.15972801541E+03  0.16334856259E+03  0.00000000000E+00 0.  1.
         11    1    1    2    0    0 -0.87902238535E+02  0.54311855929E+02  0.45557749044E+03  0.46714818958E+03  0.00000000000E+00 0. -1.
</event>
<event>
 7    1  0.6473813E-006  0.9453109E+02  0.7561462E-02  0.1292236E+00
          2   -1    0    0  501    0  0.00000000000E+00  0.00000000000E+00  0.14215892916E+03  0.14215892916E+03  0.00000000000E+00 0.  1.
         -2   -1    0    0    0  501 -0.00000000000E+00 -0.00000000000E+00 -0.11634329061E+03  0.11634329061E+03  0.00000000000E+00 0. -1.
         23    2    1    2    0    0 -0.52678385101E+02  0.34571073667E+02 -0.15520402787E+02  0.14091888480E+03  0.12508828003E+03 0.  0.
          5    1    3    3  502    0 -0.71674980982E+02 -0.10172234997E+02 -0.43614728174E+02  0.84619703245E+02  0.41800000000E+01 0.  1.
         -5    1    3    3    0  502  0.18996595881E+02  0.44743308664E+02  0.28094325387E+02  0.56299181559E+02  0.41800000000E+01 0.  1.
        -11    1    1    2    0    0  0.33751134489E+02 -0.35273594953E+02  0.68714824966E+02  0.84291712228E+02  0.00000000000E+00 0.  1.
         11    1    1    2    0    0  0.18927250612E+02  0.70252128636E+00 -0.27378783625E+02  0.33291622740E+02  0.00000000000E+00 0. -1.
</event>
<event>
 7    1  0.6473813E-006  0.1315826E+03  0.7561462E-02  0.1225126E+00
         -1   -1    0    0    0  501 -0.00000000000E+00  0.00000000000E+00  0.15127436839E+02  0.15127436839E+02  0.00000000000E+00 0.  1.
          1   -1    0    0  501    0  0.00000000000E+00 -0.00000000000E+00 -0.14696537157E+04  0.14696537157E+04  0.00000000000E+00 0. -1.
         23    2    1    2    0    0  0.10030455251E+03 -0.18478792901E+02 -0.76504667458E+03  0.78188493408E+03  0.12508064119E+03 0.  0.
          5    1    3    3  502    0  0.38415215556E+02  0.29756753429E+02 -0.56281014897E+03  0.56491940075E+03  0.41800000000E+01 0. -1.
         -5    1    3    3    0  502  0.61889336955E+02 -0.48235546330E+02 -0.20223652561E+03  0.21696553332E+03  0.41800000000E+01 0. -1.
        -11    1    1    2    0    0 -0.65972638371E+02 -0.33135494228E+02 -0.33514137574E+03  0.34317647315E+03  0.00000000000E+00 0.  1.
         11    1    1    2    0    0 -0.34331914140E+02  0.51614287129E+02 -0.35433822849E+03  0.35971974527E+03  0.00000000000E+00 0. -1.
</event>
<event>
 7    1  0.6473813E-006  0.9911287E+02  0.7561462E-02  0.1282173E+00
          1   -1    0    0  501    0  0.00000000000E+00  0.00000000000E+00  0.33438161052E+03  0.33438161052E+03  0.00000000000E+00 0. -1.
         -1   -1    0    0    0  501 -0.00000000000E+00 -0.00000000000E+00 -0.47204754050E+02  0.47204754050E+02  0.00000000000E+00 0.  1.
         23    2    1    2    0    0 -0.19557618394E+02  0.42447899242E+02  0.94957830164E+02  0.16385343164E+03  0.12508650193E+03 0.  0.
          5    1    3    3  502    0  0.41986494931E+02  0.56169991510E+02  0.52930410318E+02  0.87960414047E+02  0.41800000000E+01 0. -1.
         -5    1    3    3    0  502 -0.61544113325E+02 -0.13722092269E+02  0.42027419845E+02  0.75893017597E+02  0.41800000000E+01 0. -1.
        -11    1    1    2    0    0 -0.11344728366E+02 -0.28882887308E+02  0.10278773027E+02  0.32689099343E+02  0.00000000000E+00 0.  1.
         11    1    1    2    0    0  0.30902346760E+02 -0.13565011934E+02  0.18194025327E+03  0.18504383358E+03  0.00000000000E+00 0. -1.
</event>
<event>
 7    1  0.6473813E-006  0.1982778E+03  0.7561462E-02  0.1151200E+00
         -1   -1    0    0    0  501 -0.00000000000E+00  0.00000000000E+00  0.31674455668E+03  0.31674455668E+03  0.00000000000E+00 0.  1.
          1   -1    0    0  501    0  0.00000000000E+00 -0.00000000000E+00 -0.14276044140E+03  0.14276044140E+03  0.00000000000E+00 0. -1.
         23    2    1    2    0    0 -0.18725552421E+03  0.95303009568E+01  0.90153835483E+02  0.24275140235E+03  0.12508025947E+03 0.  0.
          5    1    3    3  502    0 -0.30275519003E+02  0.38702495974E+02  0.64168152457E+02  0.80929070397E+02  0.41800000000E+01 0.  1.
         -5    1    3    3    0  502 -0.15698000521E+03 -0.29172195017E+02  0.25985683025E+02  0.16182233195E+03  0.41800000000E+01 0.  1.
        -11    1    1    2    0    0  0.15006666090E+03 -0.87431297286E+01  0.33226742527E+02  0.15394954190E+03  0.00000000000E+00 0.  1.
         11    1    1    2    0    0  0.37188863307E+02 -0.78717122816E+00  0.50603537273E+02  0.62804053827E+02  0.00000000000E+00 0. -1.
</event>
<event>
 7    1  0.6473813E-006  0.1333720E+03  0.7561462E-02  0.1222536E+00
          1   -1    0    0  501    0  0.00000000000E+00  0.00000000000E+00  0.42051758449E+03  0.42051758449E+03  0.00000000000E+00 0. -1.
         -1   -1    0    0    0  501 -0.00000000000E+00 -0.00000000000E+00 -0.55415437470E+02  0.55415437470E+02  0.00000000000E+00 0.  1.
         23    2    1    2    0    0  0.60387997352E+01  0.10492978823E+03  0.17490121204E+03  0.23933881385E+03  0.12508359716E+03 0.  0.
          5    1    3    3  502    0 -0.18770099720E+02  0.11334567757E+03  0.78140010301E+02  0.13900680874E+03  0.41800000000E+01 0. -1.
         -5    1    3    3    0  502  0.24808899455E+02 -0.84158893392E+01  0.96761201742E+02  0.10033200510E+03  0.41800000000E+01 0. -1.
        -11    1    1    2    0    0 -0.18276196912E+02 -0.11035901733E+03  0.19285229281E+03  0.22294649341E+03  0.00000000000E+00 0. -1.
         11    1    1    2    0    0  0.12237397177E+02  0.54292291038E+01 -0.26513578331E+01  0.13647714705E+02  0.00000000000E+00 0.  1.
</event>
<event>
 7    1  0.6473813E-006  0.1767902E+03  0.7561462E-02  0.1170946E+00
          1   -1    0    0  501    0  0.00000000000E+00  0.00000000000E+00  0.49258804890E+03  0.49258804890E+03  0.00000000000E+00 0. -1.
         -1   -1    0    0    0  501 -0.00000000000E+00 -0.00000000000E+00 -0.88774805832E+02  0.88774805832E+02  0.00000000000E+00 0.  1.
         23    2    1    2    0    0 -0.40090873015E+02 -0.15021145087E+03  0.96985160906E+02  0.22186381182E+03  0.12508665592E+03 0.  0.
          5    1    3    3  502    0 -0.30715830119E+02  0.11801305981E+02  0.81703875897E+00  0.33179406190E+02  0.41800000000E+01 0. -1.
         -5    1    3    3    0  502 -0.93750428959E+01 -0.16201275685E+03  0.96168122147E+02  0.18868440563E+03  0.41800000000E+01 0. -1.
        -11    1    1    2    0    0  0.15739925251E+02  0.19242361977E+02 -0.15267170502E+00  0.24860350963E+02  0.00000000000E+00 0.  1.
         11    1    1    2    0    0  0.24350947764E+02  0.13096908889E+03  0.30698075386E+03  0.33463869194E+03  0.00000000000E+00 0. -1.
</event>
<event>
 7    1  0.6473813E-006  0.1819343E+03  0.7561462E-02  0.1165944E+00
          1   -1    0    0  501    0  0.00000000000E+00  0.00000000000E+00  0.42006451387E+03  0.42006451387E+03  0.00000000000E+00 0. -1.
         -1   -1    0    0    0  501 -0.00000000000E+00 -0.00000000000E+00 -0.12334163211E+03  0.12334163211E+03  0.00000000000E+00 0.  1.
         23    2    1    2    0    0  0.22127828974E+01 -0.15342962943E+03  0.11021185829E+01  0.19796815016E+03  0.12507848023E+03 0.  0.
          5    1    3    3  502    0 -0.70912796769E+01  0.20148974194E+02  0.98057480006E+01  0.23872421376E+02  0.41800000000E+01 0. -1.
         -5    1    3    3    0  502  0.93040625743E+01 -0.17357860362E+03 -0.87036294177E+01  0.17409572878E+03  0.41800000000E+01 0. -1.
        -11    1    1    2    0    0 -0.34702804893E+02  0.98152152673E+02  0.12214264145E+03  0.16048973364E+03  0.00000000000E+00 0.  1.
         11    1    1    2    0    0  0.32490021995E+02  0.55277476756E+02  0.17347812173E+03  0.18494826218E+03  0.00000000000E+00 0. -1.
</event>
<event>
 7    1  0.6473813E-006  0.1128133E+03  0.7561462E-02  0.1255447E+00
          3   -1    0    0  501    0  0.00000000000E+00  0.00000000000E+00  0.11584476867E+03  0.11584476867E+03  0.00000000000E+00 0. -1.
         -3   -1    0    0    0  501 -0.00000000000E+00 -0.00000000000E+00 -0.20441351068E+03  0.20441351068E+03  0.00000000000E+00 0.  1.
         23    2    1    2    0    0  0.20237232906E+02  0.70851457448E+02 -0.12960032707E+03  0.19461199166E+03  0.12509239747E+03 0.  0.
          5    1    3    3  502    0  0.19894412105E+01 -0.33019991491E+02 -0.93846832737E+01  0.34638452543E+02  0.41800000000E+01 0.  1.
         -5    1    3    3    0  502  0.18247791696E+02  0.10387144894E+03 -0.12021564379E+03  0.15997353912E+03  0.41800000000E+01 0.  1.
        -11    1    1    2    0    0 -0.35088101584E+02 -0.47247423773E+02 -0.17003551500E+02  0.61258588701E+02  0.00000000000E+00 0.  1.
         11    1    1    2    0    0  0.14850868678E+02 -0.23604033675E+02  0.58035136550E+02  0.64387698985E+02  0.00000000000E+00 0. -1.
</event>
<event>
 7    1  0.6529181E-006  0.3338662E+03  0.7561462E-02  0.1069439E+00
         -2   -1    0    0    0  501 -0.00000000000E+00  0.00000000000E+00  0.82626762000E+02  0.82626762000E+02  0.00000000000E+00 0.  1.
          2   -1    0    0  501    0  0.00000000000E+00 -0.00000000000E+00 -0.14392567196E+04  0.14392567196E+04  0.00000000000E+00 0. -1.
         23    2    1    2    0    0 -0.13923095662E+03  0.29566017178E+03 -0.68833320065E+03  0.77217254794E+03  0.12509057606E+03 0.  0.
          5    1    3    3  502    0 -0.12864130141E+03  0.17338810095E+03 -0.52618860430E+03  0.56877406558E+03  0.41800000000E+01 0. -1.
         -5    1    3    3    0  502 -0.10589655201E+02  0.12227207082E+03 -0.16214459636E+03  0.20339848237E+03  0.41800000000E+01 0. -1.
        -11    1    1    2    0    0  0.33285617627E+02 -0.11332686643E+03 -0.15569573735E+03  0.19542792437E+03  0.00000000000E+00 0. -1.
         11    1    1    2    0    0  0.10594533899E+03 -0.18233330535E+03 -0.51260101958E+03  0.55428300927E+03  0.00000000000E+00 0.  1.
</event>
<event>
 7    1  0.6473813E-006  0.2032026E+03  0.7561462E-02  0.1147065E+00
          1   -1    0    0  501    0  0.00000000000E+00  0.00000000000E+00  0.14487124179E+04  0.14487124179E+04  0.00000000000E+00 0. -1.
         -1   -1    0    0    0  501 -0.00000000000E+00 -0.00000000000E+00 -0.35518977552E+02  0.35518977552E+02  0.00000000000E+00 0.  1.
         23    2    1    2    0    0  0.18674987910E+03 -0.49304841374E+02  0.57643568932E+03  0.62067023608E+03  0.12508778240E+03 0.  0.
          5    1    3    3  502    0  0.12491281743E+02 -0.24315943130E+02  0.13379765456E+02  0.30721128455E+02  0.41800000000E+01 0. -1.
         -5    1    3    3    0  502  0.17425859736E+03 -0.24988898244E+02  0.56305592386E+03  0.58994910762E+03  0.41800000000E+01 0. -1.
        -11    1    1    2    0    0 -0.11868338763E+03  0.12155528076E+00  0.34902731847E+03  0.36865407948E+03  0.00000000000E+00 0.  1.
         11    1    1    2    0    0 -0.68066491472E+02  0.49183286093E+02  0.48773043259E+03  0.49490707993E+03  0.00000000000E+00 0. -1.
</event>
<event>
 7    1  0.6473813E-006  0.9693492E+02  0.7561462E-02  0.1286877E+00
          1   -1    0    0  501    0  0.00000000000E+00  0.00000000000E+00  0.59411699466E+02  0.59411699466E+02  0.00000000000E+00 0. -1.
         -1   -1    0    0    0  501 -0.00000000000E+00 -0.00000000000E+00 -0.26275327999E+03  0.26275327999E+03  0.00000000000E+00 0.  1.
         23    2    1    2    0    0 -0.47662804569E+02  0.39961757094E+02 -0.11744156485E+03  0.18249955863E+03  0.12507950583E+03 0.  0.
          5    1    3    3  502    0 -0.57876545054E+02  0.11856351757E+02 -0.13510615416E+03  0.14751750010E+03  0.41800000000E+01 0. -1.
         -5    1    3    3    0  502  0.10213740485E+02  0.28105405337E+02  0.17664589309E+02  0.34982058534E+02  0.41800000000E+01 0. -1.
        -11    1    1    2    0    0  0.59003823492E+02 -0.58261105857E+02 -0.84031963737E+02  0.11805582820E+03  0.00000000000E+00 0.  1.
         11    1    1    2    0    0 -0.11341018923E+02  0.18299348763E+02 -0.18680519415E+01  0.21609592625E+02  0.00000000000E+00 0. -1.
</event>
<event>
 7    1  0.6473813E-006  0.8566021E+02  0.7561462E-02  0.1313715E+00
         -2   -1    0    0    0  501 -0.00000000000E+00  0.00000000000E+00  0.74267472933E+02  0.74267472933E+02  0.00000000000E+00 0.  1.
          2   -1    0    0  501    0  0.00000000000E+00 -0.00000000000E+00 -0.20809858245E+03  0.20809858245E+03  0.00000000000E+00 0. -1.
         23    2    1    2    0    0  0.13709235932E+02 -0.96138560874E+01 -0.90358519102E+01  0.12652655874E+03  0.12508778545E+03 0.  0.
          5    1    3    3  502    0 -0.33776458331E+01  0.48300357083E+02 -0.35785430654E+02  0.60352319200E+02  0.41800000000E+01 0. -1.
         -5    1    3    3    0  502  0.17086881765E+02 -0.57914213171E+02  0.26749578744E+02  0.66174239539E+02  0.41800000000E+01 0. -1.
        -11    1    1    2    0    0  0.23845665200E+02  0.25480862990E+01 -0.11347905193E+03  0.11598535994E+03  0.00000000000E+00 0. -1.
         11    1    1    2    0    0 -0.37554901132E+02  0.70657697885E+01 -0.11316205676E+02  0.39854136707E+02  0.00000000000E+00 0.  1.
</event>
<event>
 7    1  0.6473813E-006  0.9774936E+02  0.7561462E-02  0.1285101E+00
         -1   -1    0    0    0  501 -0.00000000000E+00  0.00000000000E+00  0.23034679810E+03  0.23034679810E+03  0.00000000000E+00 0.  1.
          1   -1    0    0  501    0  0.00000000000E+00 -0.00000000000E+00 -0.84113828567E+02  0.84113828567E+02  0.00000000000E+00 0. -1.
         23    2    1    2    0    0  0.32089662450E+02  0.69923175818E+02  0.12888500339E+03  0.19539068307E+03  0.12508868045E+03 0.  0.
          5    1    3    3  502    0  0.16926131485E+02 -0.28171098607E+01  0.11901425755E+03  0.12031747976E+03  0.41800000000E+01 0.  1.
         -5    1    3    3    0  502  0.15163530966E+02  0.72740285678E+02  0.98707458429E+01  0.75073203311E+02  0.41800000000E+01 0.  1.
        -11    1    1    2    0    0 -0.51686526612E+02 -0.65302734358E+02  0.36821516613E+02  0.91059146897E+02  0.00000000000E+00 0.  1.
         11    1    1    2    0    0  0.19596864162E+02 -0.46204414600E+01 -0.19473550468E+02  0.28010796706E+02  0.00000000000E+00 0. -1.
</event>
<event>
 7    1  0.6473813E-006  0.1023082E+03  0.7561462E-02  0.1275516E+00
         -1   -1    0    0    0  501 -0.00000000000E+00  0.00000000000E+00  0.24674117983E+03  0.24674117983E+03  0.00000000000E+00 0.  1.
          1   -1    0    0  501    0  0.00000000000E+00 -0.00000000000E+00 -0.56599238878E+02  0.56599238878E+02  0.00000000000E+00 0. -1.
         23    2    1    2    0    0  0.26687776284E+01 -0.43867876626E+02  0.13513892141E+03  0.18931884614E+03  0.12509030517E+03 0.  0.
          5    1    3    3  502    0 -0.36802595619E+02 -0.60813397337E+02  0.12670850557E+03  0.14534516890E+03  0.41800000000E+01 0. -1.
         -5    1    3    3    0  502  0.39471373247E+02  0.16945520710E+02  0.84304158425E+01  0.43973677233E+02  0.41800000000E+01 0. -1.
        -11    1    1    2    0    0 -0.29961806174E+02 -0.85479688019E+01 -0.28931102298E+01  0.31291335648E+02  0.00000000000E+00 0. -1.
         11    1    1    2    0    0  0.27293028546E+02  0.52415845428E+02  0.57896129771E+02  0.82730236925E+02  0.00000000000E+00 0.  1.
</event>
<event>
 7    1  0.6473813E-006  0.1256220E+03  0.7561462E-02  0.1234100E+00
          1   -1    0    0  501    0  0.00000000000E+00  0.00000000000E+00  0.52358591414E+03  0.52358591414E+03  0.00000000000E+00 0. -1.
         -1   -1    0    0    0  501 -0.00000000000E+00 -0.00000000000E+00 -0.51343543141E+02  0.51343543141E+02  0.00000000000E+00 0.  1.
         23    2    1    2    0    0  0.10914752941E+03 -0.38707840164E+02  0.19155135746E+03  0.25642135677E+03  0.12509400303E+03 0.  0.
          5    1    3    3  502    0  0.45791645817E+02  0.50839708051E+01  0.17022087286E+03  0.17639540681E+03  0.41800000000E+01 0. -1.
         -5    1    3    3    0  502  0.63355883590E+02 -0.43791810970E+02  0.21330484607E+02  0.80025949960E+02  0.41800000000E+01 0. -1.
        -11    1    1    2    0    0 -0.57843152057E+02 -0.80935018799E+01  0.47766289013E+02  0.75451662530E+02  0.00000000000E+00 0. -1.
         11    1    1    2    0    0 -0.51304377350E+02  0.46801342044E+02  0.23292472453E+03  0.24305643799E+03  0.00000000000E+00 0.  1.
</event>
<event>
 7    1  0.6473813E-006  0.1086372E+03  0.7561462E-02  0.1263115E+00
          1   -1    0    0  501    0  0.00000000000E+00  0.00000000000E+00  0.57548103649E+02  0.57548103649E+02  0.00000000000E+00 0. -1.
         -1   -1    0    0    0  501 -0.00000000000E+00 -0.00000000000E+00 -0.20648086343E+03  0.20648086343E+03  0.00000000000E+00 0.  1.
         23    2    1    2    0    0  0.13998714629E+01 -0.13558414969E+02 -0.89741331459E+02  0.15455342838E+03  0.12508982931E+03 0.  0.
          5    1    3    3  502    0  0.45475994366E+02 -0.50418440297E+02 -0.44296501758E+02  0.81177199099E+02  0.41800000000E+01 0. -1.
         -5    1    3    3    0  502 -0.44076122903E+02  0.36860025327E+02 -0.45444829701E+02  0.73376229283E+02  0.41800000000E+01 0. -1.
        -11    1    1    2    0    0  0.13475083823E+02 -0.36768361906E+02 -0.19959418932E+02  0.43953028626E+02  0.00000000000E+00 0. -1.
         11    1    1    2    0    0 -0.14874955286E+02  0.50326776875E+02 -0.39232009392E+02  0.65522510073E+02  0.00000000000E+00 0.  1.
</event>
<event>
 7    1  0.6473813E-006  0.1060525E+03  0.7561462E-02  0.1268060E+00
         -2   -1    0    0    0  501 -0.00000000000E+00  0.00000000000E+00  0.70549935819E+02  0.70549935819E+02  0.00000000000E+00 0.  1.
          2   -1    0    0  501    0  0.00000000000E+00 -0.00000000000E+00 -0.17817679768E+03  0.17817679768E+03  0.00000000000E+00 0. -1.
         23    2    1    2    0    0  0.24600882619E+02  0.75477890715E+01 -0.94607017802E+02  0.15893422067E+03  0.12508967238E+03 0.  0.
          5    1    3    3  502    0 -0.50699217450E+02  0.12121811888E+01 -0.48601452732E+02  0.70366566215E+02  0.41800000000E+01 0.  1.
         -5    1    3    3    0  502  0.75300100069E+02  0.63356078828E+01 -0.46005565070E+02  0.88567654452E+02  0.41800000000E+01 0.  1.
        -11    1    1    2    0    0 -0.29848135890E+02 -0.41535096694E+02  0.42235582277E+01  0.51321671033E+02  0.00000000000E+00 0. -1.
         11    1    1    2    0    0  0.52472532710E+01  0.33987307622E+02 -0.17243402286E+02  0.38470841799E+02  0.00000000000E+00 0.  1.
</event>
<event>
 7    1  0.6473813E-006  0.9253395E+02  0.7561462E-02  0.1296829E+00
          1   -1    0    0  501    0  0.00000000000E+00  0.00000000000E+00  0.23556011722E+03  0.23556011722E+03  0.00000000000E+00 0. -1.
         -1   -1    0    0    0  501 -0.00000000000E+00 -0.00000000000E+00 -0.69612361274E+02  0.69612361274E+02  0.00000000000E+00 0.  1.
         23    2    1    2    0    0 -0.45931802293E+02 -0.24005857587E+02  0.30752571985E+02  0.13317231899E+03  0.11875661750E+03 0.  0.
          5    1    3    3  502    0  0.28879714174E+02 -0.43226261258E+02  0.14456018314E+02  0.54120203423E+02  0.41800000000E+01 0. -1.
         -5    1    3    3    0  502 -0.74811516467E+02  0.19220403671E+02  0.16296553671E+02  0.79052115562E+02  0.41800000000E+01 0.  1.
        -11    1    1    2    0    0  0.22669861513E+02  0.22973024573E+02 -0.24795673242E+01  0.32370213672E+02  0.00000000000E+00 0.  1.
         11    1    1    2    0    0  0.23261940780E+02  0.10328330140E+01  0.13767475129E+03  0.13962994584E+03  0.00000000000E+00 0. -1.
</event>
<event>
 7    1  0.6473813E-006  0.1633291E+03  0.7561462E-02  0.1184989E+00
         -2   -1    0    0    0  501 -0.00000000000E+00  0.00000000000E+00  0.29845036709E+03  0.29845036709E+03  0.00000000000E+00 0. -1.
          2   -1    0    0  501    0  0.00000000000E+00 -0.00000000000E+00 -0.92596219564E+02  0.92596219564E+02  0.00000000000E+00 0.  1.
         23    2    1    2    0    0  0.13082432581E+02  0.12277077884E+03  0.14033980650E+03  0.22627103308E+03  0.12751276385E+03 0.  0.
          5    1    3    3  502    0 -0.43284669462E+02  0.11013325967E+03  0.10610212129E+03  0.15899066022E+03  0.41800000000E+01 0. -1.
         -5    1    3    3    0  502  0.56367102043E+02  0.12637519170E+02  0.34237685215E+02  0.67280372861E+02  0.41800000000E+01 0. -1.
        -11    1    1    2    0    0  0.36755924133E+02 -0.47547487504E+02  0.34854744030E+02  0.69473841899E+02  0.00000000000E+00 0.  1.
         11    1    1    2    0    0 -0.49838356713E+02 -0.75223291340E+02  0.30659596996E+02  0.95301711673E+02  0.00000000000E+00 0. -1.
</event>
<event>
 7    1  0.6473813E-006  0.9650025E+02  0.7561462E-02  0.1287832E+00
         -1   -1    0    0    0  501 -0.00000000000E+00  0.00000000000E+00  0.43687994840E+02  0.43687994840E+02  0.00000000000E+00 0. -1.
          1   -1    0    0  501    0  0.00000000000E+00 -0.00000000000E+00 -0.33031770638E+03  0.33031770638E+03  0.00000000000E+00 0.  1.
         23    2    1    2    0    0 -0.19924847055E+02  0.45357330056E+02 -0.13217691378E+03  0.18861452211E+03  0.12510161668E+03 0.  0.
          5    1    3    3  502    0  0.41627887494E+02  0.28555974991E+02 -0.10971323054E+03  0.12084200462E+03  0.41800000000E+01 0.  1.
         -5    1    3    3    0  502 -0.61552734549E+02  0.16801355065E+02 -0.22463683241E+02  0.67772517492E+02  0.41800000000E+01 0.  1.
        -11    1    1    2    0    0 -0.21003217711E+02 -0.65417886103E+01 -0.11368547058E+03  0.11579428472E+03  0.00000000000E+00 0.  1.
         11    1    1    2    0    0  0.40928064766E+02 -0.38815541445E+02 -0.40767327171E+02  0.69596894384E+02  0.00000000000E+00 0. -1.
</event>
<event>
 6    1  0.6473813E-006  0.1877764E+03  0.7561462E-02  0.1160482E+00
         -1   -1    0    0    0  501 -0.00000000000E+00  0.00000000000E+00  0.35566454301E+03  0.35566454301E+03  0.00000000000E+00 0.  1.
          1   -1    0    0  501    0  0.00000000000E+00 -0.00000000000E+00 -0.15258200707E+03  0.15258200707E+03  0.00000000000E+00 0. -1.
          5    1    1    2  502    0  0.79888969418E+01 -0.11897564955E+03  0.64238445195E+02  0.13551043466E+03  0.41800000000E+01 0. -1.
         -5    1    1    2    0  502 -0.55587658724E+02  0.17309847108E+03  0.17429598719E+03  0.25189210397E+03  0.41800000000E+01 0.  1.
        -11    1    1    2    0    0  0.25949936623E+02 -0.15838691974E+02  0.29526660839E+02  0.42380267513E+02  0.00000000000E+00 0.  1.
         11    1    1    2    0    0  0.21648825159E+02 -0.38284129561E+02 -0.64978557275E+02  0.78463743937E+02  0.00000000000E+00 0. -1.
</event>
<event>
 7    1  0.6473813E-006  0.7634446E+02  0.7561462E-02  0.1339758E+00
          2   -1    0    0  501    0  0.00000000000E+00  0.00000000000E+00  0.44107141202E+02  0.44107141202E+02  0.00000000000E+00 0. -1.
         -2   -1    0    0    0  501 -0.00000000000E+00 -0.00000000000E+00 -0.28410261268E+03  0.28410261268E+03  0.00000000000E+00 0.  1.
         23    2    1    2    0    0  0.18922832249E+02  0.64947988212E+01 -0.16844222091E+03  0.21076310114E+03  0.12509215413E+03 0.  0.
          5    1    3    3  502    0 -0.35971195089E+02 -0.14917911977E+02 -0.82476067952E+01  0.40024572349E+02  0.41800000000E+01 0. -1.
         -5    1    3    3    0  502  0.54894027338E+02  0.21412710798E+02 -0.16019461412E+03  0.17073852879E+03  0.41800000000E+01 0. -1.
        -11    1    1    2    0    0 -0.56485053664E+01  0.22162168627E+02 -0.81251537941E+02  0.84409002772E+02  0.00000000000E+00 0.  1.
         11    1    1    2    0    0 -0.13274326882E+02 -0.28656967448E+02  0.96982873768E+01  0.33037649970E+02  0.00000000000E+00 0. -1.
</event>
<event>
 7    1  0.6473813E-006  0.9040437E+02  0.7561462E-02  0.1301875E+00
         -3   -1    0    0    0  501 -0.00000000000E+00  0.00000000000E+00  0.77434719623E+02  0.77434719623E+02  0.00000000000E+00 0.  1.
          3   -1    0    0  501    0  0.00000000000E+00 -0.00000000000E+00 -0.21519058350E+03  0.21519058350E+03  0.00000000000E+00 0. -1.
         23    2    1    2    0    0  0.54463931926E+02 -0.33289607770E+01 -0.25571269452E+02  0.13885161302E+03  0.12509387977E+03 0.  0.
          5    1    3    3  502    0  0.69577192200E+02  0.39713029634E+02 -0.41539566738E+02  0.90338908572E+02  0.41800000000E+01 0. -1.
         -5    1    3    3    0  502 -0.15113260273E+02 -0.43041990411E+02  0.15968297286E+02  0.48512704448E+02  0.41800000000E+01 0. -1.
        -11    1    1    2    0    0 -0.12751705267E+02  0.28306636916E+01  0.15019105701E+02  0.19904576866E+02  0.00000000000E+00 0.  1.
         11    1    1    2    0    0 -0.41712226659E+02  0.49829708541E+00 -0.12720370013E+03  0.13386911324E+03  0.00000000000E+00 0. -1.
</event>
<event>
 7    1  0.6473813E-006  0.7946651E+02  0.7561462E-02  0.1330572E+00
         -2   -1    0    0    0  501 -0.00000000000E+00  0.00000000000E+00  0.51633348194E+02  0.51633348194E+02  0.00000000000E+00 0. -1.
          2   -1    0    0  501    0  0.00000000000E+00 -0.00000000000E+00 -0.26403537963E+03  0.26403537963E+03  0.00000000000E+00 0.  1.
         23    2    1    2    0    0 -0.38516991421E+02  0.15030813987E+02 -0.13075019357E+03  0.18562789437E+03  0.12511042343E+03 0.  0.
          5    1    3    3  502    0 -0.10067892061E+02 -0.22815192330E+02  0.16967937946E+02  0.30451252351E+02  0.41800000000E+01 0.  1.
         -5    1    3    3    0  502 -0.28449099360E+02  0.37846006318E+02 -0.14771813152E+03  0.15517664202E+03  0.41800000000E+01 0.  1.
        -11    1    1    2    0    0  0.10448260414E+02  0.30716558967E+02 -0.13971057955E+00  0.32445225527E+02  0.00000000000E+00 0. -1.
         11    1    1    2    0    0  0.28068731007E+02 -0.45747372954E+02 -0.81512127285E+02  0.97595607930E+02  0.00000000000E+00 0.  1.
</event>
<event>
 7    1  0.6473813E-006  0.1002159E+03  0.7561462E-02  0.1279843E+00
         -2   -1    0    0    0  501 -0.00000000000E+00  0.00000000000E+00  0.54844345557E+02  0.54844345557E+02  0.00000000000E+00 0.  1.
          2   -1    0    0  501    0  0.00000000000E+00 -0.00000000000E+00 -0.29511749015E+03  0.29511749015E+03  0.00000000000E+00 0. -1.
         23    2    1    2    0    0  0.39785140425E+01 -0.44834157915E+02 -0.60434767773E+02  0.14608402347E+03  0.12514891317E+03 0.  0.
          5    1    3    3  502    0 -0.46014626451E+02 -0.23693273082E+02 -0.73601572534E+02  0.90074307748E+02  0.41800000000E+01 0. -1.
         -5    1    3    3    0  502  0.49993140493E+02 -0.21140884834E+02  0.13166804761E+02  0.56009715725E+02  0.41800000000E+01 0. -1.
        -11    1    1    2    0    0 -0.15827572889E+02 -0.21491731516E+02 -0.71248789213E+02  0.76084141261E+02  0.00000000000E+00 0.  1.
         11    1    1    2    0    0  0.11849058846E+02  0.66325889431E+02 -0.10858958760E+03  0.12779367097E+03  0.00000000000E+00 0. -1.
</event>
<event>
 7    1  0.6473813E-006  0.9388842E+02  0.7561462E-02  0.1293699E+00
          2   -1    0    0  501    0  0.00000000000E+00  0.00000000000E+00  0.27226170321E+03  0.27226170321E+03  0.00000000000E+00 0. -1.
         -2   -1    0    0    0  501 -0.00000000000E+00 -0.00000000000E+00 -0.56778458078E+02  0.56778458078E+02  0.00000000000E+00 0.  1.
         23    2    1    2    0    0  0.24793044637E+02 -0.48786943925E+02  0.87357087145E+02  0.16209315231E+03  0.12509223953E+03 0.  0.
          5    1    3    3  502    0 -0.38815753733E+02 -0.52824110266E+02  0.18648398333E+02  0.68280923570E+02  0.41800000000E+01 0. -1.
         -5    1    3    3    0  502  0.63608798370E+02  0.40371663413E+01  0.68708688812E+02  0.93812228736E+02  0.41800000000E+01 0. -1.
        -11    1    1    2    0    0 -0.18543508805E+02  0.14979651001E+02 -0.90726730340E+01  0.25506176877E+02  0.00000000000E+00 0.  1.
         11    1    1    2    0    0 -0.62495358324E+01  0.33807292924E+02  0.13719883102E+03  0.14144083210E+03  0.00000000000E+00 0. -1.
</event>
<event>
 7    1  0.6473813E-006  0.1013949E+03  0.7561462E-02  0.1277390E+00
         -1   -1    0    0    0  501 -0.00000000000E+00  0.00000000000E+00  0.19517428495E+02  0.19517428495E+02  0.00000000000E+00 0.  1.
          1   -1    0    0  501    0  0.00000000000E+00 -0.00000000000E+00 -0.68945082370E+03  0.68945082370E+03  0.00000000000E+00 0. -1.
         23    2    1    2    0    0 -0.35595862792E+02  0.43899033357E+01 -0.33779888157E+03  0.36199690816E+03  0.12508932978E+03 0.  0.
          5    1    3    3  502    0 -0.39415502259E+02  0.50047226966E+02 -0.92321520102E+02  0.11224545523E+03  0.41800000000E+01 0.  1.
         -5    1    3    3    0  502  0.38196394667E+01 -0.45657323630E+02 -0.24547736147E+03  0.24975145293E+03  0.41800000000E+01 0.  1.
        -11    1    1    2    0    0  0.25838861819E+02 -0.44610716535E+02 -0.24683766555E+03  0.25216382759E+03  0.00000000000E+00 0. -1.
         11    1    1    2    0    0  0.97570009737E+01  0.40220813199E+02 -0.85296848086E+02  0.94807516452E+02  0.00000000000E+00 0.  1.
</event>
<event>
 7    1  0.6473813E-006  0.1157589E+03  0.7561462E-02  0.1250262E+00
         -3   -1    0    0    0  501 -0.00000000000E+00  0.00000000000E+00  0.78235442666E+02  0.78235442666E+02  0.00000000000E+00 0.  1.
          3   -1    0    0  501    0  0.00000000000E+00 -0.00000000000E+00 -0.18921973867E+03  0.18921973867E+03  0.00000000000E+00 0. -1.
         23    2    1    2    0    0  0.16965399067E+02 -0.48086053929E+02 -0.38974530991E+02  0.14059160148E+03  0.12508753332E+03 0.  0.
          5    1    3    3  502    0  0.25056546229E+02 -0.88365713780E+02 -0.37415204244E+02  0.99265803726E+02  0.41800000000E+01 0.  1.
         -5    1    3    3    0  502 -0.80911471621E+01  0.40279659851E+02 -0.15593267476E+01  0.41325797754E+02  0.41800000000E+01 0.  1.
        -11    1    1    2    0    0  0.14880610521E+02 -0.18930290327E+02 -0.90521835089E+00  0.24095806308E+02  0.00000000000E+00 0.  1.
         11    1    1    2    0    0 -0.31846009588E+02  0.67016344256E+02 -0.71104546657E+02  0.10276777355E+03  0.00000000000E+00 0. -1.
</event>
<event>
 7    1  0.6473813E-006  0.1056353E+03  0.7561462E-02  0.1268873E+00
          1   -1    0    0  501    0  0.00000000000E+00  0.00000000000E+00  0.59116872641E+02  0.59116872641E+02  0.00000000000E+00 0. -1.
         -1   -1    0    0    0  501 -0.00000000000E+00 -0.00000000000E+00 -0.22745573876E+03  0.22745573876E+03  0.00000000000E+00 0.  1.
         23    2    1    2    0    0  0.98733215630E+01 -0.33584143968E+02 -0.91321924792E+02  0.15878487770E+03  0.12509023237E+03 0.  0.
          5    1    3    3  502    0 -0.19831559408E+02 -0.72147412808E+02 -0.30846901858E+02  0.81040383006E+02  0.41800000000E+01 0. -1.
         -5    1    3    3    0  502  0.29704880971E+02  0.38563268840E+02 -0.60475022934E+02  0.77744494699E+02  0.41800000000E+01 0. -1.
        -11    1    1    2    0    0  0.33022703850E+02  0.45314311166E-01  0.53726314485E+00  0.33027105151E+02  0.00000000000E+00 0. -1.
         11    1    1    2    0    0 -0.42896025413E+02  0.33538829657E+02 -0.77554204474E+02  0.94760628547E+02  0.00000000000E+00 0.  1.
</event>
<event>
 7    1  0.6473813E-006  0.1459309E+03  0.7561462E-02  0.1205564E+00
          4   -1    0    0  501    0  0.00000000000E+00  0.00000000000E+00  0.66210621492E+02  0.66210621492E+02  0.00000000000E+00 0. -1.
         -4   -1    0    0    0  501 -0.00000000000E+00 -0.00000000000E+00 -0.33889356123E+03  0.33889356123E+03  0.00000000000E+00 0.  1.
         23    2    1    2    0    0  0.33978026648E+02  0.94564714405E+02 -0.15867985228E+03  0.22566278700E+03  0.12508959353E+03 0.  0.
          5    1    3    3  502    0  0.79193211548E+02  0.65248092482E+02 -0.79864322910E+02  0.13009481466E+03  0.41800000000E+01 0.  1.
         -5    1    3    3    0  502 -0.45215184900E+02  0.29316621923E+02 -0.78815529374E+02  0.95567972339E+02  0.41800000000E+01 0.  1.
        -11    1    1    2    0    0 -0.24007420629E+02 -0.11226403137E+03 -0.10946574119E+03  0.15862634548E+03  0.00000000000E+00 0. -1.
         11    1    1    2    0    0 -0.99706060190E+01  0.17699316967E+02 -0.45373462619E+01  0.20815050243E+02  0.00000000000E+00 0.  1.
</event>
<event>
 7    1  0.6473813E-006  0.1072104E+03  0.7561462E-02  0.1265825E+00
         -2   -1    0    0    0  501 -0.00000000000E+00  0.00000000000E+00  0.55679567693E+02  0.55679567693E+02  0.00000000000E+00 0. -1.
          2   -1    0    0  501    0  0.00000000000E+00 -0.00000000000E+00 -0.24498362853E+03  0.24498362853E+03  0.00000000000E+00 0.  1.
         23    2    1    2    0    0  0.21266521656E+02 -0.35974098169E+02 -0.98629739558E+02  0.16468518955E+03  0.12508791089E+03 0.  0.
          5    1    3    3  502    0 -0.31540641582E+01 -0.79893787721E+02 -0.48650488666E+02  0.93687287743E+02  0.41800000000E+01 0. -1.
         -5    1    3    3    0  502  0.24420585814E+02  0.43919689552E+02 -0.49979250892E+02  0.70997901811E+02  0.41800000000E+01 0. -1.
        -11    1    1    2    0    0 -0.18959367593E+02 -0.20202534372E+02 -0.71326035230E+02  0.76517993414E+02  0.00000000000E+00 0.  1.
         11    1    1    2    0    0 -0.23071540626E+01  0.56176632541E+02 -0.19348286054E+02  0.59460013259E+02  0.00000000000E+00 0. -1.
</event>
<event>
 7    1  0.6473813E-006  0.1334777E+03  0.7561462E-02  0.1222385E+00
          3   -1    0    0  501    0  0.00000000000E+00  0.00000000000E+00  0.62311778560E+02  0.62311778560E+02  0.00000000000E+00 0. -1.
         -3   -1    0    0    0  501 -0.00000000000E+00 -0.00000000000E+00 -0.32584611303E+03  0.32584611303E+03  0.00000000000E+00 0.  1.
         23    2    1    2    0    0 -0.87593874270E+02  0.25239475353E+02 -0.15693777632E+03  0.22042454898E+03  0.12509115968E+03 0.  0.
          5    1    3    3  502    0 -0.47340061115E+02  0.66938920847E+02 -0.13561442310E+03  0.15852647938E+03  0.41800000000E+01 0. -1.
         -5    1    3    3    0  502 -0.40253813155E+02 -0.41699445494E+02 -0.21323353217E+02  0.61898069602E+02  0.41800000000E+01 0. -1.
        -11    1    1    2    0    0  0.67343153171E+02  0.25587116127E+02 -0.77323499808E+02  0.10568218588E+03  0.00000000000E+00 0.  1.
         11    1    1    2    0    0  0.20250721098E+02 -0.50826591480E+02 -0.29273058346E+02  0.62051156729E+02  0.00000000000E+00 0. -1.
</event>
<event>
 6    1  0.6473813E-006  0.1846916E+03  0.7561462E-02  0.1163338E+00
          3   -1    0    0  501    0  0.00000000000E+00  0.00000000000E+00  0.74285820553E+03  0.74285820553E+03  0.00000000000E+00 0. -1.
         -3   -1    0    0    0  501 -0.00000000000E+00 -0.00000000000E+00 -0.74075886884E+02  0.74075886884E+02  0.00000000000E+00 0.  1.
          5    1    1    2  502    0  0.21639627429E+02  0.11727426525E+03  0.29077429272E+03  0.31430667901E+03  0.41800000000E+01 0. -1.
         -5    1    1    2    0  502 -0.75150837343E+02 -0.15740388299E+03  0.95109740545E+02  0.19871327555E+03  0.41800000000E+01 0.  1.
        -11    1    1    2    0    0  0.34099190259E+02  0.44122939855E+02  0.27794812961E+03  0.28348677456E+03  0.00000000000E+00 0. -1.
         11    1    1    2    0    0  0.19412019655E+02 -0.39933221132E+01  0.49501557668E+01  0.20427363283E+02  0.00000000000E+00 0.  1.
</event>
<event>
 7    1  0.6473813E-006  0.4009370E+03  0.7561462E-02  0.1043456E+00
          2   -1    0    0  501    0  0.00000000000E+00  0.00000000000E+00  0.28167142302E+03  0.28167142302E+03  0.00000000000E+00 0. -1.
         -2   -1    0    0    0  501 -0.00000000000E+00 -0.00000000000E+00 -0.78703062174E+03  0.78703062174E+03  0.00000000000E+00 0.  1.
         23    2    1    2    0    0  0.35391513103E+03 -0.18235979963E+03 -0.51180444806E+03  0.66038068903E+03  0.12509134620E+03 0.  0.
          5    1    3    3  502    0  0.27476306841E+03 -0.11443223583E+03 -0.29165629413E+03  0.41673774326E+03  0.41800000000E+01 0. -1.
         -5    1    3    3    0  502  0.79152062629E+02 -0.67927563796E+02 -0.22014815393E+03  0.24364294576E+03  0.41800000000E+01 0. -1.
        -11    1    1    2    0    0 -0.15600911583E+03  0.60053151310E+02 -0.38077659734E+02  0.17145009004E+03  0.00000000000E+00 0.  1.
         11    1    1    2    0    0 -0.19790601520E+03  0.12230664832E+03  0.44522909067E+02  0.23687126569E+03  0.00000000000E+00 0. -1.
</event>
<event>
 7    1  0.6473813E-006  0.9878389E+02  0.7561462E-02  0.1282874E+00
          1   -1    0    0  501    0  0.00000000000E+00  0.00000000000E+00  0.78618263907E+03  0.78618263907E+03  0.00000000000E+00 0. -1.
         -1   -1    0    0    0  501 -0.00000000000E+00 -0.00000000000E+00 -0.20103257005E+02  0.20103257005E+02  0.00000000000E+00 0.  1.
         23    2    1    2    0    0 -0.30764037073E+02 -0.22960176556E+02  0.26470937643E+03  0.29528180699E+03  0.12508675342E+03 0.  0.
          5    1    3    3  502    0  0.32198291537E+02 -0.24066232923E+01  0.19985758578E+03  0.20249209566E+03  0.41800000000E+01 0. -1.
         -5    1    3    3    0  502 -0.62962328611E+02 -0.20553553264E+02  0.64851790657E+02  0.92789711322E+02  0.41800000000E+01 0. -1.
        -11    1    1    2    0    0  0.63313455936E+02  0.13321947688E+02  0.31707238456E+03  0.32360618820E+03  0.00000000000E+00 0.  1.
         11    1    1    2    0    0 -0.32549418863E+02  0.96382288683E+01  0.18429762107E+03  0.18739790089E+03  0.00000000000E+00 0. -1.
</event>
<event>
 7    1  0.6473813E-006  0.1206695E+03  0.7561462E-02  0.1241997E+00
         -3   -1    0    0    0  501 -0.00000000000E+00  0.00000000000E+00  0.84088729472E+03  0.84088729472E+03  0.00000000000E+00 0.  1.
          3   -1    0    0  501    0  0.00000000000E+00 -0.00000000000E+00 -0.17938040191E+02  0.17938040191E+02  0.00000000000E+00 0. -1.
         23    2    1    2    0    0 -0.39477456993E+02 -0.35199868045E+02  0.51967155139E+03  0.53712444065E+03  0.12508654245E+03 0.  0.
          5    1    3    3  502    0 -0.21022153274E+02  0.46807464364E+02  0.21025323529E+03  0.21646423491E+03  0.41800000000E+01 0. -1.
         -5    1    3    3    0  502 -0.18455303718E+02 -0.82007332409E+02  0.30941831610E+03  0.32066020574E+03  0.41800000000E+01 0. -1.
        -11    1    1    2    0    0  0.52978727256E+01  0.62022074332E+02  0.15049215105E+03  0.16285789108E+03  0.00000000000E+00 0. -1.
         11    1    1    2    0    0  0.34179584267E+02 -0.26822206287E+02  0.15278555208E+03  0.15884300317E+03  0.00000000000E+00 0.  1.
</event>
<event>
 7    1  0.6473813E-006  0.1155940E+03  0.7561462E-02  0.1250548E+00
         -1   -1    0    0    0  501 -0.00000000000E+00  0.00000000000E+00  0.15426801436E+03  0.15426801436E+03  0.00000000000E+00 0.  1.
          1   -1    0    0  501    0  0.00000000000E+00 -0.00000000000E+00 -0.25272208895E+03  0.25272208895E+03  0.00000000000E+00 0. -1.
         23    2    1    2    0    0  0.55432265705E+02 -0.87073950689E+02  0.86231536446E+02  0.17659559803E+03  0.11443565176E+03 0.  0.
          5    1    3    3  502    0  0.62586680927E+01  0.12473235034E+02 -0.18743945087E+02  0.23739427034E+02  0.41800000000E+01 0. -1.
         -5    1    3    3    0  502  0.49173597613E+02 -0.99547185723E+02  0.10497548153E+03  0.15285617099E+03  0.41800000000E+01 0.  1.
        -11    1    1    2    0    0 -0.17034327790E+02  0.47087094259E+02 -0.15591814634E+02  0.52444899205E+02  0.00000000000E+00 0.  1.
         11    1    1    2    0    0 -0.38397937916E+02  0.39986856430E+02 -0.16909379640E+03  0.17794960608E+03  0.00000000000E+00 0. -1.
</event>
<event>
 7    1  0.6473813E-006  0.1385149E+03  0.7561462E-02  0.1215341E+00
          3   -1    0    0  501    0  0.00000000000E+00  0.00000000000E+00  0.19462680855E+03  0.19462680855E+03  0.00000000000E+00 0. -1.
         -3   -1    0    0    0  501 -0.00000000000E+00 -0.00000000000E+00 -0.10898236624E+03  0.10898236624E+03  0.00000000000E+00 0.  1.
         23    2    1    2    0    0 -0.50256301117E+02 -0.78566240647E+02  0.18169283938E+02  0.15708563212E+03  0.12508965972E+03 0.  0.
          5    1    3    3  502    0  0.37562810432E+02 -0.24359442068E+02  0.28575605025E+02  0.53276493390E+02  0.41800000000E+01 0.  1.
         -5    1    3    3    0  502 -0.87819111549E+02 -0.54206798579E+02 -0.10406321087E+02  0.10380913873E+03  0.41800000000E+01 0.  1.
        -11    1    1    2    0    0 -0.24276661791E+02  0.65663819821E+01  0.21768538425E+02  0.33261733947E+02  0.00000000000E+00 0.  1.
         11    1    1    2    0    0  0.74532962908E+02  0.71999858665E+02  0.45706619943E+02  0.11326180872E+03  0.00000000000E+00 0. -1.
</event>
<event>
 7    1  0.6473813E-006  0.5192716E+02  0.7561462E-02  0.1435216E+00
          4   -1    0    0  501    0  0.00000000000E+00  0.00000000000E+00  0.81500207767E+02  0.81500207767E+02  0.00000000000E+00 0. -1.
         -4   -1    0    0    0  501 -0.00000000000E+00 -0.00000000000E+00 -0.18295730403E+03  0.18295730403E+03  0.00000000000E+00 0.  1.
         23    2    1    2    0    0 -0.18857830540E+01  0.53148256318E+00 -0.11626417098E+03  0.17076361439E+03  0.12505605101E+03 0.  0.
          5    1    3    3  502    0 -0.97148880354E+01 -0.59241816433E+01  0.25679189505E+02  0.28396622181E+02  0.41800000000E+01 0.  1.
         -5    1    3    3    0  502  0.78291049814E+01  0.64556642065E+01 -0.14194336048E+03  0.14236699221E+03  0.41800000000E+01 0.  1.
        -11    1    1    2    0    0 -0.10541552654E+02  0.38436507922E+02 -0.15524767084E+02  0.42772746774E+02  0.00000000000E+00 0.  1.
         11    1    1    2    0    0  0.12427335708E+02 -0.38967990485E+02  0.30331841796E+02  0.50921150635E+02  0.00000000000E+00 0. -1.
</event>
<event>
 7    1  0.6473813E-006  0.1091352E+03  0.7561462E-02  0.1262180E+00
         -1   -1    0    0    0  501 -0.00000000000E+00  0.00000000000E+00  0.55224163890E+02  0.55224163890E+02  0.00000000000E+00 0.  1.
          1   -1    0    0  501    0  0.00000000000E+00 -0.00000000000E+00 -0.26167949456E+03  0.26167949456E+03  0.00000000000E+00 0. -1.
         23    2    1    2    0    0 -0.10256323194E+02 -0.14023203728E+02 -0.53319616031E+02  0.13708133184E+03  0.12508584123E+03 0.  0.
          5    1    3    3  502    0  0.32565450589E+02  0.42271983401E+02 -0.34812551156E+02  0.63849943389E+02  0.41800000000E+01 0.  1.
         -5    1    3    3    0  502 -0.42821773783E+02 -0.56295187129E+02 -0.18507064875E+02  0.73231388449E+02  0.41800000000E+01 0.  1.
        -11    1    1    2    0    0 -0.38266595420E+02  0.22853526581E+02 -0.64759224862E+02  0.78615349690E+02  0.00000000000E+00 0.  1.
         11    1    1    2    0    0  0.48522918613E+02 -0.88303228536E+01 -0.88376489779E+02  0.10120697692E+03  0.00000000000E+00 0. -1.
</event>
<event>
 7    1  0.6473813E-006  0.1334015E+03  0.7561462E-02  0.1222494E+00
         -1   -1    0    0    0  501 -0.00000000000E+00  0.00000000000E+00  0.15581730806E+02  0.15581730806E+02  0.00000000000E+00 0.  1.
          1   -1    0    0  501    0  0.00000000000E+00 -0.00000000000E+00 -0.11959541494E+04  0.11959541494E+04  0.00000000000E+00 0. -1.
         23    2    1    2    0    0  0.50798929982E+02  0.65730110407E+02 -0.69659841529E+03  0.71259966118E+03  0.12509175122E+03 0.  0.
          5    1    3    3  502    0 -0.63193508508E+01 -0.33869805287E+02 -0.18910407037E+03  0.19226263219E+03  0.41800000000E+01 0. -1.
         -5    1    3    3    0  502  0.57118280833E+02  0.99599915694E+02 -0.50749434492E+03  0.52033702899E+03  0.41800000000E+01 0. -1.
        -11    1    1    2    0    0  0.10272893087E+02 -0.54060215831E+02 -0.29786680433E+03  0.30290703589E+03  0.00000000000E+00 0.  1.
         11    1    1    2    0    0 -0.61071823069E+02 -0.11669894575E+02 -0.18590719894E+03  0.19602918311E+03  0.00000000000E+00 0. -1.
</event>
<event>
 7    1  0.6473813E-006  0.1287604E+03  0.7561462E-02  0.1229307E+00
          1   -1    0    0  501    0  0.00000000000E+00  0.00000000000E+00  0.48300945182E+03  0.48300945182E+03  0.00000000000E+00 0. -1.
         -1   -1    0    0    0  501 -0.00000000000E+00 -0.00000000000E+00 -0.41758928786E+02  0.41758928786E+02  0.00000000000E+00 0.  1.
         23    2    1    2    0    0 -0.10295759412E+02  0.74708280277E+02  0.14420038686E+03  0.20526531426E+03  0.12511102215E+03 0.  0.
          5    1    3    3  502    0  0.36140045586E+02 -0.16084937606E+02  0.20046428441E+02  0.44543908742E+02  0.41800000000E+01 0.  1.
         -5    1    3    3    0  502 -0.46435804998E+02  0.90793217883E+02  0.12415395842E+03  0.16072140552E+03  0.41800000000E+01 0.  1.
        -11    1    1    2    0    0  0.48331341089E+02 -0.53620787837E+02  0.21244480986E+03  0.22437447417E+03  0.00000000000E+00 0.  1.
         11    1    1    2    0    0 -0.38035581678E+02 -0.21087492440E+02  0.84605326312E+02  0.95128592187E+02  0.00000000000E+00 0. -1.
</event>
<event>
 7    1  0.6473813E-006  0.1732508E+03  0.7561462E-02  0.1174500E+00
          2   -1    0    0  501    0  0.00000000000E+00  0.00000000000E+00  0.21991520915E+03  0.21991520915E+03  0.00000000000E+00 0. -1.
         -2   -1    0    0    0  501 -0.00000000000E+00 -0.00000000000E+00 -0.14828534927E+03  0.14828534927E+03  0.00000000000E+00 0.  1.
         23    2    1    2    0    0 -0.11919663458E+03  0.81795564237E+02  0.37547649921E+02  0.19253470848E+03  0.12149664988E+03 0.  0.
          5    1    3    3  502    0 -0.13484055293E+03  0.59662040084E+02  0.18525704201E+01  0.14752097532E+03  0.41800000000E+01 0. -1.
         -5    1    3    3    0  502  0.15643918352E+02  0.22133524153E+02  0.35695079501E+02  0.45013733165E+02  0.41800000000E+01 0.  1.
        -11    1    1    2    0    0 -0.15684970861E+02 -0.11639541312E+02 -0.12724376334E+01  0.19573357668E+02  0.00000000000E+00 0.  1.
         11    1    1    2    0    0  0.13488160544E+03 -0.70156022925E+02  0.35354647591E+02  0.15609249227E+03  0.00000000000E+00 0. -1.
</event>
<event>
 7    1  0.6473813E-006  0.1353148E+03  0.7561462E-02  0.1219776E+00
         -1   -1    0    0    0  501 -0.00000000000E+00  0.00000000000E+00  0.16460305007E+04  0.16460305007E+04  0.00000000000E+00 0.  1.
          1   -1    0    0  501    0  0.00000000000E+00 -0.00000000000E+00 -0.12088764182E+02  0.12088764182E+02  0.00000000000E+00 0. -1.
         23    2    1    2    0    0  0.84706937370E+02 -0.65421995346E+01  0.10717396192E+04  0.10823548245E+04  0.12509232210E+03 0.  0.
          5    1    3    3  502    0 -0.95693296306E+01 -0.44002115213E+02  0.46329028401E+03  0.46549233921E+03  0.41800000000E+01 0.  1.
         -5    1    3    3    0  502  0.94276267001E+02  0.37459915678E+02  0.60844933523E+03  0.61686248528E+03  0.41800000000E+01 0.  1.
        -11    1    1    2    0    0 -0.43444883240E+02 -0.41819050928E+02  0.25188812597E+03  0.25900563489E+03  0.00000000000E+00 0.  1.
         11    1    1    2    0    0 -0.41262054129E+02  0.48361250462E+02  0.31031399127E+03  0.31675880546E+03  0.00000000000E+00 0. -1.
</event>
<event>
 7    1  0.6473813E-006  0.9001471E+02  0.7561462E-02  0.1302816E+00
         -2   -1    0    0    0  501 -0.00000000000E+00  0.00000000000E+00  0.22393332338E+03  0.22393332338E+03  0.00000000000E+00 0.  1.
          2   -1    0    0  501    0  0.00000000000E+00 -0.00000000000E+00 -0.89107221150E+02  0.89107221150E+02  0.00000000000E+00 0. -1.
         23    2    1    2    0    0 -0.14578872891E+01  0.60989905337E+02  0.11064123177E+03  0.17779722644E+03  0.12509387504E+03 0.  0.
          5    1    3    3  502    0 -0.10206231688E+02  0.36748716370E+02 -0.20899232045E+02  0.43690795600E+02  0.41800000000E+01 0. -1.
         -5    1    3    3    0  502  0.87483443986E+01  0.24241188967E+02  0.13154046381E+03  0.13410643084E+03  0.41800000000E+01 0. -1.
        -11    1    1    2    0    0  0.48326417290E+02 -0.44995526565E+02  0.46666535168E+02  0.80856697456E+02  0.00000000000E+00 0.  1.
         11    1    1    2    0    0 -0.46868530001E+02 -0.15994378773E+02 -0.22481664702E+02  0.54386620639E+02  0.00000000000E+00 0. -1.
</event>
<event>
 7    1  0.6473813E-006  0.8424922E+02  0.7561462E-02  0.1317408E+00
         -3   -1    0    0    0  501 -0.00000000000E+00  0.00000000000E+00  0.40184445739E+02  0.40184445739E+02  0.00000000000E+00 0.  1.
          3   -1    0    0  501    0  0.00000000000E+00 -0.00000000000E+00 -0.33112132146E+03  0.33112132146E+03  0.00000000000E+00 0. -1.
         23    2    1    2    0    0  0.20475017682E+02 -0.27266378316E+02 -0.13486731388E+03  0.18708140524E+03  0.12509027979E+03 0.  0.
          5    1    3    3  502    0  0.35391722307E+02 -0.40990393001E+02 -0.15123634153E+03  0.16069439855E+03  0.41800000000E+01 0.  1.
         -5    1    3    3    0  502 -0.14916704625E+02  0.13724014685E+02  0.16369027648E+02  0.26387006691E+02  0.41800000000E+01 0.  1.
        -11    1    1    2    0    0 -0.40333884192E+02 -0.17914517446E+02 -0.46804585873E+02  0.64330563561E+02  0.00000000000E+00 0.  1.
         11    1    1    2    0    0  0.19858866510E+02  0.45180895763E+02 -0.10926497597E+03  0.11989379840E+03  0.00000000000E+00 0. -1.
</event>
<event>
 7    1  0.6473813E-006  0.1352570E+03  0.7561462E-02  0.1219857E+00
         -2   -1    0    0    0  501 -0.00000000000E+00  0.00000000000E+00  0.32025431276E+02  0.32025431276E+02  0.00000000000E+00 0.  1.
          2   -1    0    0  501    0  0.00000000000E+00 -0.00000000000E+00 -0.67348589236E+03  0.67348589236E+03  0.00000000000E+00 0. -1.
         23    2    1    2    0    0  0.70943616628E+02  0.66116855827E+02 -0.36966760119E+03  0.40212712059E+03  0.12509056873E+03 0.  0.
          5    1    3    3  502    0  0.69717957257E+02  0.90962362436E+02 -0.19961381363E+03  0.23021271020E+03  0.41800000000E+01 0. -1.
         -5    1    3    3    0  502  0.12256593714E+01 -0.24845506609E+02 -0.17005378756E+03  0.17191441040E+03  0.41800000000E+01 0. -1.
        -11    1    1    2    0    0 -0.59736594353E+02  0.37426579425E+01 -0.87837770732E+02  0.10629177842E+03  0.00000000000E+00 0. -1.
         11    1    1    2    0    0 -0.11207022276E+02 -0.69859513769E+02 -0.18395508916E+03  0.19709242461E+03  0.00000000000E+00 0.  1.
</event>
<event>
 6    1  0.6473813E-006  0.1894696E+03  0.7561462E-02  0.1158941E+00
          1   -1    0    0  501    0  0.00000000000E+00  0.00000000000E+00  0.22502013709E+03  0.22502013709E+03  0.00000000000E+00 0. -1.
         -1   -1    0    0    0  501 -0.00000000000E+00 -0.00000000000E+00 -0.21142046257E+03  0.21142046257E+03  0.00000000000E+00 0.  1.
          5    1    1    2  502    0  0.33665290765E+02  0.57438717500E+01 -0.73476532413E+01  0.35182442683E+02  0.41800000000E+01 0. -1.
         -5    1    1    2    0  502 -0.17600423117E+03  0.76912696372E+01 -0.90969795436E+02  0.19831697129E+03  0.41800000000E+01 0.  1.
        -11    1    1    2    0    0  0.58211883778E+02 -0.49850989078E+02  0.40155054573E+02  0.86522672941E+02  0.00000000000E+00 0. -1.
         11    1    1    2    0    0  0.84127056627E+02  0.36415847690E+02  0.71762068624E+02  0.11641851276E+03  0.00000000000E+00 0.  1.
</event>
<event>
 6    1  0.6473813E-006  0.1603582E+03  0.7561462E-02  0.1188293E+00
          1   -1    0    0  501    0  0.00000000000E+00  0.00000000000E+00  0.41782930568E+03  0.41782930568E+03  0.00000000000E+00 0. -1.
         -1   -1    0    0    0  501 -0.00000000000E+00 -0.00000000000E+00 -0.85196342341E+02  0.85196342341E+02  0.00000000000E+00 0.  1.
          5    1    1    2  502    0 -0.70794784269E+02  0.63984190765E+01  0.11535652334E+02  0.72134491896E+02  0.41800000000E+01 0. -1.
         -5    1    1    2    0  502  0.97290549864E+02 -0.10640969777E+03  0.12331446982E+03  0.18976934879E+03  0.41800000000E+01 0.  1.
        -11    1    1    2    0    0 -0.20823147656E+02  0.41004381753E+02  0.14086682567E+02  0.48097790251E+02  0.00000000000E+00 0.  1.
         11    1    1    2    0    0 -0.56726179391E+01  0.59006896942E+02  0.18369615862E+03  0.19302401708E+03  0.00000000000E+00 0. -1.
</event>
<event>
 7    1  0.6473813E-006  0.1500859E+03  0.7561462E-02  0.1200367E+00
          3   -1    0    0  501    0  0.00000000000E+00  0.00000000000E+00  0.37444913541E+02  0.37444913541E+02  0.00000000000E+00 0. -1.
         -3   -1    0    0    0  501 -0.00000000000E+00 -0.00000000000E+00 -0.73736198584E+03  0.73736198584E+03  0.00000000000E+00 0.  1.
         23    2    1    2    0    0 -0.10981464926E+03  0.57498041647E+02 -0.42329395784E+03  0.45846488799E+03  0.12508795621E+03 0.  0.
          5    1    3    3  502    0  0.24559577220E+02  0.28978915376E+02 -0.10634603563E+03  0.11300399136E+03  0.41800000000E+01 0.  1.
         -5    1    3    3    0  502 -0.13437422648E+03  0.28519126271E+02 -0.31694792222E+03  0.34546089663E+03  0.41800000000E+01 0.  1.
        -11    1    1    2    0    0  0.74013853309E+01 -0.75809820280E+01  0.56045190531E+01  0.11985926211E+02  0.00000000000E+00 0. -1.
         11    1    1    2    0    0  0.10241326393E+03 -0.49917059619E+02 -0.28222763351E+03  0.30435608518E+03  0.00000000000E+00 0.  1.
</event>
<event>
 7    1  0.6473813E-006  0.1877455E+03  0.7561462E-02  0.1160511E+00
         -1   -1    0    0    0  501 -0.00000000000E+00  0.00000000000E+00  0.31236321943E+02  0.31236321943E+02  0.00000000000E+00 0.  1.
          1   -1    0    0  501    0  0.00000000000E+00 -0.00000000000E+00 -0.11549174468E+04  0.11549174468E+04  0.00000000000E+00 0. -1.
         23    2    1    2    0    0  0.14536368780E+03  0.53658865832E+02 -0.52691399683E+03  0.56329037788E+03  0.12509122329E+03 0.  0.
          5    1    3    3  502    0  0.12137422910E+03  0.92887159354E+02 -0.41110583623E+03  0.43861738321E+03  0.41800000000E+01 0. -1.
         -5    1    3    3    0  502  0.23989458699E+02 -0.39228293522E+02 -0.11580816060E+03  0.12467299468E+03  0.41800000000E+01 0. -1.
        -11    1    1    2    0    0 -0.15027523545E+03 -0.31259807755E+02 -0.48279190548E+03  0.50660423011E+03  0.00000000000E+00 0. -1.
         11    1    1    2    0    0  0.49115476512E+01 -0.22399058078E+02 -0.11397522259E+03  0.11625916078E+03  0.00000000000E+00 0.  1.
</event>
<event>
 7    1  0.6473813E-006  0.1005374E+03  0.7561462E-02  0.1279170E+00
         -3   -1    0    0    0  501 -0.00000000000E+00  0.00000000000E+00  0.10245224910E+03  0.10245224910E+03  0.00000000000E+00 0.  1.
          3   -1    0    0  501    0  0.00000000000E+00 -0.00000000000E+00 -0.11959096461E+03  0.11959096461E+03  0.00000000000E+00 0. -1.
         23    2    1    2    0    0  0.10262798202E+02 -0.14672291219E+02  0.30302131895E+01  0.12639882538E+03  0.12508748822E+03 0.  0.
          5    1    3    3  502    0 -0.11407548266E+02  0.53405323177E+02  0.17536799828E-01  0.54769822062E+02  0.41800000000E+01 0.  1.
         -5    1    3    3    0  502  0.21670346468E+02 -0.68077614396E+02  0.30126763897E+01  0.71629003322E+02  0.41800000000E+01 0.  1.
        -11    1    1    2    0    0  0.20791366320E+01 -0.29143945714E+02  0.19612322839E+02  0.35189992726E+02  0.00000000000E+00 0.  1.
         11    1    1    2    0    0 -0.12341934834E+02  0.43816236933E+02 -0.39781251537E+02  0.60454395607E+02  0.00000000000E+00 0. -1.
</event>
<event>
 6    1  0.6473813E-006  0.1142582E+03  0.7561462E-02  0.1252882E+00
         -2   -1    0    0    0  501 -0.00000000000E+00  0.00000000000E+00  0.29401925918E+03  0.29401925918E+03  0.00000000000E+00 0.  1.
          2   -1    0    0  501    0  0.00000000000E+00 -0.00000000000E+00 -0.75221569941E+02  0.75221569941E+02  0.00000000000E+00 0. -1.
          5    1    1    2  502    0  0.69993605759E+02 -0.20702977384E+02  0.10373502579E+03  0.12690999210E+03  0.41800000000E+01 0. -1.
         -5    1    1    2    0  502 -0.57767561202E+02 -0.13168325889E+02  0.13035428855E+03  0.14324876571E+03  0.41800000000E+01 0.  1.
        -11    1    1    2    0    0  0.13851063772E+02  0.58513499103E+02 -0.12725570371E+00  0.60130672198E+02  0.00000000000E+00 0. -1.
         11    1    1    2    0    0 -0.26077108328E+02 -0.24642195830E+02 -0.15164369392E+02  0.38951399117E+02  0.00000000000E+00 0.  1.
</event>
<event>
 7    1  0.6473813E-006  0.7047834E+02  0.7561462E-02  0.1358474E+00
          1   -1    0    0  501    0  0.00000000000E+00  0.00000000000E+00  0.66624594331E+02  0.66624594331E+02  0.00000000000E+00 0. -1.
         -1   -1    0    0    0  501 -0.00000000000E+00 -0.00000000000E+00 -0.19259552163E+03  0.19259552163E+03  0.00000000000E+00 0.  1.
         23    2    1    2    0    0  0.98834556868E+01  0.12671817768E+02 -0.10719317304E+03  0.16553543486E+03  0.12511333337E+03 0.  0.
          5    1    3    3  502    0 -0.13675556189E+02 -0.14352586201E+02 -0.12405353993E+03  0.12569713894E+03  0.41800000000E+01 0. -1.
         -5    1    3    3    0  502  0.23559011875E+02  0.27024403969E+02  0.16860366889E+02  0.39838295923E+02  0.41800000000E+01 0. -1.
        -11    1    1    2    0    0 -0.46353614678E+02 -0.11979562421E+01 -0.28249174502E+02  0.54296487483E+02  0.00000000000E+00 0.  1.
         11    1    1    2    0    0  0.36470158991E+02 -0.11473861526E+02  0.94714202439E+01  0.39388193620E+02  0.00000000000E+00 0. -1.
</event>
<event>
 7    1  0.6473813E-006  0.1490091E+03  0.7561462E-02  0.1201696E+00
          2   -1    0    0  501    0  0.00000000000E+00  0.00000000000E+00  0.41290912328E+03  0.41290912328E+03  0.00000000000E+00 0.  1.
         -2   -1    0    0    0  501 -0.00000000000E+00 -0.00000000000E+00 -0.61243384094E+02  0.61243384094E+02  0.00000000000E+00 0. -1.
         23    2    1    2    0    0  0.90237151537E+02  0.65731913810E+02  0.14361176131E+03  0.22076128247E+03  0.12509107819E+03 0.  0.
          5    1    3    3  502    0  0.98771588785E+01 -0.34810116039E+02  0.17108703955E+02  0.40242795593E+02  0.41800000000E+01 0.  1.
         -5    1    3    3    0  502  0.80359992659E+02  0.10054202985E+03  0.12650305735E+03  0.18051848688E+03  0.41800000000E+01 0.  1.
        -11    1    1    2    0    0 -0.40698509699E+02 -0.72174952235E+02  0.17461422207E+03  0.19327627628E+03  0.00000000000E+00 0.  1.
         11    1    1    2    0    0 -0.49538641839E+02  0.64430384256E+01  0.33439755804E+02  0.60114948620E+02  0.00000000000E+00 0. -1.
</event>
<event>
 7    1  0.6473813E-006  0.1263138E+03  0.7561462E-02  0.1233030E+00
         -1   -1    0    0    0  501 -0.00000000000E+00  0.00000000000E+00  0.35106723514E+03  0.35106723514E+03  0.00000000000E+00 0.  1.
          1   -1    0    0  501    0  0.00000000000E+00 -0.00000000000E+00 -0.76185471723E+02  0.76185471723E+02  0.00000000000E+00 0. -1.
         23    2    1    2    0    0  0.11855620706E+03 -0.15575694634E+02  0.12012823964E+03  0.21065414914E+03  0.12508477165E+03 0.  0.
          5    1    3    3  502    0  0.44431033608E+02 -0.34087322846E+02 -0.12505538830E+02  0.57531932244E+02  0.41800000000E+01 0.  1.
         -5    1    3    3    0  502  0.74125173453E+02  0.18511628212E+02  0.13263377847E+03  0.15312221690E+03  0.41800000000E+01 0.  1.
        -11    1    1    2    0    0 -0.80195431456E+02  0.60127240924E+01  0.15762971857E+03  0.17695928417E+03  0.00000000000E+00 0.  1.
         11    1    1    2    0    0 -0.38360775605E+02  0.95629705421E+01 -0.28761947938E+01  0.39639273544E+02  0.00000000000E+00 0. -1.
</event>
<event>
 7    1  0.6473813E-006  0.1397923E+03  0.7561462E-02  0.1213609E+00
          2   -1    0    0  501    0  0.00000000000E+00  0.00000000000E+00  0.86279379068E+02  0.86279379068E+02  0.00000000000E+00 0. -1.
         -2   -1    0    0    0  501 -0.00000000000E+00 -0.00000000000E+00 -0.24816527151E+03  0.24816527151E+03  0.00000000000E+00 0.  1.
         23    2    1    2    0    0  0.63080555021E+02 -0.70916030152E+02 -0.11512235884E+03  0.19469826919E+03  0.12508404681E+03 0.  0.
          5    1    3    3  502    0  0.10726481670E+02 -0.92755286949E+02 -0.97702125888E+02  0.13521012710E+03  0.41800000000E+01 0.  1.
         -5    1    3    3    0  502  0.52354073351E+02  0.21839256797E+02 -0.17420232950E+02  0.59488142095E+02  0.41800000000E+01 0.  1.
        -11    1    1    2    0    0 -0.67435196189E+02  0.88419425322E+02 -0.30128359485E+02  0.11520945493E+03  0.00000000000E+00 0.  1.
         11    1    1    2    0    0  0.43546411685E+01 -0.17503395170E+02 -0.16635174119E+02  0.24536926461E+02  0.00000000000E+00 0. -1.
</event>
<event>
 7    1  0.6473813E-006  0.6914524E+02  0.7561462E-02  0.1363024E+00
         -2   -1    0    0    0  501 -0.00000000000E+00  0.00000000000E+00  0.54328890445E+02  0.54328890445E+02  0.00000000000E+00 0.  1.
          2   -1    0    0  501    0  0.00000000000E+00 -0.00000000000E+00 -0.25510187212E+03  0.25510187212E+03  0.00000000000E+00 0. -1.
         23    2    1    2    0    0 -0.31619828185E+02  0.23112684097E+02 -0.14447367960E+03  0.19506973813E+03  0.12508216874E+03 0.  0.
          5    1    3    3  502    0 -0.18977371928E+02 -0.73250015111E+01 -0.15788293446E+03  0.15924286384E+03  0.41800000000E+01 0. -1.
         -5    1    3    3    0  502 -0.12642456256E+02  0.30437685609E+02  0.13409254857E+02  0.35826874288E+02  0.41800000000E+01 0. -1.
        -11    1    1    2    0    0 -0.14756380686E+02 -0.33649147134E+02  0.46685919607E+01  0.37037975440E+02  0.00000000000E+00 0.  1.
         11    1    1    2    0    0  0.46376208871E+02  0.10536463037E+02 -0.60967894037E+02  0.77323048995E+02  0.00000000000E+00 0. -1.
</event>
<event>
 7    1  0.6473813E-006  0.1116380E+03  0.7561462E-02  0.1257566E+00
          2   -1    0    0  501    0  0.00000000000E+00  0.00000000000E+00  0.85419888490E+02  0.85419888490E+02  0.00000000000E+00 0. -1.
         -2   -1    0    0    0  501 -0.00000000000E+00 -0.00000000000E+00 -0.14933490224E+03  0.14933490224E+03  0.00000000000E+00 0.  1.
         23    2    1    2    0    0  0.15612915747E+00 -0.30903864687E+02 -0.46219761200E+02  0.13689229533E+03  0.12509260956E+03 0.  0.
          5    1    3    3  502    0  0.11307858247E+02  0.46997413780E+02 -0.27957881237E+02  0.55997679268E+02  0.41800000000E+01 0. -1.
         -5    1    3    3    0  502 -0.11151729090E+02 -0.77901278468E+02 -0.18261879963E+02  0.80894616065E+02  0.41800000000E+01 0. -1.
        -11    1    1    2    0    0  0.39752590811E+02 -0.76260823638E+01 -0.36676081609E+01  0.40643289213E+02  0.00000000000E+00 0. -1.
         11    1    1    2    0    0 -0.39908719969E+02  0.38529947051E+02 -0.14027644391E+02  0.57219206185E+02  0.00000000000E+00 0.  1.
</event>
<event>
 7    1  0.6473813E-006  0.1090552E+03  0.7561462E-02  0.1262330E+00
         -2   -1    0    0    0  501 -0.00000000000E+00  0.00000000000E+00  0.17104438566E+03  0.17104438566E+03  0.00000000000E+00 0.  1.
          2   -1    0    0  501    0  0.00000000000E+00 -0.00000000000E+00 -0.12476351935E+03  0.12476351935E+03  0.00000000000E+00 0. -1.
         23    2    1    2    0    0  0.25428351242E+02  0.53866547619E+02  0.10374855797E+03  0.17308611115E+03  0.12508729989E+03 0.  0.
          5    1    3    3  502    0  0.25631707637E+02 -0.22214035829E+02  0.89188548532E+02  0.95511870537E+02  0.41800000000E+01 0. -1.
         -5    1    3    3    0  502 -0.20335639565E+00  0.76080583448E+02  0.14560009436E+02  0.77574240611E+02  0.41800000000E+01 0. -1.
        -11    1    1    2    0    0 -0.52869601647E+02 -0.68640334580E+01 -0.35375678554E+02  0.63982406697E+02  0.00000000000E+00 0. -1.
         11    1    1    2    0    0  0.27441250405E+02 -0.47002514161E+02 -0.22092013099E+02  0.58739387161E+02  0.00000000000E+00 0.  1.
</event>
<event>
 6    1  0.6473813E-006  0.1434131E+03  0.7561462E-02  0.1208809E+00
         -2   -1    0    0    0  501 -0.00000000000E+00  0.00000000000E+00  0.77497079956E+02  0.77497079956E+02  0.00000000000E+00 0.  1.
          2   -1    0    0  501    0  0.00000000000E+00 -0.00000000000E+00 -0.53648136937E+03  0.53648136937E+03  0.00000000000E+00 0. -1.
          5    1    1    2  502    0  0.25297532097E+02 -0.16110210044E+02 -0.22803818161E+02  0.37907657809E+02  0.41800000000E+01 0. -1.
         -5    1    1    2    0  502 -0.10820381853E+03  0.66267522040E+02 -0.75399032898E+01  0.12717615092E+03  0.41800000000E+01 0.  1.
        -11    1    1    2    0    0  0.28444504015E+02  0.24253001958E+02 -0.80608902457E+02  0.88854336236E+02  0.00000000000E+00 0.  1.
         11    1    1    2    0    0  0.54461782418E+02 -0.74410313954E+02 -0.34803166551E+03  0.36004030436E+03  0.00000000000E+00 0. -1.
</event>
<event>
 7    1  0.6473813E-006  0.1231604E+03  0.7561462E-02  0.1237973E+00
          2   -1    0    0  501    0  0.00000000000E+00  0.00000000000E+00  0.77558693927E+03  0.77558693927E+03  0.00000000000E+00 0. -1.
         -2   -1    0    0    0  501 -0.00000000000E+00 -0.00000000000E+00 -0.20986588361E+02  0.20986588361E+02  0.00000000000E+00 0.  1.
         23    2    1    2    0    0 -0.67541709613E+02 -0.28464386412E+02  0.34896908850E+03  0.37430717221E+03  0.11381709278E+03 0.  0.
          5    1    3    3  502    0 -0.31466274277E+02 -0.69131088290E+02  0.15259963591E+03  0.17050910552E+03  0.41800000000E+01 0. -1.
         -5    1    3    3    0  502 -0.36075435336E+02  0.40666701878E+02  0.19636945260E+03  0.20379806670E+03  0.41800000000E+01 0.  1.
        -11    1    1    2    0    0  0.33139083642E+02  0.60331656087E+02  0.27462153472E+03  0.28311675140E+03  0.00000000000E+00 0.  1.
         11    1    1    2    0    0  0.34402625971E+02 -0.31867269675E+02  0.13100972769E+03  0.13914960402E+03  0.00000000000E+00 0. -1.
</event>
<event>
 7    1  0.6473813E-006  0.9158699E+02  0.7561462E-02  0.1299053E+00
          1   -1    0    0  501    0  0.00000000000E+00  0.00000000000E+00  0.21243496990E+02  0.21243496990E+02  0.00000000000E+00 0. -1.
         -1   -1    0    0    0  501 -0.00000000000E+00 -0.00000000000E+00 -0.65753603839E+03  0.65753603839E+03  0.00000000000E+00 0.  1.
         23    2    1    2    0    0  0.34087443289E+02  0.26486339121E+02 -0.42974743701E+03  0.44966333327E+03  0.12510305241E+03 0.  0.
          5    1    3    3  502    0 -0.29404670312E+02  0.10022109519E+00 -0.31075415543E+03  0.31217024554E+03  0.41800000000E+01 0.  1.
         -5    1    3    3    0  502  0.63492113600E+02  0.26386118026E+02 -0.11899328158E+03  0.13749308773E+03  0.41800000000E+01 0.  1.
        -11    1    1    2    0    0 -0.38594670423E+02  0.16062000659E+02 -0.42620158644E+02  0.59699366605E+02  0.00000000000E+00 0. -1.
         11    1    1    2    0    0  0.45072271346E+01 -0.42548339779E+02 -0.16392494575E+03  0.16941683550E+03  0.00000000000E+00 0.  1.
</event>
<event>
 7    1  0.6473813E-006  0.1077458E+03  0.7561462E-02  0.1264802E+00
         -2   -1    0    0    0  501 -0.00000000000E+00  0.00000000000E+00  0.33480597697E+02  0.33480597697E+02  0.00000000000E+00 0.  1.
          2   -1    0    0  501    0  0.00000000000E+00 -0.00000000000E+00 -0.59190718571E+03  0.59190718571E+03  0.00000000000E+00 0. -1.
         23    2    1    2    0    0  0.34294841552E+02 -0.75738671172E+02 -0.25033730125E+03  0.29193952738E+03  0.12508973093E+03 0.  0.
          5    1    3    3  502    0  0.60445300415E+02 -0.14618593443E+02 -0.19694198783E+03  0.20656949578E+03  0.41800000000E+01 0.  1.
         -5    1    3    3    0  502 -0.26150458864E+02 -0.61120077729E+02 -0.53395313417E+02  0.85370031599E+02  0.41800000000E+01 0.  1.
        -11    1    1    2    0    0  0.10406393416E+00  0.26434089754E+02 -0.83239142720E+01  0.27713886037E+02  0.00000000000E+00 0.  1.
         11    1    1    2    0    0 -0.34398905486E+02  0.49304581418E+02 -0.29976537250E+03  0.30573436999E+03  0.00000000000E+00 0. -1.
</event>
<event>
 7    1  0.6473813E-006  0.1079091E+03  0.7561462E-02  0.1264492E+00
          2   -1    0    0  501    0  0.00000000000E+00  0.00000000000E+00  0.16242854961E+03  0.16242854961E+03  0.00000000000E+00 0. -1.
         -2   -1    0    0    0  501 -0.00000000000E+00 -0.00000000000E+00 -0.10854811542E+03  0.10854811542E+03  0.00000000000E+00 0.  1.
         23    2    1    2    0    0  0.47986076284E+02  0.40044807793E+02 -0.14840605129E+02  0.14062260974E+03  0.12509286415E+03 0.  0.
          5    1    3    3  502    0  0.34937881040E+00 -0.42651518921E+02 -0.14019568586E+02  0.45092070646E+02  0.41800000000E+01 0. -1.
         -5    1    3    3    0  502  0.47636697474E+02  0.82696326714E+02 -0.82103654311E+00  0.95530539092E+02  0.41800000000E+01 0. -1.
        -11    1    1    2    0    0 -0.40891173917E+02 -0.44427748874E+01 -0.11153348937E+02  0.42617174302E+02  0.00000000000E+00 0.  1.
         11    1    1    2    0    0 -0.70949023674E+01 -0.35602032906E+02  0.79874388257E+02  0.87736880991E+02  0.00000000000E+00 0. -1.
</event>
<event>
 7    1  0.6473813E-006  0.7620818E+02  0.7561462E-02  0.1340170E+00
          3   -1    0    0  501    0  0.00000000000E+00  0.00000000000E+00  0.79056060381E+02  0.79056060381E+02  0.00000000000E+00 0. -1.
         -3   -1    0    0    0  501 -0.00000000000E+00 -0.00000000000E+00 -0.17484054945E+03  0.17484054945E+03  0.00000000000E+00 0.  1.
         23    2    1    2    0    0 -0.52679625296E+01 -0.39492367183E+02 -0.83082630860E+02  0.15536331232E+03  0.12509051431E+03 0.  0.
          5    1    3    3  502    0 -0.16982519234E+02 -0.65914250643E+02 -0.10043103713E+03  0.12139588138E+03  0.41800000000E+01 0. -1.
         -5    1    3    3    0  502  0.11714556705E+02  0.26421883461E+02  0.17348406274E+02  0.33967430939E+02  0.41800000000E+01 0. -1.
        -11    1    1    2    0    0 -0.10626448332E+02 -0.17950957127E+01 -0.43378404401E+02  0.44697088732E+02  0.00000000000E+00 0.  1.
         11    1    1    2    0    0  0.15894410861E+02  0.41287462895E+02  0.30676546191E+02  0.53836208774E+02  0.00000000000E+00 0. -1.
</event>
<event>
 7    1  0.6473813E-006  0.1065090E+03  0.7561462E-02  0.1267175E+00
         -2   -1    0    0    0  501 -0.00000000000E+00  0.00000000000E+00  0.14360562879E+02  0.14360562879E+02  0.00000000000E+00 0.  1.
          2   -1    0    0  501    0  0.00000000000E+00 -0.00000000000E+00 -0.84563535102E+03  0.84563535102E+03  0.00000000000E+00 0. -1.
         23    2    1    2    0    0  0.20525363265E+02 -0.69775177886E+01 -0.52867119523E+03  0.54369885586E+03  0.12508092144E+03 0.  0.
          5    1    3    3  502    0 -0.44667880198E+01  0.54959186097E+02 -0.16785056350E+03  0.17672506443E+03  0.41800000000E+01 0. -1.
         -5    1    3    3    0  502  0.24992151285E+02 -0.61936703885E+02 -0.36082063173E+03  0.36697379143E+03  0.41800000000E+01 0. -1.
        -11    1    1    2    0    0  0.31342971223E+02  0.20179981304E+02 -0.15062955665E+03  0.15517369889E+03  0.00000000000E+00 0. -1.
         11    1    1    2    0    0 -0.51868334488E+02 -0.13202463515E+02 -0.15197403625E+03  0.16112335914E+03  0.00000000000E+00 0.  1.
</event>
<event>
 7    1  0.6473813E-006  0.1414041E+03  0.7561462E-02  0.1211452E+00
         -1   -1    0    0    0  501 -0.00000000000E+00  0.00000000000E+00  0.59955629509E+03  0.59955629509E+03  0.00000000000E+00 0.  1.
          1   -1    0    0  501    0  0.00000000000E+00 -0.00000000000E+00 -0.43791829596E+02  0.43791829596E+02  0.00000000000E+00 0. -1.
         23    2    1    2    0    0  0.10839739661E+03 -0.43169583025E+02  0.35491136533E+03  0.39398482328E+03  0.12509338609E+03 0.  0.
          5    1    3    3  502    0 -0.13808341298E+02  0.92214308523E+01  0.25030884534E+01  0.17304419325E+02  0.41800000000E+01 0.  1.
         -5    1    3    3    0  502  0.12220573791E+03 -0.52391013878E+02  0.35240827688E+03  0.37668040396E+03  0.41800000000E+01 0.  1.
        -11    1    1    2    0    0 -0.60753607872E+01 -0.14132412351E+02 -0.15279077140E+01  0.15458641257E+02  0.00000000000E+00 0.  1.
         11    1    1    2    0    0 -0.10232203582E+03  0.57301995376E+02  0.20238100788E+03  0.23390466015E+03  0.00000000000E+00 0. -1.
</event>
<event>
 7    1  0.6473813E-006  0.1342154E+03  0.7561462E-02  0.1221332E+00
          3   -1    0    0  501    0  0.00000000000E+00  0.00000000000E+00  0.90197016475E+02  0.90197016475E+02  0.00000000000E+00 0. -1.
         -3   -1    0    0    0  501 -0.00000000000E+00 -0.00000000000E+00 -0.25424432906E+03  0.25424432906E+03  0.00000000000E+00 0.  1.
         23    2    1    2    0    0 -0.41585760530E+02 -0.94910567437E+02 -0.10963722647E+03  0.19597244336E+03  0.12508991102E+03 0.  0.
          5    1    3    3  502    0 -0.30237608370E+02  0.20613812282E+02 -0.58338249308E+02  0.68993231183E+02  0.41800000000E+01 0.  1.
         -5    1    3    3    0  502 -0.11348152160E+02 -0.11552437972E+03 -0.51298977159E+02  0.12697921217E+03  0.41800000000E+01 0.  1.
        -11    1    1    2    0    0  0.48607796512E+02  0.49081008003E+02  0.92719365933E+01  0.69696714676E+02  0.00000000000E+00 0. -1.
         11    1    1    2    0    0 -0.70220359819E+01  0.45829559434E+02 -0.63682022710E+02  0.78772187501E+02  0.00000000000E+00 0.  1.
</event>
<event>
 7    1  0.6473813E-006  0.1335750E+03  0.7561462E-02  0.1222245E+00
         -1   -1    0    0    0  501 -0.00000000000E+00  0.00000000000E+00  0.99990223525E+02  0.99990223525E+02  0.00000000000E+00 0.  1.
          1   -1    0    0  501    0  0.00000000000E+00 -0.00000000000E+00 -0.25632266950E+03  0.25632266950E+03  0.00000000000E+00 0. -1.
         23    2    1    2    0    0 -0.14459404569E+02 -0.11689591447E+03 -0.10261770933E+03  0.20012877729E+03  0.12508958403E+03 0.  0.
          5    1    3    3  502    0 -0.42640100031E+02 -0.34030573007E+02  0.11838665736E+02  0.55981107851E+02  0.41800000000E+01 0.  1.
         -5    1    3    3    0  502  0.28180695462E+02 -0.82865341464E+02 -0.11445637506E+03  0.14414766944E+03  0.41800000000E+01 0.  1.
        -11    1    1    2    0    0  0.28944332252E+02  0.70694695778E+02  0.90379951357E+01  0.76923336749E+02  0.00000000000E+00 0.  1.
         11    1    1    2    0    0 -0.14484927683E+02  0.46201218694E+02 -0.62752731784E+02  0.79260778983E+02  0.00000000000E+00 0. -1.
</event>
<event>
 7    1  0.6473813E-006  0.1134089E+03  0.7561462E-02  0.1254384E+00
         -2   -1    0    0    0  501 -0.00000000000E+00  0.00000000000E+00  0.93508781763E+03  0.93508781763E+03  0.00000000000E+00 0.  1.
          2   -1    0    0  501    0  0.00000000000E+00 -0.00000000000E+00 -0.16740046605E+02  0.16740046605E+02  0.00000000000E+00 0. -1.
         23    2    1    2    0    0  0.21249321627E+02 -0.33919489121E+02  0.67317474247E+03  0.68586741566E+03  0.12509121688E+03 0.  0.
          5    1    3    3  502    0  0.57467292087E+02  0.21545290450E+02  0.40248158327E+03  0.40715548194E+03  0.41800000000E+01 0.  1.
         -5    1    3    3    0  502 -0.36217970460E+02 -0.55464779570E+02  0.27069315921E+03  0.27871193372E+03  0.41800000000E+01 0.  1.
        -11    1    1    2    0    0 -0.40451805245E+02 -0.17473713229E+02  0.73111512323E+02  0.85363765356E+02  0.00000000000E+00 0. -1.
         11    1    1    2    0    0  0.19202483618E+02  0.51393202349E+02  0.17206151623E+03  0.18059668322E+03  0.00000000000E+00 0.  1.
</event>
<event>
 7    1  0.1250809E-005  0.2731923E+03  0.7561462E-02  0.1099466E+00
          2   -1    0    0  501    0  0.00000000000E+00  0.00000000000E+00  0.13413410729E+04  0.13413410729E+04  0.00000000000E+00 0. -1.
         -2   -1    0    0    0  501 -0.00000000000E+00 -0.00000000000E+00 -0.61243618352E+02  0.61243618352E+02  0.00000000000E+00 0.  1.
         23    2    1    2    0    0 -0.14309017193E+03  0.21606794923E+03  0.53699476166E+03  0.60923785176E+03  0.12508888829E+03 0.  0.
          5    1    3    3  502    0 -0.16600932572E+02 -0.15601901808E+02  0.33374547667E+02  0.40624415495E+02  0.41800000000E+01 0.  1.
         -5    1    3    3    0  502 -0.12648923936E+03  0.23166985104E+03  0.50362021399E+03  0.56861343626E+03  0.41800000000E+01 0.  1.
        -11    1    1    2    0    0  0.48918282846E+02 -0.68242749250E+02  0.12283113196E+03  0.14878695575E+03  0.00000000000E+00 0. -1.
         11    1    1    2    0    0  0.94171889085E+02 -0.14782519998E+03  0.62027156097E+03  0.64455988379E+03  0.00000000000E+00 0.  1.
</event>
<event>
 7    1  0.6473813E-006  0.1111951E+03  0.7561462E-02  0.1258373E+00
          1   -1    0    0  501    0  0.00000000000E+00  0.00000000000E+00  0.87245172909E+03  0.87245172909E+03  0.00000000000E+00 0. -1.
         -1   -1    0    0    0  501 -0.00000000000E+00 -0.00000000000E+00 -0.24204764594E+02  0.24204764594E+02  0.00000000000E+00 0.  1.
         23    2    1    2    0    0  0.49118959863E+02  0.59571303846E+02  0.29248692559E+03  0.32734836515E+03  0.12508772148E+03 0.  0.
          5    1    3    3  502    0  0.20693359034E+02  0.70973892459E+02  0.67336411621E+02  0.10008582941E+03  0.41800000000E+01 0. -1.
         -5    1    3    3    0  502  0.28425600828E+02 -0.11402588612E+02  0.22515051397E+03  0.22726253573E+03  0.41800000000E+01 0. -1.
        -11    1    1    2    0    0 -0.75056643501E+02 -0.40941011176E+02  0.47171348810E+03  0.47939887461E+03  0.00000000000E+00 0. -1.
         11    1    1    2    0    0  0.25937683639E+02 -0.18630292670E+02  0.84046550812E+02  0.89909253923E+02  0.00000000000E+00 0.  1.
</event>
<event>
 7    1  0.6473813E-006  0.7995594E+02  0.7561462E-02  0.1329177E+00
          2   -1    0    0  501    0  0.00000000000E+00  0.00000000000E+00  0.55602412888E+02  0.55602412888E+02  0.00000000000E+00 0. -1.
         -2   -1    0    0    0  501 -0.00000000000E+00 -0.00000000000E+00 -0.22094098113E+03  0.22094098113E+03  0.00000000000E+00 0.  1.
         23    2    1    2    0    0 -0.48935892408E+01 -0.22247463097E+02 -0.10520354814E+03  0.16502331887E+03  0.12508402136E+03 0.  0.
          5    1    3    3  502    0 -0.41661859746E+02 -0.60333732153E-01  0.90990405589E+01  0.42848327117E+02  0.41800000000E+01 0. -1.
         -5    1    3    3    0  502  0.36768270505E+02 -0.22187129365E+02 -0.11430258870E+03  0.12217499175E+03  0.41800000000E+01 0. -1.
        -11    1    1    2    0    0 -0.33303691535E+02  0.11058114635E+02 -0.62467679272E+02  0.71649345585E+02  0.00000000000E+00 0.  1.
         11    1    1    2    0    0  0.38197280775E+02  0.11189348462E+02  0.23326591681E+01  0.39870729570E+02  0.00000000000E+00 0. -1.
</event>
<event>
 7    1  0.6473813E-006  0.2934933E+03  0.7561462E-02  0.1088539E+00
          1   -1    0    0  501    0  0.00000000000E+00  0.00000000000E+00  0.18940774710E+03  0.18940774710E+03  0.00000000000E+00 0. -1.
         -1   -1    0    0    0  501 -0.00000000000E+00 -0.00000000000E+00 -0.57341039527E+03  0.57341039527E+03  0.00000000000E+00 0.  1.
         23    2    1    2    0    0  0.38727058455E+02  0.28001088599E+03 -0.45196241664E+02  0.31240583702E+03  0.12509526535E+03 0.  0.
          5    1    3    3  502    0 -0.35866724406E+02  0.48672239536E+02  0.13997081740E+02  0.62199674584E+02  0.41800000000E+01 0. -1.
         -5    1    3    3    0  502  0.74593782861E+02  0.23133864645E+03 -0.59193323404E+02  0.25020616244E+03  0.41800000000E+01 0. -1.
        -11    1    1    2    0    0 -0.27078878588E+02 -0.24234199570E+03 -0.23208325530E+03  0.33663859841E+03  0.00000000000E+00 0. -1.
         11    1    1    2    0    0 -0.11648179867E+02 -0.37668890287E+02 -0.10672315120E+03  0.11377370695E+03  0.00000000000E+00 0.  1.
</event>
<event>
 6    1  0.6473813E-006  0.2259145E+03  0.7561462E-02  0.1129549E+00
         -1   -1    0    0    0  501 -0.00000000000E+00  0.00000000000E+00  0.11011000191E+04  0.11011000191E+04  0.00000000000E+00 0.  1.
          1   -1    0    0  501    0  0.00000000000E+00 -0.00000000000E+00 -0.68284098035E+02  0.68284098035E+02  0.00000000000E+00 0. -1.
          5    1    1    2  502    0 -0.17632253501E+02  0.49193178620E+02  0.36270556724E+03  0.36647464591E+03  0.41800000000E+01 0. -1.
         -5    1    1    2    0  502 -0.13303249948E+03 -0.13256019800E+03  0.49044159057E+03  0.52518594628E+03  0.41800000000E+01 0.  1.
        -11    1    1    2    0    0 -0.30264673991E+01 -0.23926755787E+02  0.24671699373E+02  0.34501331821E+02  0.00000000000E+00 0.  1.
         11    1    1    2    0    0  0.15369122038E+03  0.10729377516E+03  0.15499706385E+03  0.24322219309E+03  0.00000000000E+00 0. -1.
</event>
<event>
 7    1  0.6473813E-006  0.1418869E+03  0.7561462E-02  0.1210812E+00
          1   -1    0    0  501    0  0.00000000000E+00  0.00000000000E+00  0.60054169673E+03  0.60054169673E+03  0.00000000000E+00 0. -1.
         -1   -1    0    0    0  501 -0.00000000000E+00 -0.00000000000E+00 -0.68975550049E+02  0.68975550049E+02  0.00000000000E+00 0.  1.
         23    2    1    2    0    0 -0.11651207592E+03  0.45004823190E+02  0.71170953461E+02  0.18375161797E+03  0.11445022738E+03 0.  0.
          5    1    3    3  502    0 -0.65754374338E+02  0.42097782544E+02  0.98595364543E+02  0.12583473030E+03  0.41800000000E+01 0. -1.
         -5    1    3    3    0  502 -0.50757701577E+02  0.29070406457E+01 -0.27424411082E+02  0.57916887674E+02  0.41800000000E+01 0.  1.
        -11    1    1    2    0    0 -0.13990493715E+02 -0.15301639654E+02  0.51223215149E+02  0.55260219513E+02  0.00000000000E+00 0.  1.
         11    1    1    2    0    0  0.13050256963E+03 -0.29703183536E+02  0.40917197808E+03  0.43050540930E+03  0.00000000000E+00 0. -1.
</event>
<event>
 7    1  0.6473813E-006  0.1336717E+03  0.7561462E-02  0.1222107E+00
         -2   -1    0    0    0  501 -0.00000000000E+00  0.00000000000E+00  0.83996119387E+02  0.83996119387E+02  0.00000000000E+00 0.  1.
          2   -1    0    0  501    0  0.00000000000E+00 -0.00000000000E+00 -0.36466189402E+03  0.36466189402E+03  0.00000000000E+00 0. -1.
         23    2    1    2    0    0 -0.58958734506E+02  0.10989396784E+03 -0.22164428285E+03  0.28342052180E+03  0.12509271569E+03 0.  0.
          5    1    3    3  502    0 -0.34533545137E+02  0.11240056856E+03 -0.22899293802E+03  0.25745230940E+03  0.41800000000E+01 0. -1.
         -5    1    3    3    0  502 -0.24425189369E+02 -0.25066007233E+01  0.73486551678E+01  0.25968212408E+02  0.41800000000E+01 0. -1.
        -11    1    1    2    0    0  0.45619056017E+02 -0.81312478228E+02 -0.83618476291E+02  0.12523923892E+03  0.00000000000E+00 0. -1.
         11    1    1    2    0    0  0.13339678489E+02 -0.28581489609E+02  0.24596984510E+02  0.39998252680E+02  0.00000000000E+00 0.  1.
</event>
<event>
 7    1  0.6473813E-006  0.1009619E+03  0.7561462E-02  0.1278286E+00
          1   -1    0    0  501    0  0.00000000000E+00  0.00000000000E+00  0.64285392227E+03  0.64285392227E+03  0.00000000000E+00 0. -1.
         -1   -1    0    0    0  501 -0.00000000000E+00 -0.00000000000E+00 -0.20454081680E+02  0.20454081680E+02  0.00000000000E+00 0.  1.
         23    2    1    2    0    0  0.23785735549E+02  0.16851119879E+02  0.28832254996E+03  0.31563847457E+03  0.12509209551E+03 0.  0.
          5    1    3    3  502    0  0.78705205192E+01  0.67126690613E+02  0.21366760326E+03  0.22414114921E+03  0.41800000000E+01 0.  1.
         -5    1    3    3    0  502  0.15915215030E+02 -0.50275570734E+02  0.74654946695E+02  0.91497325360E+02  0.41800000000E+01 0.  1.
        -11    1    1    2    0    0 -0.39773882155E+02 -0.37856986758E+02  0.29770871902E+03  0.30273023392E+03  0.00000000000E+00 0. -1.
         11    1    1    2    0    0  0.15988146606E+02  0.21005866878E+02  0.36368571611E+02  0.44939295458E+02  0.00000000000E+00 0.  1.
</event>
<event>
 7    1  0.6473813E-006  0.1025038E+03  0.7561462E-02  0.1275117E+00
         -3   -1    0    0    0  501 -0.00000000000E+00  0.00000000000E+00  0.27498766460E+03  0.27498766460E+03  0.00000000000E+00 0.  1.
          3   -1    0    0  501    0  0.00000000000E+00 -0.00000000000E+00 -0.52559201087E+02  0.52559201087E+02  0.00000000000E+00 0. -1.
         23    2    1    2    0    0  0.46487830732E+02  0.24325353027E+02  0.12399675117E+03  0.18378136151E+03  0.12509018079E+03 0.  0.
          5    1    3    3  502    0 -0.29944367158E+02 -0.24046575416E+02  0.65300880430E+02  0.75872131239E+02  0.41800000000E+01 0.  1.
         -5    1    3    3    0  502  0.76432197890E+02  0.48371928443E+02  0.58695870740E+02  0.10790923027E+03  0.41800000000E+01 0.  1.
        -11    1    1    2    0    0  0.70842346506E+01 -0.20987505408E+02  0.85813582131E+02  0.88626365389E+02  0.00000000000E+00 0.  1.
         11    1    1    2    0    0 -0.53572065382E+02 -0.33378476192E+01  0.12618130207E+02  0.55139138785E+02  0.00000000000E+00 0. -1.
</event>
<event>
 7    1  0.6473813E-006  0.1207405E+03  0.7561462E-02  0.1241880E+00
          1   -1    0    0  501    0  0.00000000000E+00  0.00000000000E+00  0.24080676085E+03  0.24080676085E+03  0.00000000000E+00 0. -1.
         -1   -1    0    0    0  501 -0.00000000000E+00 -0.00000000000E+00 -0.93097431744E+02  0.93097431744E+02  0.00000000000E+00 0.  1.
         23    2    1    2    0    0  0.41645593658E+02  0.60832242370E+02 -0.20933340616E+01  0.14523710046E+03  0.12511800877E+03 0.  0.
          5    1    3    3  502    0  0.45395365030E+02  0.88013890979E+02  0.29274945542E+02  0.10335220853E+03  0.41800000000E+01 0.  1.
         -5    1    3    3    0  502 -0.37497713721E+01 -0.27181648609E+02 -0.31368279604E+02  0.41884891927E+02  0.41800000000E+01 0.  1.
        -11    1    1    2    0    0  0.25005128896E+02 -0.97758361595E+00  0.35805199650E+02  0.43683228622E+02  0.00000000000E+00 0. -1.
         11    1    1    2    0    0 -0.66650722554E+02 -0.59854658755E+02  0.11399746352E+03  0.14498386352E+03  0.00000000000E+00 0.  1.
</event>
<event>
 7    1  0.6473813E-006  0.9332095E+02  0.7561462E-02  0.1295003E+00
          1   -1    0    0  501    0  0.00000000000E+00  0.00000000000E+00  0.13495975590E+03  0.13495975590E+03  0.00000000000E+00 0. -1.
         -1   -1    0    0    0  501 -0.00000000000E+00 -0.00000000000E+00 -0.11875439896E+03  0.11875439896E+03  0.00000000000E+00 0.  1.
         23    2    1    2    0    0  0.28461914340E+02  0.51908524708E+02 -0.19181173269E+02  0.13971249974E+03  0.12508832747E+03 0.  0.
          5    1    3    3  502    0  0.57500680932E+02  0.89129441597E+01  0.32148700477E+02  0.66609160208E+02  0.41800000000E+01 0. -1.
         -5    1    3    3    0  502 -0.29038766593E+02  0.42995580549E+02 -0.51329873746E+02  0.73103339532E+02  0.41800000000E+01 0. -1.
        -11    1    1    2    0    0  0.13628831439E+02 -0.10457832313E+02 -0.24473204344E+02  0.29900652735E+02  0.00000000000E+00 0.  1.
         11    1    1    2    0    0 -0.42090745779E+02 -0.41450692395E+02  0.59859734555E+02  0.84101002380E+02  0.00000000000E+00 0. -1.
</event>
<event>
 7    1  0.6473813E-006  0.1345754E+03  0.7561462E-02  0.1220820E+00
         -4   -1    0    0    0  501 -0.00000000000E+00  0.00000000000E+00  0.50578141082E+03  0.50578141082E+03  0.00000000000E+00 0.  1.
          4   -1    0    0  501    0  0.00000000000E+00 -0.00000000000E+00 -0.44529321584E+02  0.44529321584E+02  0.00000000000E+00 0. -1.
         23    2    1    2    0    0  0.87273652294E+02 -0.50656861289E+02  0.28878571694E+03  0.33050344765E+03  0.12511007401E+03 0.  0.
          5    1    3    3  502    0  0.10932801716E+03 -0.36931101595E+02  0.27981517424E+03  0.30270534474E+03  0.41800000000E+01 0. -1.
         -5    1    3    3    0  502 -0.22054364867E+02 -0.13725759694E+02  0.89705427026E+01  0.27798102907E+02  0.41800000000E+01 0. -1.
        -11    1    1    2    0    0  0.23514578091E+01 -0.15684518443E+02  0.18264295291E+01  0.15964627068E+02  0.00000000000E+00 0. -1.
         11    1    1    2    0    0 -0.89625110103E+02  0.66341379732E+02  0.17063994277E+03  0.20384265769E+03  0.00000000000E+00 0.  1.
</event>
<event>
 7    1  0.6473813E-006  0.1203340E+03  0.7561462E-02  0.1242547E+00
         -1   -1    0    0    0  501 -0.00000000000E+00  0.00000000000E+00  0.31688887194E+02  0.31688887194E+02  0.00000000000E+00 0.  1.
          1   -1    0    0  501    0  0.00000000000E+00 -0.00000000000E+00 -0.61089233704E+03  0.61089233704E+03  0.00000000000E+00 0. -1.
         23    2    1    2    0    0  0.73333785090E+02 -0.73719364565E+01 -0.21017717082E+03  0.25544966790E+03  0.12509156731E+03 0.  0.
          5    1    3    3  502    0  0.72345410032E+02 -0.49574493921E+02 -0.18820187076E+03  0.20767499935E+03  0.41800000000E+01 0.  1.
         -5    1    3    3    0  502  0.98837505831E+00  0.42202557465E+02 -0.21975300064E+02  0.47774668546E+02  0.41800000000E+01 0.  1.
        -11    1    1    2    0    0 -0.22453682686E+02 -0.36772351079E+02 -0.21088799261E+03  0.21524432420E+03  0.00000000000E+00 0. -1.
         11    1    1    2    0    0 -0.50880102405E+02  0.44144287535E+02 -0.15813828641E+03  0.17188723214E+03  0.00000000000E+00 0.  1.
</event>
<event>
 7    1  0.6473813E-006  0.1488468E+03  0.7561462E-02  0.1201897E+00
         -2   -1    0    0    0  501 -0.00000000000E+00  0.00000000000E+00  0.24670937897E+03  0.24670937897E+03  0.00000000000E+00 0.  1.
          2   -1    0    0  501    0  0.00000000000E+00 -0.00000000000E+00 -0.11163338209E+03  0.11163338209E+03  0.00000000000E+00 0. -1.
         23    2    1    2    0    0 -0.10103034020E+02 -0.12112977065E+03  0.10384482665E+03  0.20299275533E+03  0.12509123894E+03 0.  0.
          5    1    3    3  502    0  0.45513128276E+02 -0.99178544773E+02  0.42370331589E+02  0.11713473434E+03  0.41800000000E+01 0. -1.
         -5    1    3    3    0  502 -0.55616162296E+02 -0.21951225875E+02  0.61474495061E+02  0.85858020994E+02  0.41800000000E+01 0. -1.
        -11    1    1    2    0    0 -0.15102735860E+02  0.25308014757E+02 -0.27382846547E+02  0.40229448497E+02  0.00000000000E+00 0. -1.
         11    1    1    2    0    0  0.25205769879E+02  0.95821755890E+02  0.58614016775E+02  0.11512055724E+03  0.00000000000E+00 0.  1.
</event>
<event>
 7    1  0.6473813E-006  0.9394623E+02  0.7561462E-02  0.1293567E+00
          2   -1    0    0  501    0  0.00000000000E+00  0.00000000000E+00  0.57939013472E+03  0.57939013472E+03  0.00000000000E+00 0. -1.
         -2   -1    0    0    0  501 -0.00000000000E+00 -0.00000000000E+00 -0.53272931908E+02  0.53272931908E+02  0.00000000000E+00 0.  1.
         23    2    1    2    0    0 -0.39872555403E+02 -0.15856479812E+02  0.42576656738E+02  0.13893557115E+03  0.12509625337E+03 0.  0.
          5    1    3    3  502    0  0.18175658232E+02  0.16851546109E+02  0.64051340395E+02  0.68806800280E+02  0.41800000000E+01 0. -1.
         -5    1    3    3    0  502 -0.58048213635E+02 -0.32708025920E+02 -0.21474683657E+02  0.70128770872E+02  0.41800000000E+01 0. -1.
        -11    1    1    2    0    0 -0.21158946046E+02  0.26639605983E+02  0.11198690395E+03  0.11704031895E+03  0.00000000000E+00 0.  1.
         11    1    1    2    0    0  0.61031501449E+02 -0.10783126171E+02  0.37155364213E+03  0.37668717653E+03  0.00000000000E+00 0. -1.
</event>
<event>
 7    1  0.6473813E-006  0.1261661E+03  0.7561462E-02  0.1233258E+00
         -1   -1    0    0    0  501 -0.00000000000E+00  0.00000000000E+00  0.53348537049E+03  0.53348537049E+03  0.00000000000E+00 0.  1.
          1   -1    0    0  501    0  0.00000000000E+00 -0.00000000000E+00 -0.34957808787E+02  0.34957808787E+02  0.00000000000E+00 0. -1.
         23    2    1    2    0    0 -0.71105334195E+02 -0.24706961725E+02  0.34271019871E+03  0.37251030489E+03  0.12508894611E+03 0.  0.
          5    1    3    3  502    0 -0.56632391033E+01 -0.65501442083E+02  0.19502476374E+03  0.20585101910E+03  0.41800000000E+01 0.  1.
         -5    1    3    3    0  502 -0.65442095091E+02  0.40794480357E+02  0.14768543496E+03  0.16665928578E+03  0.41800000000E+01 0.  1.
        -11    1    1    2    0    0 -0.12489226755E+02  0.22342971292E+02  0.76515783521E+02  0.80683667981E+02  0.00000000000E+00 0.  1.
         11    1    1    2    0    0  0.83594560950E+02  0.23639904331E+01  0.79301579479E+02  0.11524920641E+03  0.00000000000E+00 0. -1.
</event>
<event>
 7    1  0.6473813E-006  0.1407943E+03  0.7561462E-02  0.1212264E+00
         -2   -1    0    0    0  501 -0.00000000000E+00  0.00000000000E+00  0.18959919471E+02  0.18959919471E+02  0.00000000000E+00 0.  1.
          2   -1    0    0  501    0  0.00000000000E+00 -0.00000000000E+00 -0.14428640795E+04  0.14428640795E+04  0.00000000000E+00 0. -1.
         23    2    1    2    0    0  0.46629598670E+02  0.12863095780E+03 -0.86626916078E+03  0.88588375750E+03  0.12509008798E+03 0.  0.
          5    1    3    3  502    0  0.32643313555E+02  0.73939689799E+02 -0.76972848166E+03  0.77397162191E+03  0.41800000000E+01 0. -1.
         -5    1    3    3    0  502  0.13986285115E+02  0.54691268005E+02 -0.96540679117E+02  0.11191213559E+03  0.41800000000E+01 0. -1.
        -11    1    1    2    0    0  0.70518909263E+01 -0.38525866572E+02 -0.15140553644E+03  0.15638928360E+03  0.00000000000E+00 0.  1.
         11    1    1    2    0    0 -0.53681489596E+02 -0.90105091233E+02 -0.40622946277E+03  0.41955095783E+03  0.00000000000E+00 0. -1.
</event>
<event>
 7    1  0.6473813E-006  0.1324871E+03  0.7561462E-02  0.1223811E+00
          1   -1    0    0  501    0  0.00000000000E+00  0.00000000000E+00  0.74108425697E+03  0.74108425697E+03  0.00000000000E+00 0. -1.
         -1   -1    0    0    0  501 -0.00000000000E+00 -0.00000000000E+00 -0.32220816753E+02  0.32220816753E+02  0.00000000000E+00 0.  1.
         23    2    1    2    0    0  0.40605193760E+00 -0.10328636159E+03  0.29300752313E+03  0.33491941459E+03  0.12509743519E+03 0.  0.
          5    1    3    3  502    0 -0.47158748567E+02 -0.12620996067E+00  0.68427981771E+02  0.83209522199E+02  0.41800000000E+01 0. -1.
         -5    1    3    3    0  502  0.47564800504E+02 -0.10316015163E+03  0.22457954136E+03  0.25170989239E+03  0.41800000000E+01 0. -1.
        -11    1    1    2    0    0 -0.57044186719E+01  0.71848963048E+02  0.39199092932E+03  0.39856204355E+03  0.00000000000E+00 0. -1.
         11    1    1    2    0    0  0.52983667343E+01  0.31437398544E+02  0.23864987764E+02  0.39823615585E+02  0.00000000000E+00 0.  1.
</event>
<event>
 7    1  0.6473813E-006  0.1776714E+03  0.7561462E-02  0.1170076E+00
          1   -1    0    0  501    0  0.00000000000E+00  0.00000000000E+00  0.88418087537E+03  0.88418087537E+03  0.00000000000E+00 0. -1.
         -1   -1    0    0    0  501 -0.00000000000E+00 -0.00000000000E+00 -0.36669792246E+02  0.36669792246E+02  0.00000000000E+00 0.  1.
         23    2    1    2    0    0 -0.13326838365E+03 -0.49212935989E+02  0.39980085029E+03  0.44234842927E+03  0.12509611440E+03 0.  0.
          5    1    3    3  502    0  0.21820956106E+02 -0.22123105717E+02  0.78308236614E+02  0.84351871666E+02  0.41800000000E+01 0.  1.
         -5    1    3    3    0  502 -0.15508933976E+03 -0.27089830272E+02  0.32149261368E+03  0.35799655761E+03  0.41800000000E+01 0.  1.
        -11    1    1    2    0    0  0.11270762445E+03 -0.48948389317E+00  0.33838537983E+03  0.35666218399E+03  0.00000000000E+00 0. -1.
         11    1    1    2    0    0  0.20560759201E+02  0.49702419882E+02  0.10932485300E+03  0.12184005435E+03  0.00000000000E+00 0.  1.
</event>
<event>
 7    1  0.6473813E-006  0.3676466E+03  0.7561462E-02  0.1055596E+00
         -1   -1    0    0    0  501 -0.00000000000E+00  0.00000000000E+00  0.26492591341E+03  0.26492591341E+03  0.00000000000E+00 0.  1.
          1   -1    0    0  501    0  0.00000000000E+00 -0.00000000000E+00 -0.90946765622E+03  0.90946765622E+03  0.00000000000E+00 0. -1.
         23    2    1    2    0    0  0.97971492598E+02  0.35235997290E+03  0.44665589064E+02  0.38910000829E+03  0.12509131761E+03 0.  0.
          5    1    3    3  502    0  0.94589941735E+02  0.26643409857E+03 -0.16893803613E+02  0.28326182051E+03  0.41800000000E+01 0.  1.
         -5    1    3    3    0  502  0.33815508624E+01  0.85925874325E+02  0.61559392676E+02  0.10583818777E+03  0.41800000000E+01 0.  1.
        -11    1    1    2    0    0 -0.82599499379E+02 -0.25981975135E+03 -0.58294881076E+03  0.64355131610E+03  0.00000000000E+00 0. -1.
         11    1    1    2    0    0 -0.15371993218E+02 -0.92540221548E+02 -0.10625852111E+03  0.14174224525E+03  0.00000000000E+00 0.  1.
</event>
<event>
 7    1  0.6473813E-006  0.1353618E+03  0.7561462E-02  0.1219710E+00
          2   -1    0    0  501    0  0.00000000000E+00  0.00000000000E+00  0.36750533002E+03  0.36750533002E+03  0.00000000000E+00 0. -1.
         -2   -1    0    0    0  501 -0.00000000000E+00 -0.00000000000E+00 -0.56445300935E+02  0.56445300935E+02  0.00000000000E+00 0.  1.
         23    2    1    2    0    0  0.23046740259E+02  0.10149819063E+03  0.12300535054E+03  0.20398687977E+03  0.12508915189E+03 0.  0.
          5    1    3    3  502    0  0.57609871698E+02  0.11178148297E+03  0.87888000435E+02  0.15347889194E+03  0.41800000000E+01 0. -1.
         -5    1    3    3    0  502 -0.34563131439E+02 -0.10283292341E+02  0.35117350102E+02  0.50507987828E+02  0.41800000000E+01 0. -1.
        -11    1    1    2    0    0  0.77878520578E+01 -0.20224925214E+02  0.15164343100E+02  0.26451002651E+02  0.00000000000E+00 0. -1.
         11    1    1    2    0    0 -0.30834592316E+02 -0.81273265412E+02  0.17289033545E+03  0.19351274854E+03  0.00000000000E+00 0.  1.
</event>
<event>
 7    1  0.6473813E-006  0.2262990E+03  0.7561462E-02  0.1129272E+00
          2   -1    0    0  501    0  0.00000000000E+00  0.00000000000E+00  0.61807399376E+03  0.61807399376E+03  0.00000000000E+00 0. -1.
         -2   -1    0    0    0  501 -0.00000000000E+00 -0.00000000000E+00 -0.86026912487E+02  0.86026912487E+02  0.00000000000E+00 0.  1.
         23    2    1    2    0    0 -0.96431683091E+02  0.16837772306E+03  0.25491980955E+03  0.34392051742E+03  0.12508831231E+03 0.  0.
          5    1    3    3  502    0 -0.99804351813E+02  0.55971673473E+02  0.15969475161E+03  0.19650349352E+03  0.41800000000E+01 0.  1.
         -5    1    3    3    0  502  0.33726687228E+01  0.11240604958E+03  0.95225057939E+02  0.14741702390E+03  0.41800000000E+01 0.  1.
        -11    1    1    2    0    0  0.45354859371E+02 -0.16848476389E+03  0.24136786378E+03  0.29782985847E+03  0.00000000000E+00 0. -1.
         11    1    1    2    0    0  0.51076823720E+02  0.10704083355E+00  0.35759407950E+02  0.62350530359E+02  0.00000000000E+00 0.  1.
</event>
<event>
 7    1  0.6473813E-006  0.1285680E+03  0.7561462E-02  0.1229596E+00
          2   -1    0    0  501    0  0.00000000000E+00  0.00000000000E+00  0.77313819730E+03  0.77313819730E+03  0.00000000000E+00 0. -1.
         -2   -1    0    0    0  501 -0.00000000000E+00 -0.00000000000E+00 -0.31298210803E+02  0.31298210803E+02  0.00000000000E+00 0.  1.
         23    2    1    2    0    0 -0.10336662084E+03 -0.37801791828E+02  0.39232786530E+03  0.42624242630E+03  0.12509123997E+03 0.  0.
          5    1    3    3  502    0 -0.19027175048E+02  0.51677657049E+01 -0.24051226439E+01  0.20297689711E+02  0.41800000000E+01 0. -1.
         -5    1    3    3    0  502 -0.84339445792E+02 -0.42969557533E+02  0.39473298795E+03  0.40594473659E+03  0.41800000000E+01 0. -1.
        -11    1    1    2    0    0  0.11313818438E+03  0.10958440707E+02  0.24931526499E+03  0.27400444804E+03  0.00000000000E+00 0. -1.
         11    1    1    2    0    0 -0.97715635359E+01  0.26843351122E+02  0.10019685620E+03  0.10418953376E+03  0.00000000000E+00 0.  1.
</event>
<event>
 7    1  0.6473813E-006  0.1010208E+03  0.7561462E-02  0.1278164E+00
          1   -1    0    0  501    0  0.00000000000E+00  0.00000000000E+00  0.32826967056E+02  0.32826967056E+02  0.00000000000E+00 0. -1.
         -1   -1    0    0    0  501 -0.00000000000E+00 -0.00000000000E+00 -0.47266366561E+03  0.47266366561E+03  0.00000000000E+00 0.  1.
         23    2    1    2    0    0 -0.58661662866E+02  0.40578120508E+01 -0.24850313176E+03  0.28442960640E+03  0.12525469242E+03 0.  0.
          5    1    3    3  502    0 -0.26021844284E+02 -0.58892824960E+02 -0.90005470214E+02  0.11074275724E+03  0.41800000000E+01 0. -1.
         -5    1    3    3    0  502 -0.32639818582E+02  0.62950637011E+02 -0.15849766155E+03  0.17368684917E+03  0.41800000000E+01 0. -1.
        -11    1    1    2    0    0  0.45092144325E+02 -0.16560203792E+02 -0.19618694428E+03  0.20198232333E+03  0.00000000000E+00 0.  1.
         11    1    1    2    0    0  0.13569518541E+02  0.12502391741E+02  0.48533774907E+01  0.19078702937E+02  0.00000000000E+00 0. -1.
</event>
<event>
 6    1  0.6473813E-006  0.3163010E+03  0.7561462E-02  0.1077364E+00
         -2   -1    0    0    0  501 -0.00000000000E+00  0.00000000000E+00  0.56287210906E+03  0.56287210906E+03  0.00000000000E+00 0.  1.
          2   -1    0    0  501    0  0.00000000000E+00 -0.00000000000E+00 -0.52170304571E+03  0.52170304571E+03  0.00000000000E+00 0. -1.
          5    1    1    2  502    0  0.44643246199E+01  0.25982798067E+02  0.20701258552E+02  0.33779438943E+02  0.41800000000E+01 0. -1.
         -5    1    1    2    0  502 -0.30305916593E+03 -0.12701096840E+02  0.43312384029E+03  0.52879098833E+03  0.41800000000E+01 0.  1.
        -11    1    1    2    0    0  0.26042414832E+03  0.44608131276E+01 -0.27813023744E+03  0.38104732628E+03  0.00000000000E+00 0.  1.
         11    1    1    2    0    0  0.38170692985E+02 -0.17742514355E+02 -0.13452579805E+03  0.14095740122E+03  0.00000000000E+00 0. -1.
</event>
<event>
 7    1  0.6473813E-006  0.3640345E+03  0.7561462E-02  0.1056998E+00
          1   -1    0    0  501    0  0.00000000000E+00  0.00000000000E+00  0.45056555596E+03  0.45056555596E+03  0.00000000000E+00 0. -1.
         -1   -1    0    0    0  501 -0.00000000000E+00 -0.00000000000E+00 -0.31235278374E+03  0.31235278374E+03  0.00000000000E+00 0.  1.
         23    2    1    2    0    0 -0.23030625753E+03 -0.26217626898E+03 -0.15170577142E+02  0.37101897913E+03  0.12509024019E+03 0.  0.
          5    1    3    3  502    0 -0.11725843946E+03 -0.50962264953E+02 -0.28458470803E+02  0.13104980364E+03  0.41800000000E+01 0.  1.
         -5    1    3    3    0  502 -0.11304781808E+03 -0.21121400403E+03  0.13287893661E+02  0.23996917549E+03  0.41800000000E+01 0.  1.
        -11    1    1    2    0    0  0.13545632043E+03  0.85975408052E+02  0.63885662460E+02  0.17268921044E+03  0.00000000000E+00 0. -1.
         11    1    1    2    0    0  0.94849937104E+02  0.17620086093E+03  0.89497686894E+02  0.21921015013E+03  0.00000000000E+00 0.  1.
</event>
<event>
 7    1  0.6473813E-006  0.9601177E+02  0.7561462E-02  0.1288913E+00
         -4   -1    0    0    0  501 -0.00000000000E+00  0.00000000000E+00  0.35733531811E+02  0.35733531811E+02  0.00000000000E+00 0.  1.
          4   -1    0    0  501    0  0.00000000000E+00 -0.00000000000E+00 -0.32641773196E+03  0.32641773196E+03  0.00000000000E+00 0. -1.
         23    2    1    2    0    0  0.70962393911E+01 -0.75906684490E+01 -0.15509923106E+03  0.19952876053E+03  0.12509188600E+03 0.  0.
          5    1    3    3  502    0 -0.50533669112E+02  0.21230134233E+02 -0.10224166233E+03  0.11608273011E+03  0.41800000000E+01 0. -1.
         -5    1    3    3    0  502  0.57629908503E+02 -0.28820802682E+02 -0.52857568723E+02  0.83446030419E+02  0.41800000000E+01 0. -1.
        -11    1    1    2    0    0  0.28939013941E+02 -0.12158935849E+02 -0.10959319416E+03  0.11399988796E+03  0.00000000000E+00 0. -1.
         11    1    1    2    0    0 -0.36035253332E+02  0.19749604298E+02 -0.25991774933E+02  0.48622615282E+02  0.00000000000E+00 0.  1.
</event>
<event>
 7    1  0.6473813E-006  0.1051455E+03  0.7561462E-02  0.1269833E+00
          1   -1    0    0  501    0  0.00000000000E+00  0.00000000000E+00  0.53031539969E+02  0.53031539969E+02  0.00000000000E+00 0. -1.
         -1   -1    0    0    0  501 -0.00000000000E+00 -0.00000000000E+00 -0.29486931178E+03  0.29486931178E+03  0.00000000000E+00 0.  1.
         23    2    1    2    0    0  0.19654756776E+02 -0.54374994956E+02 -0.17809133115E+03  0.22518128935E+03  0.12508853386E+03 0.  0.
          5    1    3    3  502    0  0.53326000202E+02 -0.62624803704E+02 -0.17064178413E+03  0.18947722615E+03  0.41800000000E+01 0.  1.
         -5    1    3    3    0  502 -0.33671243426E+02  0.82498087474E+01 -0.74495470115E+01  0.35704063199E+02  0.41800000000E+01 0.  1.
        -11    1    1    2    0    0 -0.18318906208E+01 -0.18195097198E+02 -0.40537974069E+02  0.44471841955E+02  0.00000000000E+00 0.  1.
         11    1    1    2    0    0 -0.17822866155E+02  0.72570092155E+02 -0.23208466598E+02  0.78247720447E+02  0.00000000000E+00 0. -1.
</event>
<event>
 7    1  0.6473813E-006  0.8910339E+02  0.7561462E-02  0.1305038E+00
         -2   -1    0    0    0  501 -0.00000000000E+00  0.00000000000E+00  0.38961223202E+03  0.38961223202E+03  0.00000000000E+00 0. -1.
          2   -1    0    0  501    0  0.00000000000E+00 -0.00000000000E+00 -0.32386234443E+02  0.32386234443E+02  0.00000000000E+00 0.  1.
         23    2    1    2    0    0  0.23844613095E+02 -0.16869378987E+02  0.22365130057E+03  0.25791645261E+03  0.12509136965E+03 0.  0.
          5    1    3    3  502    0 -0.17898437744E+02  0.21708930063E+02  0.14057421793E+01  0.28479470312E+02  0.41800000000E+01 0. -1.
         -5    1    3    3    0  502  0.41743050839E+02 -0.38578309049E+02  0.22224555839E+03  0.22943698230E+03  0.41800000000E+01 0. -1.
        -11    1    1    2    0    0 -0.52908480252E+02  0.30060047990E+02  0.10440110479E+03  0.12084082278E+03  0.00000000000E+00 0.  1.
         11    1    1    2    0    0  0.29063867157E+02 -0.13190669003E+02  0.29173592219E+02  0.43241191078E+02  0.00000000000E+00 0. -1.
</event>
<event>
 7    1  0.6473813E-006  0.8359334E+02  0.7561462E-02  0.1319153E+00
         -1   -1    0    0    0  501 -0.00000000000E+00  0.00000000000E+00  0.67974295644E+02  0.67974295644E+02  0.00000000000E+00 0.  1.
          1   -1    0    0  501    0  0.00000000000E+00 -0.00000000000E+00 -0.27792232731E+03  0.27792232731E+03  0.00000000000E+00 0. -1.
         23    2    1    2    0    0 -0.23146661970E+01 -0.55273768053E+02 -0.34725233248E+02  0.14111055791E+03  0.12508317479E+03 0.  0.
          5    1    3    3  502    0  0.11714863770E+02 -0.22225003860E+02 -0.79550069250E+02  0.83527688508E+02  0.41800000000E+01 0. -1.
         -5    1    3    3    0  502 -0.14029529967E+02 -0.33048764192E+02  0.44824836003E+02  0.57582869401E+02  0.41800000000E+01 0. -1.
        -11    1    1    2    0    0  0.39852291538E+02  0.13574109687E+01 -0.75184144175E+02  0.85104072997E+02  0.00000000000E+00 0.  1.
         11    1    1    2    0    0 -0.37537625341E+02  0.53916357084E+02 -0.10003865424E+03  0.11968199204E+03  0.00000000000E+00 0. -1.
</event>
<event>
 7    1  0.6473813E-006  0.1142139E+03  0.7561462E-02  0.1252959E+00
          2   -1    0    0  501    0  0.00000000000E+00  0.00000000000E+00  0.80453232013E+03  0.80453232013E+03  0.00000000000E+00 0. -1.
         -2   -1    0    0    0  501 -0.00000000000E+00 -0.00000000000E+00 -0.18301907457E+02  0.18301907457E+02  0.00000000000E+00 0.  1.
         23    2    1    2    0    0 -0.47699000001E+02  0.15613554398E+02  0.37496105997E+03  0.39844802842E+03  0.12508420034E+03 0.  0.
          5    1    3    3  502    0  0.36394835530E+02 -0.14075429041E+02  0.65414773175E+02  0.76284118305E+02  0.41800000000E+01 0.  1.
         -5    1    3    3    0  502 -0.84093835531E+02  0.29688983439E+02  0.30954628680E+03  0.32216391012E+03  0.41800000000E+01 0.  1.
        -11    1    1    2    0    0  0.14913989379E+02  0.35881908460E+02  0.22606559410E+03  0.22938088689E+03  0.00000000000E+00 0.  1.
         11    1    1    2    0    0  0.32785010623E+02 -0.51495462858E+02  0.18520375860E+03  0.19500531228E+03  0.00000000000E+00 0. -1.
</event>
<event>
 7    1  0.6473813E-006  0.2116614E+03  0.7561462E-02  0.1140257E+00
          2   -1    0    0  501    0  0.00000000000E+00  0.00000000000E+00  0.53740390338E+03  0.53740390338E+03  0.00000000000E+00 0. -1.
         -2   -1    0    0    0  501 -0.00000000000E+00 -0.00000000000E+00 -0.13420765547E+03  0.13420765547E+03  0.00000000000E+00 0.  1.
         23    2    1    2    0    0 -0.19005500313E+03 -0.43566603224E+02  0.74325732377E+02  0.24329159576E+03  0.12509009930E+03 0.  0.
          5    1    3    3  502    0 -0.54695329982E+02  0.40942496750E+02  0.42349643138E+02  0.80491191045E+02  0.41800000000E+01 0.  1.
         -5    1    3    3    0  502 -0.13535967315E+03 -0.84509099974E+02  0.31976089239E+02  0.16280040472E+03  0.41800000000E+01 0.  1.
        -11    1    1    2    0    0  0.15054372955E+03  0.30281734644E+02  0.34954624367E+03  0.38178917536E+03  0.00000000000E+00 0. -1.
         11    1    1    2    0    0  0.39511273580E+02  0.13284868580E+02 -0.20675728140E+02  0.46530787735E+02  0.00000000000E+00 0.  1.
</event>
<event>
 7    1  0.6473813E-006  0.8275823E+02  0.7561462E-02  0.1321401E+00
         -2   -1    0    0    0  501 -0.00000000000E+00  0.00000000000E+00  0.17106031387E+03  0.17106031387E+03  0.00000000000E+00 0.  1.
          2   -1    0    0  501    0  0.00000000000E+00 -0.00000000000E+00 -0.80633463328E+02  0.80633463328E+02  0.00000000000E+00 0. -1.
         23    2    1    2    0    0  0.31629003745E+02 -0.50097181569E+02  0.42043437563E+02  0.13215037901E+03  0.11038999298E+03 0.  0.
          5    1    3    3  502    0  0.36336474082E+01 -0.61949400584E+02 -0.17975076562E+02  0.64741852025E+02  0.41800000000E+01 0. -1.
         -5    1    3    3    0  502  0.27995356337E+02  0.11852219015E+02  0.60018514125E+02  0.67408526981E+02  0.41800000000E+01 0.  1.
        -11    1    1    2    0    0  0.99835573856E+01  0.46517018753E+01 -0.22844530169E+02  0.25361039155E+02  0.00000000000E+00 0. -1.
         11    1    1    2    0    0 -0.41612561130E+02  0.45445479694E+02  0.71227943144E+02  0.94182359033E+02  0.00000000000E+00 0.  1.
</event>
<event>
 7    1  0.6473813E-006  0.1717008E+03  0.7561462E-02  0.1176086E+00
         -2   -1    0    0    0  501 -0.00000000000E+00  0.00000000000E+00  0.96370131328E+02  0.96370131328E+02  0.00000000000E+00 0.  1.
          2   -1    0    0  501    0  0.00000000000E+00 -0.00000000000E+00 -0.80274657511E+03  0.80274657511E+03  0.00000000000E+00 0. -1.
         23    2    1    2    0    0 -0.12840162875E+03  0.93564093218E+02 -0.37540545183E+02  0.20566413175E+03  0.12508886741E+03 0.  0.
          5    1    3    3  502    0 -0.89231014199E+01  0.59104046476E+02 -0.53370579712E+02  0.80242141220E+02  0.41800000000E+01 0. -1.
         -5    1    3    3    0  502 -0.11947852733E+03  0.34460046742E+02  0.15830034529E+02  0.12542199053E+03  0.41800000000E+01 0. -1.
        -11    1    1    2    0    0  0.10892464382E+03 -0.82688574904E+02 -0.65007767859E+03  0.66430638011E+03  0.00000000000E+00 0. -1.
         11    1    1    2    0    0  0.19476984930E+02 -0.10875518313E+02 -0.18758220008E+02  0.29146194579E+02  0.00000000000E+00 0.  1.
</event>
<event>
 7    1  0.6473813E-006  0.1506522E+03  0.7561462E-02  0.1199674E+00
          2   -1    0    0  501    0  0.00000000000E+00  0.00000000000E+00  0.17926975344E+04  0.17926975344E+04  0.00000000000E+00 0. -1.
         -2   -1    0    0    0  501 -0.00000000000E+00 -0.00000000000E+00 -0.14414445168E+02  0.14414445168E+02  0.00000000000E+00 0.  1.
         23    2    1    2    0    0 -0.11398482304E+03 -0.51209544628E+01  0.10623768048E+04  0.10757848703E+04  0.12509935073E+03 0.  0.
          5    1    3    3  502    0 -0.11035156385E+03 -0.39843474590E+02  0.96759999121E+03  0.97469594516E+03  0.41800000000E+01 0. -1.
         -5    1    3    3    0  502 -0.36332591890E+01  0.34722520128E+02  0.94776813635E+02  0.10108892511E+03  0.41800000000E+01 0. -1.
        -11    1    1    2    0    0  0.10583902051E+03 -0.32133684347E+02  0.50114969425E+03  0.51321095855E+03  0.00000000000E+00 0. -1.
         11    1    1    2    0    0  0.81458025251E+01  0.37254638810E+02  0.21475659010E+03  0.21811615072E+03  0.00000000000E+00 0.  1.
</event>
<event>
 7    1  0.6473813E-006  0.1232440E+03  0.7561462E-02  0.1237839E+00
         -1   -1    0    0    0  501 -0.00000000000E+00  0.00000000000E+00  0.24690594340E+03  0.24690594340E+03  0.00000000000E+00 0.  1.
          1   -1    0    0  501    0  0.00000000000E+00 -0.00000000000E+00 -0.71945609514E+02  0.71945609514E+02  0.00000000000E+00 0. -1.
         23    2    1    2    0    0 -0.70143272888E+02  0.30821422206E+01  0.14581401791E+03  0.19890398247E+03  0.11563515077E+03 0.  0.
          5    1    3    3  502    0 -0.52892652688E+00 -0.45229258596E+02  0.26783469596E+02  0.52733217615E+02  0.41800000000E+01 0. -1.
         -5    1    3    3    0  502 -0.69614346361E+02  0.48311400816E+02  0.11903054831E+03  0.14617076486E+03  0.41800000000E+01 0.  1.
        -11    1    1    2    0    0  0.71038438194E+00 -0.38343897279E+02  0.12276874300E+02  0.40267614122E+02  0.00000000000E+00 0. -1.
         11    1    1    2    0    0  0.69432888506E+02  0.35261755059E+02  0.16869441677E+02  0.79679956317E+02  0.00000000000E+00 0.  1.
</event>
<event>
 7    1  0.6473813E-006  0.2177635E+03  0.7561462E-02  0.1135562E+00
          3   -1    0    0  501    0  0.00000000000E+00  0.00000000000E+00  0.80999059341E+02  0.80999059341E+02  0.00000000000E+00 0. -1.
         -3   -1    0    0    0  501 -0.00000000000E+00 -0.00000000000E+00 -0.82288712637E+03  0.82288712637E+03  0.00000000000E+00 0.  1.
         23    2    1    2    0    0  0.11320879010E+03 -0.17421261328E+03 -0.56965596233E+03  0.61912927174E+03  0.12508746910E+03 0.  0.
          5    1    3    3  502    0  0.69029503901E+02 -0.84261006857E+02 -0.44990157561E+03  0.46291888039E+03  0.41800000000E+01 0. -1.
         -5    1    3    3    0  502  0.44179286202E+02 -0.89951606423E+02 -0.11975438672E+03  0.15621039135E+03  0.41800000000E+01 0. -1.
        -11    1    1    2    0    0 -0.53197476168E+02  0.15394344320E+03 -0.11493732884E+03  0.19934679515E+03  0.00000000000E+00 0.  1.
         11    1    1    2    0    0 -0.60011313935E+02  0.20269170076E+02 -0.57294775864E+02  0.85410118822E+02  0.00000000000E+00 0. -1.
</event>
<event>
 7    1  0.6473813E-006  0.2258649E+03  0.7561462E-02  0.1129585E+00
          2   -1    0    0  501    0  0.00000000000E+00  0.00000000000E+00  0.24174680796E+03  0.24174680796E+03  0.00000000000E+00 0. -1.
         -2   -1    0    0    0  501 -0.00000000000E+00 -0.00000000000E+00 -0.22729827533E+03  0.22729827533E+03  0.00000000000E+00 0.  1.
         23    2    1    2    0    0 -0.20098168610E+03 -0.38024237335E+02 -0.26397707581E+02  0.24121162511E+03  0.12508688321E+03 0.  0.
          5    1    3    3  502    0 -0.19404102780E+03 -0.66788312730E+02 -0.65942311984E+01  0.20536201078E+03  0.41800000000E+01 0.  1.
         -5    1    3    3    0  502 -0.69406583016E+01  0.28764075395E+02 -0.19803476382E+02  0.35849614333E+02  0.41800000000E+01 0.  1.
        -11    1    1    2    0    0  0.11651713304E+03  0.57465298333E+02 -0.45392382529E+01  0.12999656722E+03  0.00000000000E+00 0.  1.
         11    1    1    2    0    0  0.84464553057E+02 -0.19441060998E+02  0.45385478460E+02  0.97836890950E+02  0.00000000000E+00 0. -1.
</event>
<event>
 7    1  0.6473813E-006  0.8573372E+02  0.7561462E-02  0.1313525E+00
         -1   -1    0    0    0  501 -0.00000000000E+00  0.00000000000E+00  0.67846237431E+02  0.67846237431E+02  0.00000000000E+00 0.  1.
          1   -1    0    0  501    0  0.00000000000E+00 -0.00000000000E+00 -0.25166786389E+03  0.25166786389E+03  0.00000000000E+00 0. -1.
         23    2    1    2    0    0 -0.53497005287E+02 -0.63960934973E+00 -0.43715080014E+02  0.14290234554E+03  0.12509090081E+03 0.  0.
          5    1    3    3  502    0  0.63951366298E+00 -0.29845766931E+02  0.32859936286E+02  0.44591777204E+02  0.41800000000E+01 0.  1.
         -5    1    3    3    0  502 -0.54136518950E+02  0.29206157582E+02 -0.76575016300E+02  0.98310568333E+02  0.41800000000E+01 0.  1.
        -11    1    1    2    0    0  0.28150471055E+02  0.29826474873E+02 -0.11900526322E+02  0.42704685348E+02  0.00000000000E+00 0.  1.
         11    1    1    2    0    0  0.25346534232E+02 -0.29186865523E+02 -0.12820602013E+03  0.13390707044E+03  0.00000000000E+00 0. -1.
</event>
<event>
 7    1  0.6473813E-006  0.1008579E+03  0.7561462E-02  0.1278502E+00
          2   -1    0    0  501    0  0.00000000000E+00  0.00000000000E+00  0.79852235543E+02  0.79852235543E+02  0.00000000000E+00 0. -1.
         -2   -1    0    0    0  501 -0.00000000000E+00 -0.00000000000E+00 -0.15832182587E+03  0.15832182587E+03  0.00000000000E+00 0.  1.
         23    2    1    2    0    0 -0.31780021780E+02  0.75857198424E+01 -0.45488761567E+02  0.13705880312E+03  0.12509346567E+03 0.  0.
          5    1    3    3  502    0 -0.94800512051E+00  0.59083128618E+02 -0.48872763405E+02  0.76796706986E+02  0.41800000000E+01 0.  1.
         -5    1    3    3    0  502 -0.30832016660E+02 -0.51497408775E+02  0.33840018388E+01  0.60262096133E+02  0.41800000000E+01 0.  1.
        -11    1    1    2    0    0 -0.67215997679E+01  0.28656605820E+02  0.11910759085E+02  0.31752907623E+02  0.00000000000E+00 0.  1.
         11    1    1    2    0    0  0.38501621548E+02 -0.36242325662E+02 -0.44891587845E+02  0.69362350670E+02  0.00000000000E+00 0. -1.
</event>
<event>
 6    1  0.6473813E-006  0.1652539E+03  0.7561462E-02  0.1182890E+00
         -1   -1    0    0    0  501 -0.00000000000E+00  0.00000000000E+00  0.24665981228E+03  0.24665981228E+03  0.00000000000E+00 0.  1.
          1   -1    0    0  501    0  0.00000000000E+00 -0.00000000000E+00 -0.16142492120E+03  0.16142492120E+03  0.00000000000E+00 0. -1.
          5    1    1    2  502    0 -0.30804837827E+02 -0.23866791201E+02  0.45413911440E+01  0.39454510380E+02  0.41800000000E+01 0. -1.
         -5    1    1    2    0  502  0.11617570090E+03  0.11442214430E+03  0.11730692063E+03  0.20091691470E+03  0.41800000000E+01 0.  1.
        -11    1    1    2    0    0 -0.17168898382E+02 -0.39295320807E+02  0.35758254256E+02  0.55834989535E+02  0.00000000000E+00 0.  1.
         11    1    1    2    0    0 -0.68201964689E+02 -0.51260032294E+02 -0.72371674946E+02  0.11187831887E+03  0.00000000000E+00 0. -1.
</event>
<event>
 7    1  0.6473813E-006  0.1179624E+03  0.7561462E-02  0.1246497E+00
         -2   -1    0    0    0  501 -0.00000000000E+00  0.00000000000E+00  0.32601953323E+03  0.32601953323E+03  0.00000000000E+00 0.  1.
          2   -1    0    0  501    0  0.00000000000E+00 -0.00000000000E+00 -0.54940646118E+02  0.54940646118E+02  0.00000000000E+00 0. -1.
         23    2    1    2    0    0 -0.10195505160E+02 -0.50846924214E+02  0.23184796443E+03  0.26849688694E+03  0.12509093356E+03 0.  0.
          5    1    3    3  502    0  0.38781648543E+02  0.20585786112E+02  0.47763922096E+02  0.65012733427E+02  0.41800000000E+01 0. -1.
         -5    1    3    3    0  502 -0.48977153703E+02 -0.71432710326E+02  0.18408404234E+03  0.20348415352E+03  0.41800000000E+01 0. -1.
        -11    1    1    2    0    0 -0.39682292356E+02  0.34607863527E+02  0.23825539033E+02  0.57793121172E+02  0.00000000000E+00 0. -1.
         11    1    1    2    0    0  0.49877797515E+02  0.16239060686E+02  0.15405383641E+02  0.54670171228E+02  0.00000000000E+00 0.  1.
</event>
<event>
 7    1  0.6473813E-006  0.8362705E+02  0.7561462E-02  0.1319062E+00
          3   -1    0    0  501    0  0.00000000000E+00  0.00000000000E+00  0.23396881288E+03  0.23396881288E+03  0.00000000000E+00 0. -1.
         -3   -1    0    0    0  501 -0.00000000000E+00 -0.00000000000E+00 -0.10273560482E+03  0.10273560482E+03  0.00000000000E+00 0.  1.
         23    2    1    2    0    0 -0.42344748648E+01 -0.53417780867E+02 -0.33618995923E+02  0.14017439488E+03  0.12508890440E+03 0.  0.
          5    1    3    3  502    0  0.19509416457E+02 -0.18877473443E+02 -0.75763524534E+02  0.80588835355E+02  0.41800000000E+01 0. -1.
         -5    1    3    3    0  502 -0.23743891321E+02 -0.34540307425E+02  0.42144528610E+02  0.59585559525E+02  0.41800000000E+01 0. -1.
        -11    1    1    2    0    0 -0.36558095561E+01 -0.21764556581E+02  0.10037792539E+02  0.24244961244E+02  0.00000000000E+00 0.  1.
         11    1    1    2    0    0  0.78902844209E+01  0.75182337449E+02  0.15481441145E+03  0.17228506158E+03  0.00000000000E+00 0. -1.
</event>
<event>
 7    1  0.6473813E-006  0.1168086E+03  0.7561462E-02  0.1248457E+00
          2   -1    0    0  501    0  0.00000000000E+00  0.00000000000E+00  0.19185284185E+03  0.19185284185E+03  0.00000000000E+00 0. -1.
         -2   -1    0    0    0  501 -0.00000000000E+00 -0.00000000000E+00 -0.72955335408E+02  0.72955335408E+02  0.00000000000E+00 0.  1.
         23    2    1    2    0    0 -0.96403014412E+01 -0.45244856972E+02  0.65466061078E+02  0.14857148878E+03  0.12509056571E+03 0.  0.
          5    1    3    3  502    0 -0.11581959766E+02 -0.87387552492E+02  0.29726854637E+02  0.93122953181E+02  0.41800000000E+01 0.  1.
         -5    1    3    3    0  502  0.19416583251E+01  0.42142695520E+02  0.35739206441E+02  0.55448535596E+02  0.41800000000E+01 0.  1.
        -11    1    1    2    0    0  0.49251414215E+02  0.10669367803E+02  0.22064015838E+02  0.55012344127E+02  0.00000000000E+00 0.  1.
         11    1    1    2    0    0 -0.39611112774E+02  0.34575489169E+02  0.31367429524E+02  0.61224344352E+02  0.00000000000E+00 0. -1.
</event>
<event>
 7    1  0.6473813E-006  0.8765477E+02  0.7561462E-02  0.1308632E+00
          2   -1    0    0  501    0  0.00000000000E+00  0.00000000000E+00  0.15624659231E+03  0.15624659231E+03  0.00000000000E+00 0. -1.
         -2   -1    0    0    0  501 -0.00000000000E+00 -0.00000000000E+00 -0.86013245214E+02  0.86013245214E+02  0.00000000000E+00 0.  1.
         23    2    1    2    0    0  0.70009216904E+01  0.57953789784E+01  0.20368001186E+00  0.12541921277E+03  0.12508932058E+03 0.  0.
          5    1    3    3  502    0  0.53865623007E+02  0.25380758488E+02  0.29553826792E+02  0.66607727190E+02  0.41800000000E+01 0. -1.
         -5    1    3    3    0  502 -0.46864701317E+02 -0.19585379510E+02 -0.29350146780E+02  0.58811485579E+02  0.41800000000E+01 0. -1.
        -11    1    1    2    0    0 -0.60315486170E+00 -0.34873846430E+02  0.78487630803E+02  0.85888632249E+02  0.00000000000E+00 0. -1.
         11    1    1    2    0    0 -0.63977668287E+01  0.29078467452E+02 -0.84579637192E+01  0.30951992505E+02  0.00000000000E+00 0.  1.
</event>
<event>
 7    1  0.6473813E-006  0.1130972E+03  0.7561462E-02  0.1254940E+00
          1   -1    0    0  501    0  0.00000000000E+00  0.00000000000E+00  0.14779023157E+03  0.14779023157E+03  0.00000000000E+00 0. -1.
         -1   -1    0    0    0  501 -0.00000000000E+00 -0.00000000000E+00 -0.10118023781E+03  0.10118023781E+03  0.00000000000E+00 0.  1.
         23    2    1    2    0    0 -0.55866907537E+02 -0.52700123620E+01  0.41256743577E+02  0.14317268202E+03  0.12508962226E+03 0.  0.
          5    1    3    3  502    0 -0.41389195320E+02 -0.59258833232E+02 -0.19054735767E+01  0.72427743544E+02  0.41800000000E+01 0.  1.
         -5    1    3    3    0  502 -0.14477712217E+02  0.53988820870E+02  0.43162217154E+02  0.70744938473E+02  0.41800000000E+01 0.  1.
        -11    1    1    2    0    0  0.61672044768E+02  0.32628667828E+02  0.22114095595E+02  0.73192242035E+02  0.00000000000E+00 0. -1.
         11    1    1    2    0    0 -0.58051372307E+01 -0.27358655466E+02 -0.16760845415E+02  0.32605545329E+02  0.00000000000E+00 0.  1.
</event>
<event>
 7    1  0.6473813E-006  0.7550392E+02  0.7561462E-02  0.1342318E+00
          1   -1    0    0  501    0  0.00000000000E+00  0.00000000000E+00  0.27980786521E+03  0.27980786521E+03  0.00000000000E+00 0. -1.
         -1   -1    0    0    0  501 -0.00000000000E+00 -0.00000000000E+00 -0.60932253058E+02  0.60932253058E+02  0.00000000000E+00 0.  1.
         23    2    1    2    0    0 -0.35400538716E+02 -0.16514592578E+02  0.68992862770E+02  0.14810281476E+03  0.12509395955E+03 0.  0.
          5    1    3    3  502    0 -0.16553597771E+02 -0.19644067488E+02 -0.34254030239E+02  0.43020018297E+02  0.41800000000E+01 0.  1.
         -5    1    3    3    0  502 -0.18846940945E+02  0.31294749101E+01  0.10324689301E+03  0.10508279646E+03  0.41800000000E+01 0.  1.
        -11    1    1    2    0    0  0.16601174689E+02  0.57759065294E+02  0.35974388044E+02  0.70041881898E+02  0.00000000000E+00 0.  1.
         11    1    1    2    0    0  0.18799364027E+02 -0.41244472715E+02  0.11390836133E+03  0.12259542161E+03  0.00000000000E+00 0. -1.
</event>
<event>
 7    1  0.6473813E-006  0.8289199E+02  0.7561462E-02  0.1321039E+00
         -1   -1    0    0    0  501 -0.00000000000E+00  0.00000000000E+00  0.22424927559E+03  0.22424927559E+03  0.00000000000E+00 0.  1.
          1   -1    0    0  501    0  0.00000000000E+00 -0.00000000000E+00 -0.52779760173E+02  0.52779760173E+02  0.00000000000E+00 0. -1.
         23    2    1    2    0    0 -0.28667406280E+02 -0.20714628461E+02  0.11343495493E+03  0.16454295063E+03  0.11382432775E+03 0.  0.
          5    1    3    3  502    0 -0.45174421138E+02  0.31655094471E+02  0.87861016896E+02  0.10382583504E+03  0.41800000000E+01 0. -1.
         -5    1    3    3    0  502  0.16507014858E+02 -0.52369722932E+02  0.25573938034E+02  0.60717115593E+02  0.41800000000E+01 0.  1.
        -11    1    1    2    0    0 -0.61514762400E+00 -0.11698356650E+02 -0.19930450646E+02  0.23118235613E+02  0.00000000000E+00 0. -1.
         11    1    1    2    0    0  0.29282553904E+02  0.32412985111E+02  0.77965011137E+02  0.89367849524E+02  0.00000000000E+00 0.  1.
</event>
<event>
 7    1  0.6473813E-006  0.3474778E+03  0.7561462E-02  0.1063655E+00
         -2   -1    0    0    0  501 -0.00000000000E+00  0.00000000000E+00  0.81557601186E+02  0.81557601186E+02  0.00000000000E+00 0.  1.
          2   -1    0    0  501    0  0.00000000000E+00 -0.00000000000E+00 -0.16269766277E+04  0.16269766277E+04  0.00000000000E+00 0. -1.
         23    2    1    2    0    0  0.13580939219E+03 -0.16105072219E+03 -0.33852726526E+03  0.41500326218E+03  0.11508897500E+03 0.  0.
          5    1    3    3  502    0  0.63308806812E+02 -0.31509604908E+01 -0.12012321493E+03  0.13588595489E+03  0.41800000000E+01 0. -1.
         -5    1    3    3    0  502  0.72500585381E+02 -0.15789976170E+03 -0.21840405033E+03  0.27911730728E+03  0.41800000000E+01 0.  1.
        -11    1    1    2    0    0 -0.82928529930E+02 -0.13416037988E+03 -0.30985662218E+03  0.34768847395E+03  0.00000000000E+00 0.  1.
         11    1    1    2    0    0 -0.52880862262E+02  0.29521110207E+03 -0.89703513906E+03  0.94584249275E+03  0.00000000000E+00 0. -1.
</event>
<event>
 7    1  0.6473813E-006  0.1630127E+03  0.7561462E-02  0.1185337E+00
          2   -1    0    0  501    0  0.00000000000E+00  0.00000000000E+00  0.82070356462E+03  0.82070356462E+03  0.00000000000E+00 0. -1.
         -2   -1    0    0    0  501 -0.00000000000E+00 -0.00000000000E+00 -0.39053427581E+02  0.39053427581E+02  0.00000000000E+00 0.  1.
         23    2    1    2    0    0 -0.13501216327E+03  0.18948840114E+01  0.29864256578E+03  0.35081126288E+03  0.12509710329E+03 0.  0.
          5    1    3    3  502    0 -0.96893323352E+02 -0.51667134432E+02  0.13282776642E+03  0.17239053577E+03  0.41800000000E+01 0. -1.
         -5    1    3    3    0  502 -0.38118839919E+02  0.53562018444E+02  0.16581479936E+03  0.17842072712E+03  0.41800000000E+01 0. -1.
        -11    1    1    2    0    0  0.34965901334E+02 -0.30295128275E+02  0.76998814621E+02  0.89828873456E+02  0.00000000000E+00 0.  1.
         11    1    1    2    0    0  0.10004626194E+03  0.28400244264E+02  0.40600875663E+03  0.41911685586E+03  0.00000000000E+00 0. -1.
</event>
<event>
 7    1  0.6473813E-006  0.8068281E+02  0.7561462E-02  0.1327125E+00
          2   -1    0    0  501    0  0.00000000000E+00  0.00000000000E+00  0.42075953990E+03  0.42075953990E+03  0.00000000000E+00 0. -1.
         -2   -1    0    0    0  501 -0.00000000000E+00 -0.00000000000E+00 -0.33574542647E+02  0.33574542647E+02  0.00000000000E+00 0.  1.
         23    2    1    2    0    0  0.32303210827E+02 -0.14717926186E+02  0.15111800245E+03  0.19935774449E+03  0.12508694914E+03 0.  0.
          5    1    3    3  502    0  0.21030159489E+02 -0.37285611667E+02  0.16482540652E+03  0.17034486044E+03  0.41800000000E+01 0. -1.
         -5    1    3    3    0  502  0.11273051338E+02  0.22567685481E+02 -0.13707404072E+02  0.29012884048E+02  0.41800000000E+01 0. -1.
        -11    1    1    2    0    0 -0.50404419717E+02 -0.19522692663E+02  0.10213290780E+03  0.11555462739E+03  0.00000000000E+00 0.  1.
         11    1    1    2    0    0  0.18101208890E+02  0.34240618849E+02  0.13393408701E+03  0.13942171066E+03  0.00000000000E+00 0. -1.
</event>
<event>
 7    1  0.6473813E-006  0.1655005E+03  0.7561462E-02  0.1182623E+00
          2   -1    0    0  501    0  0.00000000000E+00  0.00000000000E+00  0.14847910051E+03  0.14847910051E+03  0.00000000000E+00 0. -1.
         -2   -1    0    0    0  501 -0.00000000000E+00 -0.00000000000E+00 -0.24838121890E+03  0.24838121890E+03  0.00000000000E+00 0.  1.
         23    2    1    2    0    0 -0.45728407253E+02  0.13514172391E+03  0.10426415486E+02  0.19003032023E+03  0.12509372364E+03 0.  0.
          5    1    3    3  502    0  0.22010187676E+02  0.37523765849E+02 -0.41523751490E+02  0.60284124799E+02  0.41800000000E+01 0. -1.
         -5    1    3    3    0  502 -0.67738594929E+02  0.97617958060E+02  0.51950166976E+02  0.12974619543E+03  0.41800000000E+01 0. -1.
        -11    1    1    2    0    0 -0.16920291635E+02 -0.89013157831E+02 -0.86988883358E+02  0.12560535165E+03  0.00000000000E+00 0.  1.
         11    1    1    2    0    0  0.62648698888E+02 -0.46128566078E+02 -0.23339650509E+02  0.81224647532E+02  0.00000000000E+00 0. -1.
</event>
<event>
 7    1  0.6473813E-006  0.9703217E+02  0.7561462E-02  0.1286664E+00
         -1   -1    0    0    0  501 -0.00000000000E+00  0.00000000000E+00  0.25167662115E+03  0.25167662115E+03  0.00000000000E+00 0.  1.
          1   -1    0    0  501    0  0.00000000000E+00 -0.00000000000E+00 -0.65169449378E+02  0.65169449378E+02  0.00000000000E+00 0. -1.
         23    2    1    2    0    0 -0.40624284799E+02 -0.52728148155E+02  0.12476167026E+03  0.18879636952E+03  0.12509198477E+03 0.  0.
          5    1    3    3  502    0  0.10952825170E+02  0.10675512554E+02 -0.18156265983E+02  0.24105048060E+02  0.41800000000E+01 0. -1.
         -5    1    3    3    0  502 -0.51577109969E+02 -0.63403660709E+02  0.14291793625E+03  0.16469132146E+03  0.41800000000E+01 0. -1.
        -11    1    1    2    0    0  0.29791194001E+02 -0.10977256744E+02 -0.82324847678E+01  0.32799225769E+02  0.00000000000E+00 0. -1.
         11    1    1    2    0    0  0.10833090798E+02  0.63705404898E+02  0.69977986275E+02  0.95250475236E+02  0.00000000000E+00 0.  1.
</event>
<event>
 7    1  0.6473813E-006  0.1778373E+03  0.7561462E-02  0.1169913E+00
         -2   -1    0    0    0  501 -0.00000000000E+00  0.00000000000E+00  0.30298083921E+02  0.30298083921E+02  0.00000000000E+00 0.  1.
          2   -1    0    0  501    0  0.00000000000E+00 -0.00000000000E+00 -0.13625772211E+04  0.13625772211E+04  0.00000000000E+00 0. -1.
         23    2    1    2    0    0  0.16944183511E+03  0.22276546226E+02 -0.63930741904E+03  0.67347516124E+03  0.12509211317E+03 0.  0.
          5    1    3    3  502    0  0.15130840648E+03  0.14790021080E+02 -0.63500055828E+03  0.65295953934E+03  0.41800000000E+01 0.  1.
         -5    1    3    3    0  502  0.18133428627E+02  0.74865251455E+01 -0.43068607568E+01  0.20515621904E+02  0.41800000000E+01 0.  1.
        -11    1    1    2    0    0 -0.84817584752E+02 -0.44850533058E+02 -0.24845247061E+03  0.26633479523E+03  0.00000000000E+00 0.  1.
         11    1    1    2    0    0 -0.84624250355E+02  0.22573986833E+02 -0.44451924754E+03  0.45306534856E+03  0.00000000000E+00 0. -1.
</event>
<event>
 7    1  0.6473813E-006  0.1484533E+03  0.7561462E-02  0.1202387E+00
          1   -1    0    0  501    0  0.00000000000E+00  0.00000000000E+00  0.96515612385E+03  0.96515612385E+03  0.00000000000E+00 0.  1.
         -1   -1    0    0    0  501 -0.00000000000E+00 -0.00000000000E+00 -0.23683237268E+02  0.23683237268E+02  0.00000000000E+00 0. -1.
         23    2    1    2    0    0 -0.34825847287E+02  0.96062003212E+02  0.44515351527E+03  0.47355031938E+03  0.12508998650E+03 0.  0.
          5    1    3    3  502    0 -0.36510347002E+02 -0.20287122092E+02  0.80938145793E+02  0.91175811515E+02  0.41800000000E+01 0.  1.
         -5    1    3    3    0  502  0.16844997149E+01  0.11634912530E+03  0.36421536948E+03  0.38237450786E+03  0.41800000000E+01 0.  1.
        -11    1    1    2    0    0  0.55255846464E+02 -0.18476392790E+02  0.20317325683E+03  0.21136214881E+03  0.00000000000E+00 0.  1.
         11    1    1    2    0    0 -0.20429999177E+02 -0.77585610422E+02  0.29314611448E+03  0.30392689293E+03  0.00000000000E+00 0. -1.
</event>
<event>
 7    1  0.6473813E-006  0.2000120E+03  0.7561462E-02  0.1149729E+00
          2   -1    0    0  501    0  0.00000000000E+00  0.00000000000E+00  0.13053692254E+03  0.13053692254E+03  0.00000000000E+00 0. -1.
         -2   -1    0    0    0  501 -0.00000000000E+00 -0.00000000000E+00 -0.43769114438E+03  0.43769114438E+03  0.00000000000E+00 0.  1.
         23    2    1    2    0    0 -0.26996457886E+02  0.17898127653E+03 -0.28993030328E+03  0.36396428242E+03  0.12508921628E+03 0.  0.
          5    1    3    3  502    0 -0.75994579776E+02  0.12084664860E+03 -0.17165350720E+03  0.22329685973E+03  0.41800000000E+01 0. -1.
         -5    1    3    3    0  502  0.48998121891E+02  0.58134627939E+02 -0.11827679608E+03  0.14066742269E+03  0.41800000000E+01 0. -1.
        -11    1    1    2    0    0  0.15147106151E+02 -0.85129450960E+02 -0.54918903004E+02  0.10243312039E+03  0.00000000000E+00 0.  1.
         11    1    1    2    0    0  0.11849351735E+02 -0.93851825574E+02  0.37694984441E+02  0.10183066411E+03  0.00000000000E+00 0. -1.
</event>
<event>
 7    1  0.6473813E-006  0.1021040E+03  0.7561462E-02  0.1275933E+00
         -1   -1    0    0    0  501 -0.00000000000E+00  0.00000000000E+00  0.45861326850E+03  0.45861326850E+03  0.00000000000E+00 0.  1.
          1   -1    0    0  501    0  0.00000000000E+00 -0.00000000000E+00 -0.27755303392E+02  0.27755303392E+02  0.00000000000E+00 0. -1.
         23    2    1    2    0    0  0.81920663869E+01 -0.16822092761E+02  0.30446508148E+03  0.32969053011E+03  0.12508703789E+03 0.  0.
          5    1    3    3  502    0 -0.39411370323E+02  0.28335317776E+02  0.20316087268E+03  0.20892093943E+03  0.41800000000E+01 0.  1.
         -5    1    3    3    0  502  0.47603436710E+02 -0.45157410537E+02  0.10130420880E+03  0.12076959068E+03  0.41800000000E+01 0.  1.
        -11    1    1    2    0    0  0.39975905655E+02  0.81437079069E+01  0.77016742109E+02  0.87154871215E+02  0.00000000000E+00 0.  1.
         11    1    1    2    0    0 -0.48167972042E+02  0.86783848546E+01  0.49376141524E+02  0.69523170570E+02  0.00000000000E+00 0. -1.
</event>
<event>
 7    1  0.6473813E-006  0.9948310E+02  0.7561462E-02  0.1281387E+00
         -1   -1    0    0    0  501 -0.00000000000E+00  0.00000000000E+00  0.41882099047E+03  0.41882099047E+03  0.00000000000E+00 0.  1.
          1   -1    0    0  501    0  0.00000000000E+00 -0.00000000000E+00 -0.47035628319E+02  0.47035628319E+02  0.00000000000E+00 0. -1.
         23    2    1    2    0    0  0.27028239150E+02 -0.38989153325E+02  0.32591966362E+03  0.35231191058E+03  0.12509746365E+03 0.  0.
          5    1    3    3  502    0  0.42200360844E+02  0.30816809724E+02  0.75826463191E+02  0.92182813675E+02  0.41800000000E+01 0.  1.
         -5    1    3    3    0  502 -0.15172121694E+02 -0.69805963049E+02  0.25009320043E+03  0.26012909690E+03  0.41800000000E+01 0.  1.
        -11    1    1    2    0    0 -0.31157071456E+02 -0.43430063297E+01  0.60026959483E+02  0.67770647558E+02  0.00000000000E+00 0.  1.
         11    1    1    2    0    0  0.41288323054E+01  0.43332159654E+02 -0.14161260957E+02  0.45774060650E+02  0.00000000000E+00 0. -1.
</event>
<event>
 7    1  0.6473813E-006  0.2810987E+03  0.7561462E-02  0.1095090E+00
          2   -1    0    0  501    0  0.00000000000E+00  0.00000000000E+00  0.21966192494E+04  0.21966192494E+04  0.00000000000E+00 0. -1.
         -2   -1    0    0    0  501 -0.00000000000E+00 -0.00000000000E+00 -0.40932788539E+02  0.40932788539E+02  0.00000000000E+00 0.  1.
         23    2    1    2    0    0 -0.24496904599E+03 -0.11387845390E+03  0.83924683470E+03  0.89048424563E+03  0.12509518933E+03 0.  0.
          5    1    3    3  502    0 -0.30400150722E+02 -0.38671501411E+02  0.54877788370E+02  0.73815298155E+02  0.41800000000E+01 0. -1.
         -5    1    3    3    0  502 -0.21456889527E+03 -0.75206952490E+02  0.78436904633E+03  0.81666894747E+03  0.41800000000E+01 0. -1.
        -11    1    1    2    0    0  0.23066554114E+03  0.72728750900E+02  0.11327898792E+04  0.11583216192E+04  0.00000000000E+00 0. -1.
         11    1    1    2    0    0  0.14303504857E+02  0.41149703001E+02  0.18364974691E+03  0.18874617307E+03  0.00000000000E+00 0.  1.
</event>
<event>
 7    1  0.6473813E-006  0.1191913E+03  0.7561462E-02  0.1244437E+00
          2   -1    0    0  501    0  0.00000000000E+00  0.00000000000E+00  0.18547149417E+03  0.18547149417E+03  0.00000000000E+00 0.  1.
         -2   -1    0    0    0  501 -0.00000000000E+00 -0.00000000000E+00 -0.12251893498E+03  0.12251893498E+03  0.00000000000E+00 0. -1.
         23    2    1    2    0    0  0.13982928765E+02 -0.10174668888E+03  0.19518101812E+02  0.16302358380E+03  0.12509125302E+03 0.  0.
          5    1    3    3  502    0  0.25138592888E+02 -0.64756069906E+02  0.70406033441E+02  0.98993835096E+02  0.41800000000E+01 0. -1.
         -5    1    3    3    0  502 -0.11155664124E+02 -0.36990618972E+02 -0.50887931630E+02  0.64029748707E+02  0.41800000000E+01 0. -1.
        -11    1    1    2    0    0 -0.37232621631E+02  0.15030515228E+02  0.37583866829E+02  0.54997559467E+02  0.00000000000E+00 0.  1.
         11    1    1    2    0    0  0.23249692867E+02  0.86716173650E+02  0.58505905459E+01  0.89969285874E+02  0.00000000000E+00 0. -1.
</event>
<event>
 7    1  0.6473813E-006  0.8222234E+02  0.7561462E-02  0.1322860E+00
         -2   -1    0    0    0  501 -0.00000000000E+00  0.00000000000E+00  0.16933705374E+03  0.16933705374E+03  0.00000000000E+00 0.  1.
          2   -1    0    0  501    0  0.00000000000E+00 -0.00000000000E+00 -0.14049902322E+03  0.14049902322E+03  0.00000000000E+00 0. -1.
         23    2    1    2    0    0  0.41298805866E+02  0.26316114592E+02  0.11388465264E+03  0.17611113040E+03  0.12508911579E+03 0.  0.
          5    1    3    3  502    0 -0.18126792535E+02  0.31870425150E+02 -0.10259168262E+02  0.38301795523E+02  0.41800000000E+01 0.  1.
         -5    1    3    3    0  502  0.59425598400E+02 -0.55543105581E+01  0.12414382090E+03  0.13780933488E+03  0.41800000000E+01 0.  1.
        -11    1    1    2    0    0 -0.23260197404E+02  0.11400121318E+02 -0.88077121309E+02  0.91807291907E+02  0.00000000000E+00 0. -1.
         11    1    1    2    0    0 -0.18038608462E+02 -0.37716235910E+02  0.30304991831E+01  0.41917654655E+02  0.00000000000E+00 0.  1.
</event>
<event>
 7    1  0.6473813E-006  0.7878625E+02  0.7561462E-02  0.1332532E+00
         -2   -1    0    0    0  501 -0.00000000000E+00  0.00000000000E+00  0.36207442353E+03  0.36207442353E+03  0.00000000000E+00 0. -1.
          2   -1    0    0  501    0  0.00000000000E+00 -0.00000000000E+00 -0.52871695192E+02  0.52871695192E+02  0.00000000000E+00 0.  1.
         23    2    1    2    0    0  0.16831918025E+02 -0.41416710984E+02  0.27944190417E+03  0.30940912763E+03  0.12509025959E+03 0.  0.
          5    1    3    3  502    0  0.25877894521E+02  0.14047733891E+01 -0.28069881398E+00  0.26252428553E+02  0.41800000000E+01 0. -1.
         -5    1    3    3    0  502 -0.90459764957E+01 -0.42821484373E+02  0.27972260298E+03  0.28315669908E+03  0.41800000000E+01 0. -1.
        -11    1    1    2    0    0 -0.15143767018E+02 -0.20460768729E+02 -0.14634285572E+02  0.29362204459E+02  0.00000000000E+00 0.  1.
         11    1    1    2    0    0 -0.16881510070E+01  0.61877479713E+02  0.44395109743E+02  0.76174786633E+02  0.00000000000E+00 0. -1.
</event>
<event>
 7    1  0.6473813E-006  0.1030402E+03  0.7561462E-02  0.1274030E+00
         -1   -1    0    0    0  501 -0.00000000000E+00  0.00000000000E+00  0.70576831530E+03  0.70576831530E+03  0.00000000000E+00 0.  1.
          1   -1    0    0  501    0  0.00000000000E+00 -0.00000000000E+00 -0.19958089720E+02  0.19958089720E+02  0.00000000000E+00 0. -1.
         23    2    1    2    0    0  0.36193689057E+02 -0.15412542941E+01  0.46736649606E+03  0.48517100175E+03  0.12508837157E+03 0.  0.
          5    1    3    3  502    0 -0.11608519733E+02 -0.47662927465E+02  0.96012869120E+02  0.10790021233E+03  0.41800000000E+01 0.  1.
         -5    1    3    3    0  502  0.47802208791E+02  0.46121673171E+02  0.37135362694E+03  0.37727078941E+03  0.41800000000E+01 0.  1.
        -11    1    1    2    0    0  0.52923139825E+01 -0.34762278045E+02  0.14211637661E+03  0.14640180690E+03  0.00000000000E+00 0.  1.
         11    1    1    2    0    0 -0.41486003040E+02  0.36303532339E+02  0.76327352912E+02  0.94153596379E+02  0.00000000000E+00 0. -1.
</event>
<event>
 7    1  0.6473813E-006  0.1427215E+03  0.7561462E-02  0.1209713E+00
          1   -1    0    0  501    0  0.00000000000E+00  0.00000000000E+00  0.19286407928E+03  0.19286407928E+03  0.00000000000E+00 0. -1.
         -1   -1    0    0    0  501 -0.00000000000E+00 -0.00000000000E+00 -0.16519427712E+03  0.16519427712E+03  0.00000000000E+00 0.  1.
         23    2    1    2    0    0  0.13211346142E+03  0.14554332913E+02 -0.33405094911E+02  0.18554955295E+03  0.12508773297E+03 0.  0.
          5    1    3    3  502    0  0.60865866581E+02 -0.17037180911E+02  0.42815692977E+02  0.76456361495E+02  0.41800000000E+01 0. -1.
         -5    1    3    3    0  502  0.71247594841E+02  0.31591513824E+02 -0.76220787888E+02  0.10909319146E+03  0.41800000000E+01 0. -1.
        -11    1    1    2    0    0 -0.11177144118E+03 -0.33051434091E+02  0.13200354914E+02  0.11730090251E+03  0.00000000000E+00 0.  1.
         11    1    1    2    0    0 -0.20342020243E+02  0.18497101178E+02  0.47874542156E+02  0.55207900940E+02  0.00000000000E+00 0. -1.
</event>
<event>
 7    1  0.6473813E-006  0.1264351E+03  0.7561462E-02  0.1232843E+00
         -2   -1    0    0    0  501 -0.00000000000E+00  0.00000000000E+00  0.43159140405E+02  0.43159140405E+02  0.00000000000E+00 0.  1.
          2   -1    0    0  501    0  0.00000000000E+00 -0.00000000000E+00 -0.54187731341E+03  0.54187731341E+03  0.00000000000E+00 0. -1.
         23    2    1    2    0    0  0.46287201851E+02 -0.52771224257E+02 -0.10981615971E+03  0.18064823184E+03  0.12508751964E+03 0.  0.
          5    1    3    3  502    0  0.65796349080E+02  0.18147087421E+02 -0.65414147100E+02  0.94630647123E+02  0.41800000000E+01 0.  1.
         -5    1    3    3    0  502 -0.19509147229E+02 -0.70918311677E+02 -0.44402012610E+02  0.86017584717E+02  0.41800000000E+01 0.  1.
        -11    1    1    2    0    0  0.18603554527E+02  0.40787483136E+02 -0.16112267634E+03  0.16724302034E+03  0.00000000000E+00 0. -1.
         11    1    1    2    0    0 -0.64890756378E+02  0.11983741121E+02 -0.22777933696E+03  0.23714520164E+03  0.00000000000E+00 0.  1.
</event>
<event>
 7    1  0.6473813E-006  0.8599607E+02  0.7561462E-02  0.1312848E+00
         -2   -1    0    0    0  501 -0.00000000000E+00  0.00000000000E+00  0.27346302694E+03  0.27346302694E+03  0.00000000000E+00 0.  1.
          2   -1    0    0  501    0  0.00000000000E+00 -0.00000000000E+00 -0.50289395681E+02  0.50289395681E+02  0.00000000000E+00 0. -1.
         23    2    1    2    0    0 -0.16449081856E+02  0.41877331321E+02  0.13555784558E+03  0.18986506403E+03  0.12509408406E+03 0.  0.
          5    1    3    3  502    0  0.26523747672E+02  0.48504906537E+02  0.92373373035E+01  0.56205301789E+02  0.41800000000E+01 0.  1.
         -5    1    3    3    0  502 -0.42972829528E+02 -0.66275752166E+01  0.12632050828E+03  0.13365976224E+03  0.41800000000E+01 0.  1.
        -11    1    1    2    0    0 -0.77913081158E+01 -0.47376942986E+02  0.57800381415E+01  0.48359983972E+02  0.00000000000E+00 0. -1.
         11    1    1    2    0    0  0.24240389972E+02  0.54996116650E+01  0.81835747535E+02  0.85527374619E+02  0.00000000000E+00 0.  1.
</event>
<event>
 7    1  0.6473813E-006  0.1553676E+03  0.7561462E-02  0.1194028E+00
         -4   -1    0    0    0  501 -0.00000000000E+00  0.00000000000E+00  0.84721259043E+03  0.84721259043E+03  0.00000000000E+00 0.  1.
          4   -1    0    0  501    0  0.00000000000E+00 -0.00000000000E+00 -0.57877748021E+02  0.57877748021E+02  0.00000000000E+00 0. -1.
         23    2    1    2    0    0 -0.55625352756E+02 -0.14119316376E+03  0.65164143479E+03  0.68067179601E+03  0.12509134658E+03 0.  0.
          5    1    3    3  502    0 -0.49507403907E+02 -0.98526359960E+02  0.21288184275E+03  0.23978027029E+03  0.41800000000E+01 0. -1.
         -5    1    3    3    0  502 -0.61179488489E+01 -0.42666803800E+02  0.43875959204E+03  0.44089152572E+03  0.41800000000E+01 0. -1.
        -11    1    1    2    0    0 -0.54280710562E+01  0.27556455306E+02 -0.86002957562E+01  0.29373240739E+02  0.00000000000E+00 0. -1.
         11    1    1    2    0    0  0.61053423812E+02  0.11363670845E+03  0.14629370337E+03  0.19504530170E+03  0.00000000000E+00 0.  1.
</event>
<event>
 7    1  0.6473813E-006  0.1420933E+03  0.7561462E-02  0.1210540E+00
         -2   -1    0    0    0  501 -0.00000000000E+00  0.00000000000E+00  0.23712793328E+03  0.23712793328E+03  0.00000000000E+00 0.  1.
          2   -1    0    0  501    0  0.00000000000E+00 -0.00000000000E+00 -0.94339155161E+02  0.94339155161E+02  0.00000000000E+00 0. -1.
         23    2    1    2    0    0  0.18985050468E+02  0.92200500689E+02  0.12277475891E+03  0.19894921028E+03  0.12508310188E+03 0.  0.
          5    1    3    3  502    0  0.70076773724E+02  0.64482411237E+02  0.94313644944E+02  0.13409426385E+03  0.41800000000E+01 0. -1.
         -5    1    3    3    0  502 -0.51091723256E+02  0.27718089453E+02  0.28461113970E+02  0.64854946431E+02  0.41800000000E+01 0. -1.
        -11    1    1    2    0    0 -0.52564251743E+02 -0.78162376128E+02  0.97126584060E+01  0.94692625566E+02  0.00000000000E+00 0. -1.
         11    1    1    2    0    0  0.33579201275E+02 -0.14038124561E+02  0.10301360794E+02  0.37825252592E+02  0.00000000000E+00 0.  1.
</event>
<event>
 7    1  0.6473813E-006  0.1331662E+03  0.7561462E-02  0.1222832E+00
         -2   -1    0    0    0  501 -0.00000000000E+00  0.00000000000E+00  0.43932193037E+02  0.43932193037E+02  0.00000000000E+00 0.  1.
          2   -1    0    0  501    0  0.00000000000E+00 -0.00000000000E+00 -0.59947953452E+03  0.59947953452E+03  0.00000000000E+00 0. -1.
         23    2    1    2    0    0  0.99066814188E+01  0.11714242996E+03 -0.23930161506E+03  0.29450480820E+03  0.12508927951E+03 0.  0.
          5    1    3    3  502    0 -0.18108746922E+02  0.10943813628E+03 -0.24075596327E+03  0.26511419924E+03  0.41800000000E+01 0. -1.
         -5    1    3    3    0  502  0.28015428341E+02  0.77042936747E+01  0.14543482109E+01  0.29390608957E+02  0.41800000000E+01 0. -1.
        -11    1    1    2    0    0 -0.19594033107E+02 -0.18800201510E+02 -0.13270852215E+02  0.30223984329E+02  0.00000000000E+00 0.  1.
         11    1    1    2    0    0  0.96873516882E+01 -0.98342228447E+02 -0.30297487421E+03  0.31868293504E+03  0.00000000000E+00 0. -1.
</event>
<event>
 7    1  0.6473813E-006  0.8121016E+02  0.7561462E-02  0.1325652E+00
         -2   -1    0    0    0  501 -0.00000000000E+00  0.00000000000E+00  0.43642181213E+02  0.43642181213E+02  0.00000000000E+00 0.  1.
          2   -1    0    0  501    0  0.00000000000E+00 -0.00000000000E+00 -0.28969996762E+03  0.28969996762E+03  0.00000000000E+00 0. -1.
         23    2    1    2    0    0 -0.24941606043E+02  0.13042701242E+02 -0.12477944990E+03  0.17891210571E+03  0.12508970654E+03 0.  0.
          5    1    3    3  502    0 -0.43212373273E+02 -0.38706373842E+02 -0.21738250639E+02  0.62092805708E+02  0.41800000000E+01 0.  1.
         -5    1    3    3    0  502  0.18270767229E+02  0.51749075084E+02 -0.10304119926E+03  0.11681930000E+03  0.41800000000E+01 0.  1.
        -11    1    1    2    0    0  0.12796768391E+02  0.14366272167E+02  0.86453910212E+01  0.21092411980E+02  0.00000000000E+00 0.  1.
         11    1    1    2    0    0  0.12144837652E+02 -0.27408973409E+02 -0.12992372752E+03  0.13333763114E+03  0.00000000000E+00 0. -1.
</event>
<event>
 7    1  0.6473813E-006  0.1425183E+03  0.7561462E-02  0.1209980E+00
          1   -1    0    0  501    0  0.00000000000E+00  0.00000000000E+00  0.81328262134E+02  0.81328262134E+02  0.00000000000E+00 0.  1.
         -1   -1    0    0    0  501 -0.00000000000E+00 -0.00000000000E+00 -0.37803495505E+03  0.37803495505E+03  0.00000000000E+00 0. -1.
         23    2    1    2    0    0  0.11867600578E+03 -0.66206055559E+02 -0.18464209081E+03  0.26116474239E+03  0.12508830813E+03 0.  0.
          5    1    3    3  502    0  0.41519016148E+00 -0.85376572365E+01 -0.10885216938E+03  0.10926724647E+03  0.41800000000E+01 0. -1.
         -5    1    3    3    0  502  0.11826081562E+03 -0.57668398323E+02 -0.75789921433E+02  0.15189749592E+03  0.41800000000E+01 0. -1.
        -11    1    1    2    0    0 -0.84059150491E+02  0.20456131850E+02 -0.18535496150E+02  0.88475752210E+02  0.00000000000E+00 0.  1.
         11    1    1    2    0    0 -0.34616855288E+02  0.45749923709E+02 -0.93529105951E+02  0.10972272258E+03  0.00000000000E+00 0. -1.
</event>
<event>
 7    1  0.6473813E-006  0.1149933E+03  0.7561462E-02  0.1251593E+00
         -1   -1    0    0    0  501 -0.00000000000E+00  0.00000000000E+00  0.13234516248E+03  0.13234516248E+03  0.00000000000E+00 0.  1.
          1   -1    0    0  501    0  0.00000000000E+00 -0.00000000000E+00 -0.11645189209E+03  0.11645189209E+03  0.00000000000E+00 0. -1.
         23    2    1    2    0    0  0.69186798522E+02 -0.15118122984E+01  0.46583460431E+01  0.14303507406E+03  0.12509289971E+03 0.  0.
          5    1    3    3  502    0 -0.32404772708E+02  0.10559943608E+02 -0.17096112291E+02  0.38357934755E+02  0.41800000000E+01 0. -1.
         -5    1    3    3    0  502  0.10159157123E+03 -0.12071755906E+02  0.21754458334E+02  0.10467713931E+03  0.41800000000E+01 0. -1.
        -11    1    1    2    0    0 -0.24805925566E+02  0.31202164908E+02 -0.19260972611E+02  0.44270691254E+02  0.00000000000E+00 0. -1.
         11    1    1    2    0    0 -0.44380872956E+02 -0.29690352610E+02  0.30495896964E+02  0.61491289254E+02  0.00000000000E+00 0.  1.
</event>
<event>
 7    1  0.6473813E-006  0.8607924E+02  0.7561462E-02  0.1312634E+00
          4   -1    0    0  501    0  0.00000000000E+00  0.00000000000E+00  0.79611900392E+02  0.79611900392E+02  0.00000000000E+00 0. -1.
         -4   -1    0    0    0  501 -0.00000000000E+00 -0.00000000000E+00 -0.20525269835E+03  0.20525269835E+03  0.00000000000E+00 0.  1.
         23    2    1    2    0    0  0.72560191557E+01 -0.61254637924E+02 -0.10240592478E+03  0.17302865977E+03  0.12508862134E+03 0.  0.
          5    1    3    3  502    0 -0.31564046879E+01 -0.63453102038E+02 -0.12912354070E+03  0.14396742761E+03  0.41800000000E+01 0. -1.
         -5    1    3    3    0  502  0.10412423844E+02  0.21984641139E+01  0.26717615913E+02  0.29061232163E+02  0.41800000000E+01 0. -1.
        -11    1    1    2    0    0 -0.24900590410E+02 -0.75539843589E+01  0.16137839349E+02  0.30619143380E+02  0.00000000000E+00 0. -1.
         11    1    1    2    0    0  0.17644571254E+02  0.68808622283E+02 -0.39372712524E+02  0.81216795595E+02  0.00000000000E+00 0.  1.
</event>
<event>
 7    1  0.6473813E-006  0.1186486E+03  0.7561462E-02  0.1245343E+00
         -1   -1    0    0    0  501 -0.00000000000E+00  0.00000000000E+00  0.48132795318E+02  0.48132795318E+02  0.00000000000E+00 0.  1.
          1   -1    0    0  501    0  0.00000000000E+00 -0.00000000000E+00 -0.32084141312E+03  0.32084141312E+03  0.00000000000E+00 0. -1.
         23    2    1    2    0    0  0.41193249181E+02  0.42963868511E+02 -0.16356012827E+03  0.21434221906E+03  0.12509154064E+03 0.  0.
          5    1    3    3  502    0  0.32248076396E+02  0.83587249129E+02 -0.14025155514E+03  0.16647743921E+03  0.41800000000E+01 0.  1.
         -5    1    3    3    0  502  0.89451727845E+01 -0.40623380617E+02 -0.23308573132E+02  0.47864779853E+02  0.41800000000E+01 0.  1.
        -11    1    1    2    0    0 -0.23894393739E+01  0.26300210727E+02 -0.11560811525E+02  0.28828161022E+02  0.00000000000E+00 0. -1.
         11    1    1    2    0    0 -0.38803809807E+02 -0.69264079239E+02 -0.97587678005E+02  0.12580382835E+03  0.00000000000E+00 0.  1.
</event>
<event>
 7    1  0.6473813E-006  0.1079037E+03  0.7561462E-02  0.1264502E+00
         -1   -1    0    0    0  501 -0.00000000000E+00  0.00000000000E+00  0.10153706841E+04  0.10153706841E+04  0.00000000000E+00 0.  1.
          1   -1    0    0  501    0  0.00000000000E+00 -0.00000000000E+00 -0.21548904595E+02  0.21548904595E+02  0.00000000000E+00 0. -1.
         23    2    1    2    0    0  0.22572835174E+02  0.53894672254E+02  0.80730764653E+03  0.81902875119E+03  0.12509312753E+03 0.  0.
          5    1    3    3  502    0  0.76493411951E+01  0.75822370578E+02  0.25767100289E+03  0.26873660419E+03  0.41800000000E+01 0.  1.
         -5    1    3    3    0  502  0.14923493978E+02 -0.21927698324E+02  0.54963664364E+03  0.55029214701E+03  0.41800000000E+01 0.  1.
        -11    1    1    2    0    0 -0.60676465168E+02 -0.30359082344E+02  0.11384048042E+03  0.13252532697E+03  0.00000000000E+00 0. -1.
         11    1    1    2    0    0  0.38103629994E+02 -0.23535589909E+02  0.72673652523E+02  0.85365510496E+02  0.00000000000E+00 0.  1.
</event>
<event>
 7    1  0.6473813E-006  0.8642605E+02  0.7561462E-02  0.1311745E+00
         -1   -1    0    0    0  501 -0.00000000000E+00  0.00000000000E+00  0.83352128215E+02  0.83352128215E+02  0.00000000000E+00 0.  1.
          1   -1    0    0  501    0  0.00000000000E+00 -0.00000000000E+00 -0.21396930797E+03  0.21396930797E+03  0.00000000000E+00 0. -1.
         23    2    1    2    0    0 -0.39828748444E+02  0.62433475520E+02 -0.45435629390E+02  0.15230281247E+03  0.12508989648E+03 0.  0.
          5    1    3    3  502    0 -0.16598638638E+01 -0.13074950300E+02 -0.64088465012E+02  0.65563047680E+02  0.41800000000E+01 0.  1.
         -5    1    3    3    0  502 -0.38168884580E+02  0.75508425820E+02  0.18652835623E+02  0.86739764795E+02  0.41800000000E+01 0.  1.
        -11    1    1    2    0    0  0.28880444860E+02 -0.50056636315E+02  0.46516505737E+00  0.57792415705E+02  0.00000000000E+00 0.  1.
         11    1    1    2    0    0  0.10948303584E+02 -0.12376839204E+02 -0.85646715424E+02  0.87226208005E+02  0.00000000000E+00 0. -1.
</event>
<event>
 7    1  0.6473813E-006  0.1452642E+03  0.7561462E-02  0.1206416E+00
         -2   -1    0    0    0  501 -0.00000000000E+00  0.00000000000E+00  0.30678574982E+02  0.30678574982E+02  0.00000000000E+00 0. -1.
          2   -1    0    0  501    0  0.00000000000E+00 -0.00000000000E+00 -0.78671157695E+03  0.78671157695E+03  0.00000000000E+00 0.  1.
         23    2    1    2    0    0 -0.10490999110E+03  0.26002172190E+02 -0.41349149655E+03  0.44531384659E+03  0.12508790931E+03 0.  0.
          5    1    3    3  502    0 -0.79846471369E+02 -0.41346394241E+02 -0.27297244696E+03  0.28743070905E+03  0.41800000000E+01 0. -1.
         -5    1    3    3    0  502 -0.25063519727E+02  0.67348566431E+02 -0.14051904959E+03  0.15788313754E+03  0.41800000000E+01 0. -1.
        -11    1    1    2    0    0  0.11285672562E+03 -0.13421655455E+02 -0.33788105679E+03  0.35648336552E+03  0.00000000000E+00 0.  1.
         11    1    1    2    0    0 -0.79467345269E+01 -0.12580516735E+02 -0.46604486303E+01  0.15592939826E+02  0.00000000000E+00 0. -1.
</event>
<event>
 7    1  0.6473813E-006  0.1349907E+03  0.7561462E-02  0.1220233E+00
         -2   -1    0    0    0  501 -0.00000000000E+00  0.00000000000E+00  0.12177191644E+03  0.12177191644E+03  0.00000000000E+00 0.  1.
          2   -1    0    0  501    0  0.00000000000E+00 -0.00000000000E+00 -0.22584597711E+03  0.22584597711E+03  0.00000000000E+00 0. -1.
         23    2    1    2    0    0 -0.52284654392E+02  0.10153154202E+03 -0.19440423819E+01  0.16939043474E+03  0.12508797293E+03 0.  0.
          5    1    3    3  502    0  0.72095268525E+01 -0.44949974324E+01  0.39697407770E+02  0.40811013992E+02  0.41800000000E+01 0.  1.
         -5    1    3    3    0  502 -0.59494181244E+02  0.10602653945E+03 -0.41641450152E+02  0.12857942075E+03  0.41800000000E+01 0.  1.
        -11    1    1    2    0    0 -0.11368713859E-01 -0.83567809773E+02 -0.33350820791E+02  0.89976975982E+02  0.00000000000E+00 0.  1.
         11    1    1    2    0    0  0.52296023106E+02 -0.17963732248E+02 -0.68779197502E+02  0.88250482820E+02  0.00000000000E+00 0. -1.
</event>
<event>
 7    1  0.6473813E-006  0.1476835E+03  0.7561462E-02  0.1203349E+00
         -2   -1    0    0    0  501 -0.00000000000E+00  0.00000000000E+00  0.49698214562E+02  0.49698214562E+02  0.00000000000E+00 0.  1.
          2   -1    0    0  501    0  0.00000000000E+00 -0.00000000000E+00 -0.48125960408E+03  0.48125960408E+03  0.00000000000E+00 0. -1.
         23    2    1    2    0    0 -0.98502605214E+02 -0.53508184174E+02 -0.23000529167E+03  0.28480849713E+03  0.12509019480E+03 0.  0.
          5    1    3    3  502    0 -0.11836253470E+03 -0.25027307749E+02 -0.21503648068E+03  0.24676753469E+03  0.41800000000E+01 0.  1.
         -5    1    3    3    0  502  0.19859929487E+02 -0.28480876425E+02 -0.14968810991E+02  0.38040962443E+02  0.41800000000E+01 0.  1.
        -11    1    1    2    0    0  0.47815334711E+02 -0.18512446815E+02 -0.94586532695E+02  0.10759009754E+03  0.00000000000E+00 0.  1.
         11    1    1    2    0    0  0.50687270503E+02  0.72020630989E+02 -0.10696956515E+03  0.13855922397E+03  0.00000000000E+00 0. -1.
</event>
<event>
 7    1  0.6473813E-006  0.1766962E+03  0.7561462E-02  0.1171039E+00
          3   -1    0    0  501    0  0.00000000000E+00  0.00000000000E+00  0.66285417209E+03  0.66285417209E+03  0.00000000000E+00 0. -1.
         -3   -1    0    0    0  501 -0.00000000000E+00 -0.00000000000E+00 -0.54891100361E+02  0.54891100361E+02  0.00000000000E+00 0.  1.
         23    2    1    2    0    0  0.11970918159E+03  0.90469947656E+02  0.23600691386E+03  0.30636881865E+03  0.12508992791E+03 0.  0.
          5    1    3    3  502    0  0.38275995956E+02  0.10417195155E+03  0.11559186788E+03  0.16029909444E+03  0.41800000000E+01 0. -1.
         -5    1    3    3    0  502  0.81433185637E+02 -0.13702003899E+02  0.12041504598E+03  0.14606972421E+03  0.41800000000E+01 0. -1.
        -11    1    1    2    0    0 -0.43872046193E+02 -0.67325877339E+02  0.27295070934E+03  0.28453404001E+03  0.00000000000E+00 0. -1.
         11    1    1    2    0    0 -0.75837135400E+02 -0.23144070317E+02  0.99005448526E+02  0.12684241378E+03  0.00000000000E+00 0.  1.
</event>
<event>
 7    1  0.6473813E-006  0.1278809E+03  0.7561462E-02  0.1230634E+00
          1   -1    0    0  501    0  0.00000000000E+00  0.00000000000E+00  0.21744486209E+02  0.21744486209E+02  0.00000000000E+00 0. -1.
         -1   -1    0    0    0  501 -0.00000000000E+00 -0.00000000000E+00 -0.10545813293E+04  0.10545813293E+04  0.00000000000E+00 0.  1.
         23    2    1    2    0    0 -0.87499015199E+02  0.56415887669E+02 -0.62964737804E+03  0.65034065398E+03  0.12509322724E+03 0.  0.
          5    1    3    3  502    0  0.10392308621E+01  0.27934709499E+02 -0.42000986273E+03  0.42095983797E+03  0.41800000000E+01 0.  1.
         -5    1    3    3    0  502 -0.88538246061E+02  0.28481178170E+02 -0.20963751532E+03  0.22938081601E+03  0.41800000000E+01 0.  1.
        -11    1    1    2    0    0 -0.90286714691E+01 -0.34164676734E+02 -0.70489271999E+02  0.78850995630E+02  0.00000000000E+00 0.  1.
         11    1    1    2    0    0  0.96527686668E+02 -0.22251210935E+02 -0.33270019308E+03  0.34713416594E+03  0.00000000000E+00 0. -1.
</event>
<event>
 7    1  0.6473813E-006  0.1271586E+03  0.7561462E-02  0.1231734E+00
         -1   -1    0    0    0  501 -0.00000000000E+00  0.00000000000E+00  0.49179703602E+02  0.49179703602E+02  0.00000000000E+00 0.  1.
          1   -1    0    0  501    0  0.00000000000E+00 -0.00000000000E+00 -0.36976908154E+03  0.36976908154E+03  0.00000000000E+00 0. -1.
         23    2    1    2    0    0  0.79770431165E+01 -0.80647966338E+02 -0.19960093936E+03  0.24910763650E+03  0.12508537835E+03 0.  0.
          5    1    3    3  502    0 -0.49651909019E+02 -0.63261414383E+02 -0.72265831572E+02  0.10819954451E+03  0.41800000000E+01 0. -1.
         -5    1    3    3    0  502  0.57628952136E+02 -0.17386551955E+02 -0.12733510778E+03  0.14090809199E+03  0.41800000000E+01 0. -1.
        -11    1    1    2    0    0 -0.40505847264E+02  0.21283614994E+02 -0.24292640542E+02  0.51805871427E+02  0.00000000000E+00 0.  1.
         11    1    1    2    0    0  0.32528804147E+02  0.59364351343E+02 -0.96695798039E+02  0.11803527722E+03  0.00000000000E+00 0. -1.
</event>
<event>
 7    1  0.6473813E-006  0.1178938E+03  0.7561462E-02  0.1246613E+00
          1   -1    0    0  501    0  0.00000000000E+00  0.00000000000E+00  0.89792333667E+02  0.89792333667E+02  0.00000000000E+00 0. -1.
         -1   -1    0    0    0  501 -0.00000000000E+00 -0.00000000000E+00 -0.23234476134E+03  0.23234476134E+03  0.00000000000E+00 0.  1.
         23    2    1    2    0    0  0.89681285296E+02 -0.43808697298E+00 -0.14312910175E+03  0.20672337149E+03  0.11918761554E+03 0.  0.
          5    1    3    3  502    0 -0.25267206807E+02 -0.14626204717E+02 -0.49981964024E+02  0.58034702825E+02  0.41800000000E+01 0. -1.
         -5    1    3    3    0  502  0.11494849210E+03  0.14188117744E+02 -0.93147137730E+02  0.14868866866E+03  0.41800000000E+01 0.  1.
        -11    1    1    2    0    0 -0.65963364697E+02 -0.46996564755E+01  0.33802590451E+02  0.74268885641E+02  0.00000000000E+00 0. -1.
         11    1    1    2    0    0 -0.23717920599E+02  0.51377434485E+01 -0.33225916366E+02  0.41144837873E+02  0.00000000000E+00 0.  1.
</event>
<event>
 7    1  0.6473813E-006  0.9791140E+02  0.7561462E-02  0.1284750E+00
         -3   -1    0    0    0  501 -0.00000000000E+00  0.00000000000E+00  0.37273153562E+03  0.37273153562E+03  0.00000000000E+00 0.  1.
          3   -1    0    0  501    0  0.00000000000E+00 -0.00000000000E+00 -0.54663063171E+02  0.54663063171E+02  0.00000000000E+00 0. -1.
         23    2    1    2    0    0 -0.90188971718E+01  0.77269262734E+02  0.24980854779E+03  0.28991954374E+03  0.12488855762E+03 0.  0.
          5    1    3    3  502    0  0.34659327647E+02  0.17693494860E+02  0.19220719864E+03  0.19615149340E+03  0.41800000000E+01 0. -1.
         -5    1    3    3    0  502 -0.43678224819E+02  0.59575767874E+02  0.57601349147E+02  0.93768050340E+02  0.41800000000E+01 0. -1.
        -11    1    1    2    0    0 -0.92408269846E+01 -0.41705773723E+02  0.84216619409E+02  0.94430945298E+02  0.00000000000E+00 0.  1.
         11    1    1    2    0    0  0.18259724156E+02 -0.35563489011E+02 -0.15956694750E+02  0.43044109751E+02  0.00000000000E+00 0. -1.
</event>
<event>
 7    1  0.6473813E-006  0.1867492E+03  0.7561462E-02  0.1161426E+00
         -1   -1    0    0    0  501 -0.00000000000E+00  0.00000000000E+00  0.40650136519E+02  0.40650136519E+02  0.00000000000E+00 0.  1.
          1   -1    0    0  501    0  0.00000000000E+00 -0.00000000000E+00 -0.98735665267E+03  0.98735665267E+03  0.00000000000E+00 0. -1.
         23    2    1    2    0    0  0.16497662204E+03  0.16150211468E+02 -0.48937544566E+03  0.53161441791E+03  0.12508975721E+03 0.  0.
          5    1    3    3  502    0  0.14172880949E+03 -0.39421295369E+02 -0.35493330384E+03  0.38423458531E+03  0.41800000000E+01 0. -1.
         -5    1    3    3    0  502  0.23247812542E+02  0.55571506837E+02 -0.13444214182E+03  0.14737983260E+03  0.41800000000E+01 0. -1.
        -11    1    1    2    0    0 -0.15464252088E+03 -0.17019085527E+02 -0.46007283637E+03  0.48566549528E+03  0.00000000000E+00 0. -1.
         11    1    1    2    0    0 -0.10334101155E+02  0.86887405985E+00  0.27417658771E+01  0.10726876010E+02  0.00000000000E+00 0.  1.
</event>
<event>
 7    1  0.6473813E-006  0.1177652E+03  0.7561462E-02  0.1246830E+00
         -2   -1    0    0    0  501 -0.00000000000E+00  0.00000000000E+00  0.54593335960E+02  0.54593335960E+02  0.00000000000E+00 0.  1.
          2   -1    0    0  501    0  0.00000000000E+00 -0.00000000000E+00 -0.46605145903E+03  0.46605145903E+03  0.00000000000E+00 0. -1.
         23    2    1    2    0    0 -0.78414282929E+02  0.51657881019E+02 -0.10820025190E+03  0.19018841784E+03  0.12508798235E+03 0.  0.
          5    1    3    3  502    0 -0.58372139443E+02  0.32503527273E+01 -0.12243044460E+03  0.13573709007E+03  0.41800000000E+01 0.  1.
         -5    1    3    3    0  502 -0.20042143487E+02  0.48407528292E+02  0.14230192702E+02  0.54451327764E+02  0.41800000000E+01 0.  1.
        -11    1    1    2    0    0  0.36065747007E+02  0.19913366518E+02 -0.15590185121E+03  0.16125342627E+03  0.00000000000E+00 0. -1.
         11    1    1    2    0    0  0.42348535922E+02 -0.71571247538E+02 -0.14735601996E+03  0.16920295088E+03  0.00000000000E+00 0.  1.
</event>
<event>
 7    1  0.6473813E-006  0.9742565E+02  0.7561462E-02  0.1285805E+00
          1   -1    0    0  501    0  0.00000000000E+00  0.00000000000E+00  0.30028714132E+03  0.30028714132E+03  0.00000000000E+00 0. -1.
         -1   -1    0    0    0  501 -0.00000000000E+00 -0.00000000000E+00 -0.50582443578E+02  0.50582443578E+02  0.00000000000E+00 0.  1.
         23    2    1    2    0    0  0.13030979044E+01 -0.57936915582E+02  0.14185572185E+03  0.19781247567E+03  0.12509334699E+03 0.  0.
          5    1    3    3  502    0 -0.58277111537E+02 -0.46086387562E+02  0.58881775537E+02  0.94893164864E+02  0.41800000000E+01 0. -1.
         -5    1    3    3    0  502  0.59580209441E+02 -0.11850528020E+02  0.82973946309E+02  0.10291931081E+03  0.41800000000E+01 0. -1.
        -11    1    1    2    0    0 -0.71841314938E+01  0.22375626616E+02 -0.13062846958E+02  0.26887141582E+02  0.00000000000E+00 0.  1.
         11    1    1    2    0    0  0.58810335894E+01  0.35561288965E+02  0.12091182286E+03  0.12616996765E+03  0.00000000000E+00 0. -1.
</event>
<event>
 7    1  0.6473813E-006  0.1088364E+03  0.7561462E-02  0.1262740E+00
          2   -1    0    0  501    0  0.00000000000E+00  0.00000000000E+00  0.39834632267E+03  0.39834632267E+03  0.00000000000E+00 0.  1.
         -2   -1    0    0    0  501 -0.00000000000E+00 -0.00000000000E+00 -0.31363239796E+02  0.31363239796E+02  0.00000000000E+00 0. -1.
         23    2    1    2    0    0  0.16450886202E+02 -0.14811403597E+02  0.23389522357E+03  0.26618718275E+03  0.12513445297E+03 0.  0.
          5    1    3    3  502    0 -0.12239638207E+01  0.54666917707E+02  0.11214735175E+03  0.12483777827E+03  0.41800000000E+01 0. -1.
         -5    1    3    3    0  502  0.17674850023E+02 -0.69478321304E+02  0.12174787182E+03  0.14134940448E+03  0.41800000000E+01 0. -1.
        -11    1    1    2    0    0  0.28425023458E+02  0.32147028841E+02  0.39641975137E+02  0.58420027513E+02  0.00000000000E+00 0. -1.
         11    1    1    2    0    0 -0.44875909660E+02 -0.17335625244E+02  0.93445884170E+02  0.10510235220E+03  0.00000000000E+00 0.  1.
</event>
<event>
 7    1  0.6473813E-006  0.2191455E+03  0.7561462E-02  0.1134522E+00
         -1   -1    0    0    0  501 -0.00000000000E+00  0.00000000000E+00  0.26124231898E+03  0.26124231898E+03  0.00000000000E+00 0.  1.
          1   -1    0    0  501    0  0.00000000000E+00 -0.00000000000E+00 -0.28326568520E+03  0.28326568520E+03  0.00000000000E+00 0. -1.
         23    2    1    2    0    0 -0.87926511400E+02  0.18117462688E+03  0.13462830098E+03  0.27262821439E+03  0.12508415977E+03 0.  0.
          5    1    3    3  502    0 -0.11492449215E+03  0.15995159625E+03  0.91151484369E+02  0.21706731108E+03  0.41800000000E+01 0. -1.
         -5    1    3    3    0  502  0.26997980752E+02  0.21223030631E+02  0.43476816612E+02  0.55560903309E+02  0.41800000000E+01 0. -1.
        -11    1    1    2    0    0  0.77619246959E+02 -0.10913936590E+03 -0.50394498244E+02  0.14309351537E+03  0.00000000000E+00 0. -1.
         11    1    1    2    0    0  0.10307264440E+02 -0.72035260977E+02 -0.10625716896E+03  0.12878627442E+03  0.00000000000E+00 0.  1.
</event>
<event>
 7    1  0.6473813E-006  0.1438463E+03  0.7561462E-02  0.1208245E+00
          2   -1    0    0  501    0  0.00000000000E+00  0.00000000000E+00  0.61638158415E+03  0.61638158415E+03  0.00000000000E+00 0. -1.
         -2   -1    0    0    0  501 -0.00000000000E+00 -0.00000000000E+00 -0.39495371019E+02  0.39495371019E+02  0.00000000000E+00 0.  1.
         23    2    1    2    0    0 -0.10588883724E+03 -0.40866554781E+02  0.30136332667E+03  0.34547096005E+03  0.12509120042E+03 0.  0.
          5    1    3    3  502    0 -0.57900226344E+02  0.26578523952E+02  0.50905434208E+02  0.81655923105E+02  0.41800000000E+01 0. -1.
         -5    1    3    3    0  502 -0.47988610896E+02 -0.67445078734E+02  0.25045789246E+03  0.26381503695E+03  0.41800000000E+01 0. -1.
        -11    1    1    2    0    0  0.24003417629E+02 -0.25898618368E+02  0.93445274100E+02  0.99894553119E+02  0.00000000000E+00 0. -1.
         11    1    1    2    0    0  0.81885419611E+02  0.66765173149E+02  0.18207761236E+03  0.21051144200E+03  0.00000000000E+00 0.  1.
</event>
<event>
 7    1  0.6473813E-006  0.7446830E+02  0.7561462E-02  0.1345525E+00
         -2   -1    0    0    0  501 -0.00000000000E+00  0.00000000000E+00  0.29248815302E+03  0.29248815302E+03  0.00000000000E+00 0.  1.
          2   -1    0    0  501    0  0.00000000000E+00 -0.00000000000E+00 -0.41674165164E+02  0.41674165164E+02  0.00000000000E+00 0. -1.
         23    2    1    2    0    0  0.14135326451E+02  0.19518355454E+02  0.16661552426E+03  0.20973918218E+03  0.12509603496E+03 0.  0.
          5    1    3    3  502    0 -0.30708461121E+01  0.47400322095E+02  0.16997772182E+03  0.17653928443E+03  0.41800000000E+01 0.  1.
         -5    1    3    3    0  502  0.17206172563E+02 -0.27881966640E+02 -0.33621975629E+01  0.33199897748E+02  0.41800000000E+01 0.  1.
        -11    1    1    2    0    0 -0.34920142595E+02 -0.28987628408E+02  0.95755894467E+01  0.46383088220E+02  0.00000000000E+00 0. -1.
         11    1    1    2    0    0  0.20784816144E+02  0.94692729542E+01  0.74622874152E+02  0.78040047791E+02  0.00000000000E+00 0.  1.
</event>
<event>
 7    1  0.6473813E-006  0.1039032E+03  0.7561462E-02  0.1272296E+00
          2   -1    0    0  501    0  0.00000000000E+00  0.00000000000E+00  0.38576536335E+03  0.38576536335E+03  0.00000000000E+00 0. -1.
         -2   -1    0    0    0  501 -0.00000000000E+00 -0.00000000000E+00 -0.44706519688E+02  0.44706519688E+02  0.00000000000E+00 0.  1.
         23    2    1    2    0    0 -0.18006465807E+02  0.67515513629E+02  0.21939491937E+03  0.26203817743E+03  0.12508916177E+03 0.  0.
          5    1    3    3  502    0 -0.66343663643E+02  0.21217661574E+02  0.15051557568E+03  0.16590383296E+03  0.41800000000E+01 0. -1.
         -5    1    3    3    0  502  0.48337197836E+02  0.46297852054E+02  0.68879343691E+02  0.96134344471E+02  0.41800000000E+01 0. -1.
        -11    1    1    2    0    0  0.50635197708E+01 -0.42481242181E+02 -0.77931063841E+00  0.42789046434E+02  0.00000000000E+00 0.  1.
         11    1    1    2    0    0  0.12942946036E+02 -0.25034271448E+02  0.12244323493E+03  0.12564465917E+03  0.00000000000E+00 0. -1.
</event>
<event>
 7    1  0.6473813E-006  0.2184346E+03  0.7561462E-02  0.1135056E+00
         -2   -1    0    0    0  501 -0.00000000000E+00  0.00000000000E+00  0.55417059652E+02  0.55417059652E+02  0.00000000000E+00 0.  1.
          2   -1    0    0  501    0  0.00000000000E+00 -0.00000000000E+00 -0.93791896293E+03  0.93791896293E+03  0.00000000000E+00 0. -1.
         23    2    1    2    0    0 -0.19621916473E+03  0.30621196126E+02 -0.39811697440E+03  0.46215164725E+03  0.12508957386E+03 0.  0.
          5    1    3    3  502    0  0.17749673673E+02  0.78326746033E-02 -0.25279957596E+02  0.31170492984E+02  0.41800000000E+01 0. -1.
         -5    1    3    3    0  502 -0.21396883840E+03  0.30613363451E+02 -0.37283701681E+03  0.43098115426E+03  0.41800000000E+01 0. -1.
        -11    1    1    2    0    0  0.13009435540E+03 -0.12726996202E+01 -0.20674553786E+03  0.24427418713E+03  0.00000000000E+00 0.  1.
         11    1    1    2    0    0  0.66124809327E+02 -0.29348496505E+02 -0.27763939101E+03  0.28691018821E+03  0.00000000000E+00 0. -1.
</event>
<event>
 7    1  0.6473813E-006  0.6846643E+02  0.7561462E-02  0.1365387E+00
         -2   -1    0    0    0  501 -0.00000000000E+00  0.00000000000E+00  0.85455757344E+02  0.85455757344E+02  0.00000000000E+00 0.  1.
          2   -1    0    0  501    0  0.00000000000E+00 -0.00000000000E+00 -0.19714018087E+03  0.19714018087E+03  0.00000000000E+00 0. -1.
         23    2    1    2    0    0  0.45503141429E+02  0.17773673231E+02 -0.69357373999E+01  0.13446823756E+03  0.12508862107E+03 0.  0.
          5    1    3    3  502    0  0.29307308621E+02  0.45493545280E+02 -0.54508819993E+02  0.76923760034E+02  0.41800000000E+01 0. -1.
         -5    1    3    3    0  502  0.16195832809E+02 -0.27719872049E+02  0.47573082593E+02  0.57544477530E+02  0.41800000000E+01 0. -1.
        -11    1    1    2    0    0 -0.23155113815E+02 -0.15394472137E+02 -0.11854119056E+03  0.12175862568E+03  0.00000000000E+00 0. -1.
         11    1    1    2    0    0 -0.22348027614E+02 -0.23792010943E+01  0.13792504435E+02  0.26369074968E+02  0.00000000000E+00 0.  1.
</event>
<event>
 7    1  0.6473813E-006  0.1737344E+03  0.7561462E-02  0.1174008E+00
         -3   -1    0    0    0  501 -0.00000000000E+00  0.00000000000E+00  0.66561233568E+03  0.66561233568E+03  0.00000000000E+00 0.  1.
          3   -1    0    0  501    0  0.00000000000E+00 -0.00000000000E+00 -0.55121144913E+02  0.55121144913E+02  0.00000000000E+00 0. -1.
         23    2    1    2    0    0  0.14657962761E+03 -0.44355468156E+02  0.38480634350E+03  0.43263867051E+03  0.12508917793E+03 0.  0.
          5    1    3    3  502    0  0.50200075000E+02  0.24110784861E+02  0.41659455474E+02  0.69673238098E+02  0.41800000000E+01 0.  1.
         -5    1    3    3    0  502  0.96379552608E+02 -0.68466253017E+02  0.34314688803E+03  0.36296543241E+03  0.41800000000E+01 0.  1.
        -11    1    1    2    0    0 -0.12082404925E+03  0.67757149688E+02  0.20560719106E+03  0.24791893680E+03  0.00000000000E+00 0.  1.
         11    1    1    2    0    0 -0.25755578362E+02 -0.23401681532E+02  0.20077656211E+02  0.40175873285E+02  0.00000000000E+00 0. -1.
</event>
<event>
 7    1  0.6473813E-006  0.1798770E+03  0.7561462E-02  0.1167922E+00
         -2   -1    0    0    0  501 -0.00000000000E+00  0.00000000000E+00  0.10460390606E+03  0.10460390606E+03  0.00000000000E+00 0.  1.
          2   -1    0    0  501    0  0.00000000000E+00 -0.00000000000E+00 -0.40838665002E+03  0.40838665002E+03  0.00000000000E+00 0. -1.
         23    2    1    2    0    0  0.15028105254E+03  0.57398236197E+02 -0.70408136708E+02  0.21560007944E+03  0.12508851373E+03 0.  0.
          5    1    3    3  502    0  0.20138737240E+02  0.64094529206E+02  0.22731580274E+00  0.67314199722E+02  0.41800000000E+01 0. -1.
         -5    1    3    3    0  502  0.13014231530E+03 -0.66962930081E+01 -0.70635452511E+02  0.14828587972E+03  0.41800000000E+01 0. -1.
        -11    1    1    2    0    0 -0.51118537833E+02 -0.97397434939E+01 -0.17161663368E+02  0.54794983375E+02  0.00000000000E+00 0. -1.
         11    1    1    2    0    0 -0.99162514709E+02 -0.47658492703E+02 -0.21621294389E+03  0.24259549327E+03  0.00000000000E+00 0.  1.
</event>
<event>
 7    1  0.6473813E-006  0.1384425E+03  0.7561462E-02  0.1215440E+00
         -1   -1    0    0    0  501 -0.00000000000E+00  0.00000000000E+00  0.35012051535E+02  0.35012051535E+02  0.00000000000E+00 0.  1.
          1   -1    0    0  501    0  0.00000000000E+00 -0.00000000000E+00 -0.58594729967E+03  0.58594729967E+03  0.00000000000E+00 0. -1.
         23    2    1    2    0    0 -0.77822657768E+02  0.51987805132E+02 -0.27876016446E+03  0.31955570242E+03  0.12509804040E+03 0.  0.
          5    1    3    3  502    0 -0.23366030448E+02  0.81897323521E+02 -0.10676970948E+03  0.13663962179E+03  0.41800000000E+01 0.  1.
         -5    1    3    3    0  502 -0.54456627320E+02 -0.29909518389E+02 -0.17199045498E+03  0.18291608063E+03  0.41800000000E+01 0.  1.
        -11    1    1    2    0    0  0.49012070387E+01 -0.56096137876E+02 -0.11176962247E+03  0.12515289458E+03  0.00000000000E+00 0.  1.
         11    1    1    2    0    0  0.72921450729E+02  0.41083327437E+01 -0.16040546121E+03  0.17625075421E+03  0.00000000000E+00 0. -1.
</event>
<event>
 7    1  0.6473813E-006  0.9522761E+02  0.7561462E-02  0.1290664E+00
         -2   -1    0    0    0  501 -0.00000000000E+00  0.00000000000E+00  0.31051997744E+02  0.31051997744E+02  0.00000000000E+00 0.  1.
          2   -1    0    0  501    0  0.00000000000E+00 -0.00000000000E+00 -0.55233642725E+03  0.55233642725E+03  0.00000000000E+00 0. -1.
         23    2    1    2    0    0  0.32114672704E+02 -0.37817310463E+02 -0.16622784158E+03  0.21387194587E+03  0.12509201709E+03 0.  0.
          5    1    3    3  502    0  0.19640977998E+02  0.23038485057E+02 -0.14485553185E+03  0.14804437618E+03  0.41800000000E+01 0.  1.
         -5    1    3    3    0  502  0.12473694707E+02 -0.60855795520E+02 -0.21372309728E+02  0.65827569688E+02  0.41800000000E+01 0.  1.
        -11    1    1    2    0    0  0.18395292137E+02  0.43085533901E+02 -0.11556436638E+03  0.12469912903E+03  0.00000000000E+00 0.  1.
         11    1    1    2    0    0 -0.50509964841E+02 -0.52682234383E+01 -0.23949222155E+03  0.24481735010E+03  0.00000000000E+00 0. -1.
</event>
<event>
 7    1  0.6473813E-006  0.1246919E+03  0.7561462E-02  0.1235552E+00
          3   -1    0    0  501    0  0.00000000000E+00  0.00000000000E+00  0.22834812891E+03  0.22834812891E+03  0.00000000000E+00 0. -1.
         -3   -1    0    0    0  501 -0.00000000000E+00 -0.00000000000E+00 -0.92019994017E+02  0.92019994017E+02  0.00000000000E+00 0.  1.
         23    2    1    2    0    0 -0.66155784057E+02 -0.91391612168E+01 -0.16198065194E+01  0.14181318961E+03  0.12509294522E+03 0.  0.
          5    1    3    3  502    0 -0.10049951641E+03 -0.15727342986E+02  0.14933883007E+02  0.10289798529E+03  0.41800000000E+01 0.  1.
         -5    1    3    3    0  502  0.34343732348E+02  0.65881817688E+01 -0.16553689526E+02  0.38915204324E+02  0.41800000000E+01 0.  1.
        -11    1    1    2    0    0  0.77769073686E+01  0.43785471435E+02  0.66496773645E+02  0.79996679319E+02  0.00000000000E+00 0. -1.
         11    1    1    2    0    0  0.58378876689E+02 -0.34646310218E+02  0.71451167771E+02  0.98558253998E+02  0.00000000000E+00 0.  1.
</event>
<event>
 7    1  0.6473813E-006  0.9082079E+02  0.7561462E-02  0.1300876E+00
          3   -1    0    0  501    0  0.00000000000E+00  0.00000000000E+00  0.39171069441E+02  0.39171069441E+02  0.00000000000E+00 0. -1.
         -3   -1    0    0    0  501 -0.00000000000E+00 -0.00000000000E+00 -0.34237654263E+03  0.34237654263E+03  0.00000000000E+00 0.  1.
         23    2    1    2    0    0  0.20159493739E+02 -0.36696219595E+02 -0.18808094405E+03  0.22972796752E+03  0.12508988697E+03 0.  0.
          5    1    3    3  502    0  0.27515501791E+02  0.43284688759E+02 -0.71269026563E+02  0.87905708956E+02  0.41800000000E+01 0. -1.
         -5    1    3    3    0  502 -0.73560080517E+01 -0.79980908354E+02 -0.11681191749E+03  0.14182225856E+03  0.41800000000E+01 0. -1.
        -11    1    1    2    0    0 -0.19296270421E+02  0.77486886546E+01 -0.12057151296E+03  0.12235145265E+03  0.00000000000E+00 0.  1.
         11    1    1    2    0    0 -0.86322331801E+00  0.28947530940E+02  0.54469838145E+01  0.29468191914E+02  0.00000000000E+00 0. -1.
</event>
<event>
 7    1  0.6473813E-006  0.1342011E+03  0.7561462E-02  0.1221352E+00
          3   -1    0    0  501    0  0.00000000000E+00  0.00000000000E+00  0.33437505269E+02  0.33437505269E+02  0.00000000000E+00 0. -1.
         -3   -1    0    0    0  501 -0.00000000000E+00 -0.00000000000E+00 -0.56026179644E+03  0.56026179644E+03  0.00000000000E+00 0.  1.
         23    2    1    2    0    0  0.80736843816E+02 -0.41462993931E+01 -0.31967905495E+03  0.35267232098E+03  0.12508972006E+03 0.  0.
          5    1    3    3  502    0 -0.77439515485E+00 -0.50977108362E+02 -0.77558363580E+02  0.92908758607E+02  0.41800000000E+01 0. -1.
         -5    1    3    3    0  502  0.81511238971E+02  0.46830808969E+02 -0.24212069137E+03  0.25976356237E+03  0.41800000000E+01 0. -1.
        -11    1    1    2    0    0 -0.13298307498E+02  0.43212341328E+02 -0.80217591966E+02  0.92081558882E+02  0.00000000000E+00 0.  1.
         11    1    1    2    0    0 -0.67438536318E+02 -0.39066041934E+02 -0.12692764426E+03  0.14894542185E+03  0.00000000000E+00 0. -1.
</event>
<event>
 7    1  0.6473813E-006  0.1300815E+03  0.7561462E-02  0.1227335E+00
         -1   -1    0    0    0  501 -0.00000000000E+00  0.00000000000E+00  0.24618540487E+02  0.24618540487E+02  0.00000000000E+00 0.  1.
          1   -1    0    0  501    0  0.00000000000E+00 -0.00000000000E+00 -0.85743652244E+03  0.85743652244E+03  0.00000000000E+00 0. -1.
         23    2    1    2    0    0 -0.55646057713E+02  0.68064435076E+02 -0.31947346507E+03  0.35417550517E+03  0.12509093699E+03 0.  0.
          5    1    3    3  502    0  0.16000261089E+02  0.65335290330E+02 -0.82342734837E+02  0.10640726901E+03  0.41800000000E+01 0. -1.
         -5    1    3    3    0  502 -0.71646318802E+02  0.27291447455E+01 -0.23713073023E+03  0.24776823616E+03  0.41800000000E+01 0. -1.
        -11    1    1    2    0    0  0.30740635442E+02 -0.85292959853E+02 -0.42257393565E+03  0.43219047509E+03  0.00000000000E+00 0. -1.
         11    1    1    2    0    0  0.24905422271E+02  0.17228524777E+02 -0.90770581229E+02  0.95689082664E+02  0.00000000000E+00 0.  1.
</event>
<event>
 7    1  0.6473813E-006  0.9197427E+02  0.7561462E-02  0.1298140E+00
         -1   -1    0    0    0  501 -0.00000000000E+00  0.00000000000E+00  0.62934763032E+03  0.62934763032E+03  0.00000000000E+00 0.  1.
          1   -1    0    0  501    0  0.00000000000E+00 -0.00000000000E+00 -0.26334619476E+02  0.26334619476E+02  0.00000000000E+00 0. -1.
         23    2    1    2    0    0 -0.44022756762E+02  0.10353244042E+02  0.46632727705E+03  0.48492621004E+03  0.12508839711E+03 0.  0.
          5    1    3    3  502    0  0.42340217436E+02  0.67819725713E+01  0.21034968871E+03  0.21471644815E+03  0.41800000000E+01 0. -1.
         -5    1    3    3    0  502 -0.86362974198E+02  0.35712714709E+01  0.25597758834E+03  0.27020976190E+03  0.41800000000E+01 0. -1.
        -11    1    1    2    0    0  0.23331162321E+02  0.99264435334E+01 -0.52505314697E+01  0.25892962310E+02  0.00000000000E+00 0. -1.
         11    1    1    2    0    0  0.20691594441E+02 -0.20279687576E+02  0.14193626527E+03  0.14486307744E+03  0.00000000000E+00 0.  1.
</event>
<event>
 7    1  0.6473813E-006  0.1064507E+03  0.7561462E-02  0.1267288E+00
         -1   -1    0    0    0  501 -0.00000000000E+00  0.00000000000E+00  0.14748494185E+03  0.14748494185E+03  0.00000000000E+00 0.  1.
          1   -1    0    0  501    0  0.00000000000E+00 -0.00000000000E+00 -0.14603318025E+03  0.14603318025E+03  0.00000000000E+00 0. -1.
         23    2    1    2    0    0 -0.10919455917E+01  0.80439070323E+02  0.52863483047E+02  0.15784189202E+03  0.12509148115E+03 0.  0.
          5    1    3    3  502    0  0.13559293852E+02  0.66602938955E+02 -0.28569984182E+02  0.73847967632E+02  0.41800000000E+01 0.  1.
         -5    1    3    3    0  502 -0.14651239444E+02  0.13836131368E+02  0.81433467229E+02  0.83993924383E+02  0.41800000000E+01 0.  1.
        -11    1    1    2    0    0 -0.44770203023E+02 -0.57703405661E+02 -0.39847688534E+02  0.83197910941E+02  0.00000000000E+00 0. -1.
         11    1    1    2    0    0  0.45862148614E+02 -0.22735664662E+02 -0.11564032919E+02  0.52478319147E+02  0.00000000000E+00 0.  1.
</event>
<event>
 7    1  0.6473813E-006  0.1366003E+03  0.7561462E-02  0.1217978E+00
          1   -1    0    0  501    0  0.00000000000E+00  0.00000000000E+00  0.60237415319E+03  0.60237415319E+03  0.00000000000E+00 0. -1.
         -1   -1    0    0    0  501 -0.00000000000E+00 -0.00000000000E+00 -0.44307463232E+02  0.44307463232E+02  0.00000000000E+00 0.  1.
         23    2    1    2    0    0  0.84102040378E+02 -0.83768279608E+02  0.34653612938E+03  0.38707339322E+03  0.12509294509E+03 0.  0.
          5    1    3    3  502    0 -0.16825339801E+02 -0.38731824625E+02  0.30541599794E+02  0.52282961051E+02  0.41800000000E+01 0. -1.
         -5    1    3    3    0  502  0.10092738018E+03 -0.45036454982E+02  0.31599452959E+03  0.33479043217E+03  0.41800000000E+01 0. -1.
        -11    1    1    2    0    0 -0.49729851264E+02  0.62006812294E+02  0.52027200611E+02  0.94998591995E+02  0.00000000000E+00 0.  1.
         11    1    1    2    0    0 -0.34372189113E+02  0.21761467313E+02  0.15950335997E+03  0.16460963120E+03  0.00000000000E+00 0. -1.
</event>
<event>
 7    1  0.6473813E-006  0.9100119E+02  0.7561462E-02  0.1300445E+00
         -1   -1    0    0    0  501 -0.00000000000E+00  0.00000000000E+00  0.52634579697E+02  0.52634579697E+02  0.00000000000E+00 0.  1.
          1   -1    0    0  501    0  0.00000000000E+00 -0.00000000000E+00 -0.35732957581E+03  0.35732957581E+03  0.00000000000E+00 0. -1.
         23    2    1    2    0    0  0.36748706595E+02 -0.34197305782E+01 -0.55257627789E+02  0.14164361389E+03  0.12508935180E+03 0.  0.
          5    1    3    3  502    0 -0.19918124154E+02 -0.38502957261E+02 -0.60628298782E+02  0.74648994640E+02  0.41800000000E+01 0.  1.
         -5    1    3    3    0  502  0.56666830750E+02  0.35083226682E+02  0.53706709927E+01  0.66994619251E+02  0.41800000000E+01 0.  1.
        -11    1    1    2    0    0  0.15560753003E+02  0.10663384974E+02 -0.68772206443E+01  0.20078370873E+02  0.00000000000E+00 0.  1.
         11    1    1    2    0    0 -0.52309459599E+02 -0.72436543959E+01 -0.24256014768E+03  0.24824217074E+03  0.00000000000E+00 0. -1.
</event>
<event>
 7    1  0.6473813E-006  0.4998134E+02  0.7561462E-02  0.1445442E+00
         -1   -1    0    0    0  501 -0.00000000000E+00  0.00000000000E+00  0.89973449965E+02  0.89973449965E+02  0.00000000000E+00 0.  1.
          1   -1    0    0  501    0  0.00000000000E+00 -0.00000000000E+00 -0.14370243923E+03  0.14370243923E+03  0.00000000000E+00 0. -1.
         23    2    1    2    0    0  0.20229201326E+02  0.23578550686E+02 -0.32338526087E+02  0.13288331043E+03  0.12508807011E+03 0.  0.
          5    1    3    3  502    0 -0.82177477163E+01  0.13056336826E+02  0.46040743787E+02  0.48736247263E+02  0.41800000000E+01 0.  1.
         -5    1    3    3    0  502  0.28446949043E+02  0.10522213860E+02 -0.78379269874E+02  0.84147063171E+02  0.41800000000E+01 0.  1.
        -11    1    1    2    0    0 -0.13955483913E+02 -0.36456922242E+02  0.28855892671E+02  0.48544054760E+02  0.00000000000E+00 0.  1.
         11    1    1    2    0    0 -0.62737174131E+01  0.12878371556E+02 -0.50246355852E+02  0.52248524003E+02  0.00000000000E+00 0. -1.
</event>
<event>
 7    1  0.6473813E-006  0.1124197E+03  0.7561462E-02  0.1256153E+00
         -1   -1    0    0    0  501 -0.00000000000E+00  0.00000000000E+00  0.15939306624E+03  0.15939306624E+03  0.00000000000E+00 0.  1.
          1   -1    0    0  501    0  0.00000000000E+00 -0.00000000000E+00 -0.93216869146E+02  0.93216869146E+02  0.00000000000E+00 0. -1.
         23    2    1    2    0    0  0.46153568966E+01 -0.47826809446E+02  0.65619156744E+02  0.14916647097E+03  0.12504422061E+03 0.  0.
          5    1    3    3  502    0  0.57199333533E+02  0.70819100249E+01  0.29857694802E+02  0.65045150051E+02  0.41800000000E+01 0.  1.
         -5    1    3    3    0  502 -0.52583976636E+02 -0.54908719471E+02  0.35761461942E+02  0.84121320918E+02  0.41800000000E+01 0.  1.
        -11    1    1    2    0    0  0.19950351637E+02  0.60189341701E+02  0.23504786937E+02  0.67625796807E+02  0.00000000000E+00 0.  1.
         11    1    1    2    0    0 -0.24565708533E+02 -0.12362532255E+02 -0.22947746588E+02  0.35817667609E+02  0.00000000000E+00 0. -1.
</event>
<event>
 7    1  0.6473813E-006  0.1553946E+03  0.7561462E-02  0.1193997E+00
          2   -1    0    0  501    0  0.00000000000E+00  0.00000000000E+00  0.22187702486E+03  0.22187702486E+03  0.00000000000E+00 0. -1.
         -2   -1    0    0    0  501 -0.00000000000E+00 -0.00000000000E+00 -0.17020406935E+03  0.17020406935E+03  0.00000000000E+00 0.  1.
         23    2    1    2    0    0 -0.12596512013E+03 -0.81810667448E+02 -0.30604943577E+02  0.19785055292E+03  0.12509189390E+03 0.  0.
          5    1    3    3  502    0 -0.43507028774E+02 -0.60230464857E+02 -0.71517649677E+02  0.10321248502E+03  0.41800000000E+01 0. -1.
         -5    1    3    3    0  502 -0.82458091356E+02 -0.21580202591E+02  0.40912706100E+02  0.94638067892E+02  0.41800000000E+01 0. -1.
        -11    1    1    2    0    0  0.79911933008E+02  0.60810448800E+02  0.33582676930E+01  0.10047440312E+03  0.00000000000E+00 0.  1.
         11    1    1    2    0    0  0.46053187122E+02  0.21000218648E+02  0.78919631394E+02  0.93756138182E+02  0.00000000000E+00 0. -1.
</event>
<event>
 7    1  0.6473813E-006  0.1321638E+03  0.7561462E-02  0.1224280E+00
          1   -1    0    0  501    0  0.00000000000E+00  0.00000000000E+00  0.59126316539E+03  0.59126316539E+03  0.00000000000E+00 0. -1.
         -1   -1    0    0    0  501 -0.00000000000E+00 -0.00000000000E+00 -0.43150829752E+02  0.43150829752E+02  0.00000000000E+00 0.  1.
         23    2    1    2    0    0 -0.78353184263E+02  0.73144188847E+02  0.20291394307E+03  0.26135805537E+03  0.12507865912E+03 0.  0.
          5    1    3    3  502    0 -0.58442098098E+02  0.96630324326E+01  0.18207656568E+03  0.19151553774E+03  0.41800000000E+01 0. -1.
         -5    1    3    3    0  502 -0.19911086165E+02  0.63481156414E+02  0.20837377385E+02  0.69842517625E+02  0.41800000000E+01 0. -1.
        -11    1    1    2    0    0  0.55542666731E+02 -0.92813312900E+02  0.23294588924E+03  0.25683279813E+03  0.00000000000E+00 0.  1.
         11    1    1    2    0    0  0.22810517533E+02  0.19669124053E+02  0.11225250333E+03  0.11622314165E+03  0.00000000000E+00 0. -1.
</event>
<event>
 7    1  0.6473813E-006  0.1488748E+03  0.7561462E-02  0.1201862E+00
         -2   -1    0    0    0  501 -0.00000000000E+00  0.00000000000E+00  0.13819830379E+04  0.13819830379E+04  0.00000000000E+00 0.  1.
          2   -1    0    0  501    0  0.00000000000E+00 -0.00000000000E+00 -0.18775830421E+02  0.18775830421E+02  0.00000000000E+00 0. -1.
         23    2    1    2    0    0  0.85716527950E+02  0.76162159461E+02  0.79159626097E+03  0.80957984504E+03  0.12508751902E+03 0.  0.
          5    1    3    3  502    0  0.62913270468E+02 -0.56650574724E+01  0.15657434950E+03  0.16888804517E+03  0.41800000000E+01 0.  1.
         -5    1    3    3    0  502  0.22803257482E+02  0.81827216934E+02  0.63502191147E+03  0.64069179987E+03  0.41800000000E+01 0.  1.
        -11    1    1    2    0    0 -0.63924397454E+02  0.61765141017E+01  0.20603939462E+03  0.21581638041E+03  0.00000000000E+00 0. -1.
         11    1    1    2    0    0 -0.21792130495E+02 -0.82338673563E+02  0.36557155188E+03  0.37536264287E+03  0.00000000000E+00 0.  1.
</event>
<event>
 7    1  0.6473813E-006  0.1801038E+03  0.7561462E-02  0.1167703E+00
          1   -1    0    0  501    0  0.00000000000E+00  0.00000000000E+00  0.84141077724E+03  0.84141077724E+03  0.00000000000E+00 0. -1.
         -1   -1    0    0    0  501 -0.00000000000E+00 -0.00000000000E+00 -0.54373513166E+02  0.54373513166E+02  0.00000000000E+00 0.  1.
         23    2    1    2    0    0 -0.14102511783E+03  0.88436967521E+02  0.24509267258E+03  0.32160062433E+03  0.12508941733E+03 0.  0.
          5    1    3    3  502    0 -0.55133218425E+02  0.14200703649E+02  0.18391549939E+03  0.19257132464E+03  0.41800000000E+01 0.  1.
         -5    1    3    3    0  502 -0.85891899410E+02  0.74236263871E+02  0.61177173197E+02  0.12902929969E+03  0.41800000000E+01 0.  1.
        -11    1    1    2    0    0  0.10662287674E+03 -0.14029454868E+02  0.31964966690E+03  0.33725535281E+03  0.00000000000E+00 0. -1.
         11    1    1    2    0    0  0.34402241098E+02 -0.74407512653E+02  0.22229492459E+03  0.23692831327E+03  0.00000000000E+00 0.  1.
</event>
<event>
 7    1  0.6473813E-006  0.1695693E+03  0.7561462E-02  0.1178298E+00
         -2   -1    0    0    0  501 -0.00000000000E+00  0.00000000000E+00  0.89961533026E+02  0.89961533026E+02  0.00000000000E+00 0.  1.
          2   -1    0    0  501    0  0.00000000000E+00 -0.00000000000E+00 -0.35393375159E+03  0.35393375159E+03  0.00000000000E+00 0. -1.
         23    2    1    2    0    0  0.13675462168E+03 -0.28680386878E+02 -0.15625312025E+03  0.24410413416E+03  0.12508956624E+03 0.  0.
          5    1    3    3  502    0  0.13601202835E+03 -0.59346139683E+02 -0.15265548369E+03  0.21293756186E+03  0.41800000000E+01 0. -1.
         -5    1    3    3    0  502  0.74259332995E+00  0.30665752805E+02 -0.35976365634E+01  0.31166572298E+02  0.41800000000E+01 0. -1.
        -11    1    1    2    0    0 -0.52592107021E+02 -0.26695747544E+02 -0.10733731258E+02  0.59948358148E+02  0.00000000000E+00 0.  1.
         11    1    1    2    0    0 -0.84162514662E+02  0.55376134422E+02 -0.96985367050E+02  0.13984279230E+03  0.00000000000E+00 0. -1.
</event>
<event>
 7    1  0.6473813E-006  0.1937794E+03  0.7561462E-02  0.1155096E+00
         -2   -1    0    0    0  501 -0.00000000000E+00  0.00000000000E+00  0.23815148093E+03  0.23815148093E+03  0.00000000000E+00 0. -1.
          2   -1    0    0  501    0  0.00000000000E+00 -0.00000000000E+00 -0.31988960940E+03  0.31988960940E+03  0.00000000000E+00 0.  1.
         23    2    1    2    0    0 -0.13547806341E+03  0.10393497509E+03  0.14600779803E+03  0.25714172975E+03  0.12508719912E+03 0.  0.
          5    1    3    3  502    0  0.47520837480E+01 -0.18830956027E+02  0.34793584106E+02  0.40065609939E+02  0.41800000000E+01 0.  1.
         -5    1    3    3    0  502 -0.14023014715E+03  0.12276593112E+03  0.11121421393E+03  0.21707611981E+03  0.41800000000E+01 0.  1.
        -11    1    1    2    0    0  0.76251443887E+02 -0.20514596538E+02 -0.15933224706E+03  0.17782546589E+03  0.00000000000E+00 0.  1.
         11    1    1    2    0    0  0.59226619519E+02 -0.83420378551E+02 -0.68413679448E+02  0.12307389468E+03  0.00000000000E+00 0. -1.
</event>
<event>
 7    1  0.6473813E-006  0.1051500E+03  0.7561462E-02  0.1269824E+00
         -1   -1    0    0    0  501 -0.00000000000E+00  0.00000000000E+00  0.24386841025E+02  0.24386841025E+02  0.00000000000E+00 0.  1.
          1   -1    0    0  501    0  0.00000000000E+00 -0.00000000000E+00 -0.53727399259E+03  0.53727399259E+03  0.00000000000E+00 0. -1.
         23    2    1    2    0    0  0.36993072803E+02  0.16785489932E+02 -0.21544484097E+03  0.24785431996E+03  0.11560728487E+03 0.  0.
          5    1    3    3  502    0  0.39537452103E+02  0.58513265388E+02 -0.17812635331E+03  0.19165980927E+03  0.41800000000E+01 0. -1.
         -5    1    3    3    0  502 -0.25443793001E+01 -0.41727775456E+02 -0.37318487660E+02  0.56194510691E+02  0.41800000000E+01 0.  1.
        -11    1    1    2    0    0 -0.79503687659E+01  0.36231371161E+02 -0.81155492584E+02  0.89230793991E+02  0.00000000000E+00 0. -1.
         11    1    1    2    0    0 -0.29042704037E+02 -0.53016861092E+02 -0.21628681801E+03  0.22457571967E+03  0.00000000000E+00 0.  1.
</event>
<event>
 7    1  0.6473813E-006  0.1166124E+03  0.7561462E-02  0.1248793E+00
          1   -1    0    0  501    0  0.00000000000E+00  0.00000000000E+00  0.14997817308E+02  0.14997817308E+02  0.00000000000E+00 0.  1.
         -1   -1    0    0    0  501 -0.00000000000E+00 -0.00000000000E+00 -0.15061311016E+04  0.15061311016E+04  0.00000000000E+00 0. -1.
         23    2    1    2    0    0  0.62398113421E+02  0.19669039332E+02 -0.12272790203E+04  0.12353707571E+04  0.12508684261E+03 0.  0.
          5    1    3    3  502    0  0.93480323685E+02  0.41315800817E+02 -0.94840308167E+03  0.95390326765E+03  0.41800000000E+01 0.  1.
         -5    1    3    3    0  502 -0.31082210264E+02 -0.21646761485E+02 -0.27887593865E+03  0.28146748948E+03  0.41800000000E+01 0.  1.
        -11    1    1    2    0    0 -0.75446129062E+02 -0.90139054147E+01 -0.25624583357E+03  0.26727382233E+03  0.00000000000E+00 0. -1.
         11    1    1    2    0    0  0.13048015641E+02 -0.10655133918E+02 -0.76084303788E+01  0.18484339420E+02  0.00000000000E+00 0.  1.
</event>
<event>
 7    1  0.6473813E-006  0.1968258E+03  0.7561462E-02  0.1152445E+00
         -2   -1    0    0    0  501 -0.00000000000E+00  0.00000000000E+00  0.34669778246E+02  0.34669778246E+02  0.00000000000E+00 0.  1.
          2   -1    0    0  501    0  0.00000000000E+00 -0.00000000000E+00 -0.14105945713E+04  0.14105945713E+04  0.00000000000E+00 0. -1.
         23    2    1    2    0    0 -0.93192586587E+02  0.16115466520E+03 -0.56204320008E+03  0.60514270474E+03  0.12509776194E+03 0.  0.
          5    1    3    3  502    0 -0.94272543027E+01  0.95144872336E+02 -0.13842890046E+03  0.16828978798E+03  0.41800000000E+01 0.  1.
         -5    1    3    3    0  502 -0.83765332284E+02  0.66009792865E+02 -0.42361429962E+03  0.43685291677E+03  0.41800000000E+01 0.  1.
        -11    1    1    2    0    0  0.27887691110E+02 -0.91864348845E+02 -0.24164121449E+03  0.26001395817E+03  0.00000000000E+00 0.  1.
         11    1    1    2    0    0  0.65304895476E+02 -0.69290316356E+02 -0.57224037849E+03  0.58010768663E+03  0.00000000000E+00 0. -1.
</event>
<event>
 6    1  0.6473813E-006  0.1256645E+03  0.7561462E-02  0.1234034E+00
         -1   -1    0    0    0  501 -0.00000000000E+00  0.00000000000E+00  0.42148974772E+02  0.42148974772E+02  0.00000000000E+00 0.  1.
          1   -1    0    0  501    0  0.00000000000E+00 -0.00000000000E+00 -0.56582957383E+03  0.56582957383E+03  0.00000000000E+00 0. -1.
          5    1    1    2  502    0 -0.22369832382E+02 -0.35653766343E+02 -0.16944039364E+03  0.17463997209E+03  0.41800000000E+01 0. -1.
         -5    1    1    2    0  502  0.24224782599E+02  0.97117925913E+02 -0.54382871448E+02  0.11398991505E+03  0.41800000000E+01 0.  1.
        -11    1    1    2    0    0 -0.17745295179E+02  0.19486220869E+02 -0.92575806472E+02  0.96254289508E+02  0.00000000000E+00 0. -1.
         11    1    1    2    0    0  0.15890344962E+02 -0.80950380439E+02 -0.20728152750E+03  0.22309437196E+03  0.00000000000E+00 0.  1.
</event>
<event>
 7    1  0.9200356E-006  0.2494497E+03  0.7561462E-02  0.1113653E+00
          2   -1    0    0  501    0  0.00000000000E+00  0.00000000000E+00  0.72258896964E+03  0.72258896964E+03  0.00000000000E+00 0. -1.
         -2   -1    0    0    0  501 -0.00000000000E+00 -0.00000000000E+00 -0.10361671057E+03  0.10361671057E+03  0.00000000000E+00 0.  1.
         23    2    1    2    0    0 -0.21055369305E+03 -0.12160826858E+03  0.22362252376E+03  0.35323685921E+03  0.12509123441E+03 0.  0.
          5    1    3    3  502    0 -0.22950415937E+02 -0.49082930984E+02  0.10875139687E+03  0.12157382295E+03  0.41800000000E+01 0.  1.
         -5    1    3    3    0  502 -0.18760327711E+03 -0.72525337600E+02  0.11487112690E+03  0.23166303626E+03  0.41800000000E+01 0.  1.
        -11    1    1    2    0    0  0.13031509260E+03  0.69317746082E+02  0.15401610001E+03  0.21332588297E+03  0.00000000000E+00 0.  1.
         11    1    1    2    0    0  0.80238600446E+02  0.52290522503E+02  0.24133363529E+03  0.25964293803E+03  0.00000000000E+00 0. -1.
</event>
<event>
 7    1  0.6473813E-006  0.1966044E+03  0.7561462E-02  0.1152636E+00
          2   -1    0    0  501    0  0.00000000000E+00  0.00000000000E+00  0.11964891090E+03  0.11964891090E+03  0.00000000000E+00 0. -1.
         -2   -1    0    0    0  501 -0.00000000000E+00 -0.00000000000E+00 -0.38055231826E+03  0.38055231826E+03  0.00000000000E+00 0.  1.
         23    2    1    2    0    0  0.47128629125E+02 -0.17332184409E+03 -0.17371856071E+03  0.27944166000E+03  0.12509170111E+03 0.  0.
          5    1    3    3  502    0 -0.23525245646E+02 -0.62848502819E+02 -0.74597157285E+01  0.67649769017E+02  0.41800000000E+01 0. -1.
         -5    1    3    3    0  502  0.70653874771E+02 -0.11047334127E+03 -0.16625884498E+03  0.21179189098E+03  0.41800000000E+01 0. -1.
        -11    1    1    2    0    0 -0.60264128685E+02  0.78105452546E+02 -0.13339826109E+02  0.99549876365E+02  0.00000000000E+00 0. -1.
         11    1    1    2    0    0  0.13135499561E+02  0.95216391544E+02 -0.73845020540E+02  0.12120969279E+03  0.00000000000E+00 0.  1.
</event>
<event>
 7    1  0.6473813E-006  0.2071252E+03  0.7561462E-02  0.1143863E+00
         -2   -1    0    0    0  501 -0.00000000000E+00  0.00000000000E+00  0.76588504926E+02  0.76588504926E+02  0.00000000000E+00 0. -1.
          2   -1    0    0  501    0  0.00000000000E+00 -0.00000000000E+00 -0.65460383318E+03  0.65460383318E+03  0.00000000000E+00 0.  1.
         23    2    1    2    0    0  0.17753253529E+03 -0.35519068490E+02 -0.17830789757E+03  0.28323275125E+03  0.12509068604E+03 0.  0.
          5    1    3    3  502    0 -0.77175885552E+01 -0.31477938437E+02 -0.14017914473E+02  0.35558347930E+02  0.41800000000E+01 0.  1.
         -5    1    3    3    0  502  0.18525012384E+03 -0.40411300534E+01 -0.16428998310E+03  0.24767440332E+03  0.41800000000E+01 0.  1.
        -11    1    1    2    0    0 -0.11766328059E+03 -0.14056070644E+02 -0.29203511215E+03  0.31516143078E+03  0.00000000000E+00 0.  1.
         11    1    1    2    0    0 -0.59869254697E+02  0.49575139134E+02 -0.10767231853E+03  0.13279815607E+03  0.00000000000E+00 0. -1.
</event>
<event>
 7    1  0.6473813E-006  0.1235148E+03  0.7561462E-02  0.1237409E+00
         -2   -1    0    0    0  501 -0.00000000000E+00  0.00000000000E+00  0.12183958066E+03  0.12183958066E+03  0.00000000000E+00 0. -1.
          2   -1    0    0  501    0  0.00000000000E+00 -0.00000000000E+00 -0.15992190852E+03  0.15992190852E+03  0.00000000000E+00 0.  1.
         23    2    1    2    0    0 -0.37610482381E+02 -0.79265751729E+02 -0.17875536507E+02  0.15383568777E+03  0.12509307033E+03 0.  0.
          5    1    3    3  502    0  0.45206437984E+02 -0.14961179908E+02 -0.36245690190E+01  0.47938177270E+02  0.41800000000E+01 0. -1.
         -5    1    3    3    0  502 -0.82816920365E+02 -0.64304571821E+02 -0.14250967488E+02  0.10589751050E+03  0.41800000000E+01 0. -1.
        -11    1    1    2    0    0  0.14052757667E+02  0.65540028532E+02 -0.52875606266E+02  0.85374498979E+02  0.00000000000E+00 0.  1.
         11    1    1    2    0    0  0.23557724714E+02  0.13725723197E+02  0.32668814914E+02  0.42551302435E+02  0.00000000000E+00 0. -1.
</event>
<event>
 7    1  0.6473813E-006  0.1817018E+03  0.7561462E-02  0.1166166E+00
          2   -1    0    0  501    0  0.00000000000E+00  0.00000000000E+00  0.20535288963E+03  0.20535288963E+03  0.00000000000E+00 0.  1.
         -2   -1    0    0    0  501 -0.00000000000E+00 -0.00000000000E+00 -0.26674258529E+03  0.26674258529E+03  0.00000000000E+00 0. -1.
         23    2    1    2    0    0  0.49563960304E+02  0.17066976879E+03 -0.13916976156E+03  0.25807250557E+03  0.12509372269E+03 0.  0.
          5    1    3    3  502    0  0.33327512478E+02  0.60334725390E+02  0.12083288025E+02  0.70103355308E+02  0.41800000000E+01 0. -1.
         -5    1    3    3    0  502  0.16236447826E+02  0.11033504340E+03 -0.15125304959E+03  0.18796915026E+03  0.41800000000E+01 0. -1.
        -11    1    1    2    0    0 -0.46161296274E+02 -0.82689400439E+02  0.82855050379E+02  0.12583068621E+03  0.00000000000E+00 0.  1.
         11    1    1    2    0    0 -0.34026640300E+01 -0.87980368351E+02 -0.50749844778E+01  0.88192283138E+02  0.00000000000E+00 0. -1.
</event>
<event>
 6    1  0.6473813E-006  0.8387710E+02  0.7561462E-02  0.1318395E+00
          1   -1    0    0  501    0  0.00000000000E+00  0.00000000000E+00  0.29483311561E+02  0.29483311561E+02  0.00000000000E+00 0. -1.
         -1   -1    0    0    0  501 -0.00000000000E+00 -0.00000000000E+00 -0.98953245858E+03  0.98953245858E+03  0.00000000000E+00 0.  1.
          5    1    1    2  502    0  0.50958020902E+02 -0.64366915456E+01 -0.82712912477E+02  0.97452804899E+02  0.41800000000E+01 0. -1.
         -5    1    1    2    0  502  0.87566841716E+01  0.26268316305E+01 -0.76196973573E+03  0.76203604267E+03  0.41800000000E+01 0.  1.
        -11    1    1    2    0    0  0.17803280800E+02  0.20211963676E+02 -0.50066702769E+02  0.56852044898E+02  0.00000000000E+00 0.  1.
         11    1    1    2    0    0 -0.77517985874E+02 -0.16402103761E+02 -0.65299796043E+02  0.10267487767E+03  0.00000000000E+00 0. -1.
</event>
<event>
 7    1  0.6473813E-006  0.1235231E+03  0.7561462E-02  0.1237396E+00
          2   -1    0    0  501    0  0.00000000000E+00  0.00000000000E+00  0.50347015827E+02  0.50347015827E+02  0.00000000000E+00 0. -1.
         -2   -1    0    0    0  501 -0.00000000000E+00 -0.00000000000E+00 -0.51261719885E+03  0.51261719885E+03  0.00000000000E+00 0.  1.
         23    2    1    2    0    0 -0.73983744370E+02 -0.33037238899E+02 -0.39210263456E+03  0.41947340930E+03  0.12509361093E+03 0.  0.
          5    1    3    3  502    0 -0.81806656204E+02  0.15487742734E+02 -0.32889193193E+03  0.33929275627E+03  0.41800000000E+01 0. -1.
         -5    1    3    3    0  502  0.78229118341E+01 -0.48524981634E+02 -0.63210702635E+02  0.80180653026E+02  0.41800000000E+01 0. -1.
        -11    1    1    2    0    0 -0.83478873237E+01 -0.16340359328E+02 -0.38074320217E+02  0.42265215316E+02  0.00000000000E+00 0.  1.
         11    1    1    2    0    0  0.82331631694E+02  0.49377598227E+02 -0.32093228246E+02  0.10122559006E+03  0.00000000000E+00 0. -1.
</event>
<event>
 7    1  0.6473813E-006  0.8964026E+02  0.7561462E-02  0.1303725E+00
          1   -1    0    0  501    0  0.00000000000E+00  0.00000000000E+00  0.23310160232E+03  0.23310160232E+03  0.00000000000E+00 0. -1.
         -1   -1    0    0    0  501 -0.00000000000E+00 -0.00000000000E+00 -0.61807184663E+02  0.61807184663E+02  0.00000000000E+00 0.  1.
         23    2    1    2    0    0  0.10860918833E+02 -0.12177978264E+02  0.38437056249E+02  0.13188134772E+03  0.12509604259E+03 0.  0.
          5    1    3    3  502    0 -0.50366419403E+02 -0.33902413102E+01 -0.11889645558E+02  0.52029856920E+02  0.41800000000E+01 0. -1.
         -5    1    3    3    0  502  0.61227338236E+02 -0.87877369534E+01  0.50326701807E+02  0.79851490800E+02  0.41800000000E+01 0. -1.
        -11    1    1    2    0    0  0.16583090491E+02 -0.18917821993E+02  0.14148648407E+01  0.25196918893E+02  0.00000000000E+00 0.  1.
         11    1    1    2    0    0 -0.27444009324E+02  0.31095800256E+02  0.13144249656E+03  0.13783052036E+03  0.00000000000E+00 0. -1.
</event>
<event>
 7    1  0.6473813E-006  0.9172642E+02  0.7561462E-02  0.1298724E+00
         -4   -1    0    0    0  501 -0.00000000000E+00  0.00000000000E+00  0.43357837216E+02  0.43357837216E+02  0.00000000000E+00 0.  1.
          4   -1    0    0  501    0  0.00000000000E+00 -0.00000000000E+00 -0.33663069645E+03  0.33663069645E+03  0.00000000000E+00 0. -1.
         23    2    1    2    0    0  0.12892895416E+02 -0.12121888304E+01 -0.58644391779E+02  0.12990497401E+03  0.11518872094E+03 0.  0.
          5    1    3    3  502    0 -0.33840076253E+02  0.25895242004E+02 -0.62300469063E+02  0.75594544543E+02  0.41800000000E+01 0. -1.
         -5    1    3    3    0  502  0.46732971669E+02 -0.27107430834E+02  0.36560772841E+01  0.54310429464E+02  0.41800000000E+01 0.  1.
        -11    1    1    2    0    0 -0.45603131248E+02  0.18782154784E+02 -0.13983163576E+03  0.14827441208E+03  0.00000000000E+00 0. -1.
         11    1    1    2    0    0  0.32710235832E+02 -0.17569965954E+02 -0.94796831702E+02  0.10180914759E+03  0.00000000000E+00 0.  1.
</event>
<event>
 7    1  0.6473813E-006  0.9689593E+02  0.7561462E-02  0.1286962E+00
          3   -1    0    0  501    0  0.00000000000E+00  0.00000000000E+00  0.80486627435E+02  0.80486627435E+02  0.00000000000E+00 0. -1.
         -3   -1    0    0    0  501 -0.00000000000E+00 -0.00000000000E+00 -0.20359725051E+03  0.20359725051E+03  0.00000000000E+00 0.  1.
         23    2    1    2    0    0  0.28054573236E+02 -0.35787590956E+02 -0.11954618959E+03  0.17891075485E+03  0.12509978421E+03 0.  0.
          5    1    3    3  502    0 -0.25438727332E+02  0.58403042020E+01  0.13391236300E+02  0.29631665682E+02  0.41800000000E+01 0.  1.
         -5    1    3    3    0  502  0.53493300568E+02 -0.41627895158E+02 -0.13293742589E+03  0.14927908917E+03  0.41800000000E+01 0.  1.
        -11    1    1    2    0    0  0.32067853881E+02  0.17877474950E+02 -0.17865237762E+02  0.40830357376E+02  0.00000000000E+00 0.  1.
         11    1    1    2    0    0 -0.60122427117E+02  0.17910116006E+02  0.14300804273E+02  0.64342765721E+02  0.00000000000E+00 0. -1.
</event>
<event>
 7    1  0.6473813E-006  0.1363845E+03  0.7561462E-02  0.1218278E+00
          2   -1    0    0  501    0  0.00000000000E+00  0.00000000000E+00  0.18692251642E+03  0.18692251642E+03  0.00000000000E+00 0. -1.
         -2   -1    0    0    0  501 -0.00000000000E+00 -0.00000000000E+00 -0.24303161593E+03  0.24303161593E+03  0.00000000000E+00 0.  1.
         23    2    1    2    0    0  0.12444494968E+02 -0.12914688836E+03 -0.15555736383E+03  0.23806262909E+03  0.12506773244E+03 0.  0.
          5    1    3    3  502    0  0.13281995235E+02 -0.13144934330E+03 -0.64867365237E+02  0.14724329772E+03  0.41800000000E+01 0.  1.
         -5    1    3    3    0  502 -0.83750026704E+00  0.23024549355E+01 -0.90689998595E+02  0.90819331370E+02  0.41800000000E+01 0.  1.
        -11    1    1    2    0    0  0.14517200047E+02  0.37627389087E+02 -0.14875462806E+02  0.42986613037E+02  0.00000000000E+00 0.  1.
         11    1    1    2    0    0 -0.26961695015E+02  0.91519499275E+02  0.11432372713E+03  0.14890489021E+03  0.00000000000E+00 0. -1.
</event>
<event>
 7    1  0.6473813E-006  0.7030753E+02  0.7561462E-02  0.1359050E+00
         -2   -1    0    0    0  501 -0.00000000000E+00  0.00000000000E+00  0.75120948063E+02  0.75120948063E+02  0.00000000000E+00 0.  1.
          2   -1    0    0  501    0  0.00000000000E+00 -0.00000000000E+00 -0.15738798455E+03  0.15738798455E+03  0.00000000000E+00 0. -1.
         23    2    1    2    0    0  0.98640212191E+01 -0.73856886697E+01 -0.49094373220E+02  0.13494608076E+03  0.12509332484E+03 0.  0.
          5    1    3    3  502    0 -0.92646488682E+01 -0.24618633979E+02  0.36659316338E+02  0.45313229106E+02  0.41800000000E+01 0.  1.
         -5    1    3    3    0  502  0.19128670087E+02  0.17232945310E+02 -0.85753689558E+02  0.89632851657E+02  0.41800000000E+01 0.  1.
        -11    1    1    2    0    0 -0.44914478599E+02  0.21889355871E+02 -0.48030260693E+01  0.50194853797E+02  0.00000000000E+00 0.  1.
         11    1    1    2    0    0  0.35050457380E+02 -0.14503667202E+02 -0.28369637200E+02  0.47367998055E+02  0.00000000000E+00 0. -1.
</event>
<event>
 7    1  0.6473813E-006  0.1254911E+03  0.7561462E-02  0.1234304E+00
          1   -1    0    0  501    0  0.00000000000E+00  0.00000000000E+00  0.41548199292E+03  0.41548199292E+03  0.00000000000E+00 0. -1.
         -1   -1    0    0    0  501 -0.00000000000E+00 -0.00000000000E+00 -0.46301712363E+02  0.46301712363E+02  0.00000000000E+00 0.  1.
         23    2    1    2    0    0  0.76196254710E+02 -0.40392912463E+02  0.21097431655E+03  0.25998821862E+03  0.12508499097E+03 0.  0.
          5    1    3    3  502    0  0.32745696345E+02 -0.67208299893E+02  0.47496847614E+02  0.88671636597E+02  0.41800000000E+01 0.  1.
         -5    1    3    3    0  502  0.43450558365E+02  0.26815387430E+02  0.16347746894E+03  0.17131658202E+03  0.41800000000E+01 0.  1.
        -11    1    1    2    0    0  0.33559664623E+01  0.45060617449E+02  0.49692789178E+02  0.67164686049E+02  0.00000000000E+00 0.  1.
         11    1    1    2    0    0 -0.79552221172E+02 -0.46677049865E+01  0.10851317483E+03  0.13463080062E+03  0.00000000000E+00 0. -1.
</event>
<event>
 7    1  0.6473813E-006  0.1064463E+03  0.7561462E-02  0.1267296E+00
          1   -1    0    0  501    0  0.00000000000E+00  0.00000000000E+00  0.34887201904E+03  0.34887201904E+03  0.00000000000E+00 0. -1.
         -1   -1    0    0    0  501 -0.00000000000E+00 -0.00000000000E+00 -0.51075751783E+02  0.51075751783E+02  0.00000000000E+00 0.  1.
         23    2    1    2    0    0 -0.50455546934E+02 -0.21535110768E+01  0.86541987289E+02  0.16027613577E+03  0.12509406183E+03 0.  0.
          5    1    3    3  502    0 -0.60003924652E+02  0.42027914025E+02  0.88347616716E+02  0.11484594164E+03  0.41800000000E+01 0. -1.
         -5    1    3    3    0  502  0.95483777178E+01 -0.44181425101E+02 -0.18056294270E+01  0.45430194130E+02  0.41800000000E+01 0. -1.
        -11    1    1    2    0    0  0.33809205329E+02  0.40238517094E+02  0.47891101988E+02  0.71103855540E+02  0.00000000000E+00 0.  1.
         11    1    1    2    0    0  0.16646341605E+02 -0.38085006017E+02  0.16336317798E+03  0.16856777952E+03  0.00000000000E+00 0. -1.
</event>
<event>
 7    1  0.6473813E-006  0.9314715E+02  0.7561462E-02  0.1295405E+00
         -1   -1    0    0    0  501 -0.00000000000E+00  0.00000000000E+00  0.81623100403E+02  0.81623100403E+02  0.00000000000E+00 0. -1.
          1   -1    0    0  501    0  0.00000000000E+00 -0.00000000000E+00 -0.14592882778E+03  0.14592882778E+03  0.00000000000E+00 0.  1.
         23    2    1    2    0    0 -0.18682267577E+02  0.11126642923E+01 -0.34737072488E+02  0.13117452833E+03  0.12509927072E+03 0.  0.
          5    1    3    3  502    0  0.52235471011E+02  0.14037704156E+02 -0.16416252738E+02  0.56679514145E+02  0.41800000000E+01 0.  1.
         -5    1    3    3    0  502 -0.70917738589E+02 -0.12925039864E+02 -0.18320819750E+02  0.74495014184E+02  0.41800000000E+01 0.  1.
        -11    1    1    2    0    0 -0.11018389800E+02 -0.21261535049E+02  0.22684669978E+02  0.32985633819E+02  0.00000000000E+00 0. -1.
         11    1    1    2    0    0  0.29700657377E+02  0.20148870756E+02 -0.52253324865E+02  0.63391766033E+02  0.00000000000E+00 0.  1.
</event>
<event>
 7    1  0.6473813E-006  0.1166659E+03  0.7561462E-02  0.1248701E+00
         -1   -1    0    0    0  501 -0.00000000000E+00  0.00000000000E+00  0.70141799815E+02  0.70141799815E+02  0.00000000000E+00 0.  1.
          1   -1    0    0  501    0  0.00000000000E+00 -0.00000000000E+00 -0.27544399476E+03  0.27544399476E+03  0.00000000000E+00 0. -1.
         23    2    1    2    0    0 -0.30525514262E+02  0.39867122699E+02 -0.24996964707E+02  0.13709119916E+03  0.12509178290E+03 0.  0.
          5    1    3    3  502    0  0.39138870499E+02  0.50282080035E+02 -0.16976613153E+02  0.66074325957E+02  0.41800000000E+01 0.  1.
         -5    1    3    3    0  502 -0.69664384762E+02 -0.10414957335E+02 -0.80203515534E+01  0.71016873203E+02  0.41800000000E+01 0.  1.
        -11    1    1    2    0    0  0.42506927267E+02  0.13200756583E+02 -0.48104641335E+02  0.65537434784E+02  0.00000000000E+00 0.  1.
         11    1    1    2    0    0 -0.11981413005E+02 -0.53067879283E+02 -0.13220058890E+03  0.14295716063E+03  0.00000000000E+00 0. -1.
</event>
<event>
 7    1  0.6473813E-006  0.1256629E+03  0.7561462E-02  0.1234037E+00
          4   -1    0    0  501    0  0.00000000000E+00  0.00000000000E+00  0.14168180007E+03  0.14168180007E+03  0.00000000000E+00 0. -1.
         -4   -1    0    0    0  501 -0.00000000000E+00 -0.00000000000E+00 -0.17635468968E+03  0.17635468968E+03  0.00000000000E+00 0.  1.
         23    2    1    2    0    0 -0.58221945531E+02 -0.93527107808E+02  0.11206170855E+02  0.16706291858E+03  0.12508927077E+03 0.  0.
          5    1    3    3  502    0 -0.19846722464E+02  0.14880651753E+02 -0.34962135993E+02  0.43071446950E+02  0.41800000000E+01 0. -1.
         -5    1    3    3    0  502 -0.38375223068E+02 -0.10840775956E+03  0.46168306849E+02  0.12399147163E+03  0.41800000000E+01 0. -1.
        -11    1    1    2    0    0  0.35053519758E+01  0.14873007500E+02 -0.52744795175E+02  0.54913634578E+02  0.00000000000E+00 0.  1.
         11    1    1    2    0    0  0.54716593555E+02  0.78654100308E+02  0.68657347122E+01  0.96059936596E+02  0.00000000000E+00 0. -1.
</event>
<event>
 7    1  0.6473813E-006  0.1408381E+03  0.7561462E-02  0.1212206E+00
          2   -1    0    0  501    0  0.00000000000E+00  0.00000000000E+00  0.20575627944E+03  0.20575627944E+03  0.00000000000E+00 0. -1.
         -2   -1    0    0    0  501 -0.00000000000E+00 -0.00000000000E+00 -0.13636274939E+03  0.13636274939E+03  0.00000000000E+00 0.  1.
         23    2    1    2    0    0 -0.11129664446E+03 -0.43218535859E+01 -0.25644580217E+02  0.16943568824E+03  0.12508071980E+03 0.  0.
          5    1    3    3  502    0 -0.69614261848E+02 -0.58784836743E+02 -0.39409950746E+02  0.99360047813E+02  0.41800000000E+01 0. -1.
         -5    1    3    3    0  502 -0.41682382615E+02  0.54462983157E+02  0.13765370529E+02  0.70075640423E+02  0.41800000000E+01 0. -1.
        -11    1    1    2    0    0  0.53751494251E+02  0.26693680479E+02  0.79873195389E+00  0.60020110666E+02  0.00000000000E+00 0.  1.
         11    1    1    2    0    0  0.57545150213E+02 -0.22371826893E+02  0.94239378317E+02  0.11266322993E+03  0.00000000000E+00 0. -1.
</event>
<event>
 7    1  0.6473813E-006  0.1260471E+03  0.7561462E-02  0.1233442E+00
          2   -1    0    0  501    0  0.00000000000E+00  0.00000000000E+00  0.10726752179E+03  0.10726752179E+03  0.00000000000E+00 0.  1.
         -2   -1    0    0    0  501 -0.00000000000E+00 -0.00000000000E+00 -0.22500597011E+03  0.22500597011E+03  0.00000000000E+00 0. -1.
         23    2    1    2    0    0  0.91286902814E+02 -0.48808480147E+02 -0.10784281557E+03  0.19491295211E+03  0.12508165202E+03 0.  0.
          5    1    3    3  502    0  0.62956040559E+02 -0.66881141957E+02 -0.11341566787E+02  0.92642612925E+02  0.41800000000E+01 0. -1.
         -5    1    3    3    0  502  0.28330862255E+02  0.18072661810E+02 -0.96501248785E+02  0.10227033919E+03  0.41800000000E+01 0. -1.
        -11    1    1    2    0    0  0.29697541867E+01  0.30029332417E+02  0.20591195678E+02  0.36531870809E+02  0.00000000000E+00 0.  1.
         11    1    1    2    0    0 -0.94256657001E+02  0.18779147730E+02 -0.30486828425E+02  0.10082866897E+03  0.00000000000E+00 0. -1.
</event>
<event>
 7    1  0.6473813E-006  0.1651868E+03  0.7561462E-02  0.1182962E+00
          2   -1    0    0  501    0  0.00000000000E+00  0.00000000000E+00  0.96554954064E+03  0.96554954064E+03  0.00000000000E+00 0. -1.
         -2   -1    0    0    0  501 -0.00000000000E+00 -0.00000000000E+00 -0.32075299676E+02  0.32075299676E+02  0.00000000000E+00 0.  1.
         23    2    1    2    0    0 -0.45748275858E+02  0.12976039025E+03  0.52116624348E+03  0.55334664488E+03  0.12509033711E+03 0.  0.
          5    1    3    3  502    0  0.33870289787E+02  0.70934807249E+01  0.15841387429E+03  0.16220339690E+03  0.41800000000E+01 0. -1.
         -5    1    3    3    0  502 -0.79618565645E+02  0.12266690952E+03  0.36275236919E+03  0.39114324798E+03  0.41800000000E+01 0. -1.
        -11    1    1    2    0    0 -0.11963024049E+02 -0.45787409469E+02  0.54183111163E+02  0.71940324892E+02  0.00000000000E+00 0.  1.
         11    1    1    2    0    0  0.57711299907E+02 -0.83972980778E+02  0.35812488632E+03  0.37233787055E+03  0.00000000000E+00 0. -1.
</event>
<event>
 7    1  0.6473813E-006  0.1083535E+03  0.7561462E-02  0.1263650E+00
          1   -1    0    0  501    0  0.00000000000E+00  0.00000000000E+00  0.95689583238E+02  0.95689583238E+02  0.00000000000E+00 0. -1.
         -1   -1    0    0    0  501 -0.00000000000E+00 -0.00000000000E+00 -0.18796660714E+03  0.18796660714E+03  0.00000000000E+00 0.  1.
         23    2    1    2    0    0  0.92752201779E+01 -0.54109749976E+02 -0.11003365001E+03  0.17538662959E+03  0.12505667097E+03 0.  0.
          5    1    3    3  502    0  0.56598443351E+02  0.48664315885E+01 -0.27101662303E+02  0.63079619892E+02  0.41800000000E+01 0.  1.
         -5    1    3    3    0  502 -0.47323223173E+02 -0.58976181564E+02 -0.82931987704E+02  0.11230700970E+03  0.41800000000E+01 0.  1.
        -11    1    1    2    0    0  0.35552491809E+01  0.66253737276E+02 -0.17687979950E+02  0.68666310040E+02  0.00000000000E+00 0.  1.
         11    1    1    2    0    0 -0.12830469359E+02 -0.12143987301E+02  0.35444606053E+02  0.39603250747E+02  0.00000000000E+00 0. -1.
</event>
<event>
 7    1  0.6473813E-006  0.9377240E+02  0.7561462E-02  0.1293965E+00
         -3   -1    0    0    0  501 -0.00000000000E+00  0.00000000000E+00  0.31063566091E+03  0.31063566091E+03  0.00000000000E+00 0.  1.
          3   -1    0    0  501    0  0.00000000000E+00 -0.00000000000E+00 -0.51963061876E+02  0.51963061876E+02  0.00000000000E+00 0. -1.
         23    2    1    2    0    0 -0.51015759343E+02  0.16573615453E+02  0.19969709552E+03  0.24166624099E+03  0.12508536944E+03 0.  0.
          5    1    3    3  502    0  0.20902059194E+02  0.42558698333E+02  0.12876638123E+03  0.13728216278E+03  0.41800000000E+01 0. -1.
         -5    1    3    3    0  502 -0.71917818536E+02 -0.25985082879E+02  0.70930714285E+02  0.10438407821E+03  0.41800000000E+01 0. -1.
        -11    1    1    2    0    0 -0.89140728037E+00 -0.11137226331E+02  0.67177996660E+02  0.68100775711E+02  0.00000000000E+00 0.  1.
         11    1    1    2    0    0  0.51907166623E+02 -0.54363891222E+01 -0.82024931444E+01  0.52831706080E+02  0.00000000000E+00 0. -1.
</event>
<event>
 7    1  0.6473813E-006  0.1024556E+03  0.7561462E-02  0.1275215E+00
          2   -1    0    0  501    0  0.00000000000E+00  0.00000000000E+00  0.43751610712E+03  0.43751610712E+03  0.00000000000E+00 0. -1.
         -2   -1    0    0    0  501 -0.00000000000E+00 -0.00000000000E+00 -0.47130768683E+02  0.47130768683E+02  0.00000000000E+00 0.  1.
         23    2    1    2    0    0 -0.43657850077E+02  0.69466810672E+02  0.13863836783E+03  0.20396420186E+03  0.12509657447E+03 0.  0.
          5    1    3    3  502    0  0.49055773479E+00 -0.20127502824E+02 -0.11521838208E+02  0.23570790664E+02  0.41800000000E+01 0. -1.
         -5    1    3    3    0  502 -0.44148407812E+02  0.89594313496E+02  0.15016020604E+03  0.18039341119E+03  0.41800000000E+01 0. -1.
        -11    1    1    2    0    0  0.30084771614E+02 -0.29353341417E+02  0.22857981354E+03  0.23241222707E+03  0.00000000000E+00 0. -1.
         11    1    1    2    0    0  0.13573078463E+02 -0.40113469255E+02  0.23167157059E+02  0.48270446867E+02  0.00000000000E+00 0.  1.
</event>
<event>
 7    1  0.6473813E-006  0.9385049E+02  0.7561462E-02  0.1293786E+00
         -2   -1    0    0    0  501 -0.00000000000E+00  0.00000000000E+00  0.51126908570E+02  0.51126908570E+02  0.00000000000E+00 0.  1.
          2   -1    0    0  501    0  0.00000000000E+00 -0.00000000000E+00 -0.29380749586E+03  0.29380749586E+03  0.00000000000E+00 0. -1.
         23    2    1    2    0    0 -0.44154202438E+02 -0.17985497396E+02 -0.88211267907E+02  0.16032329557E+03  0.12509700079E+03 0.  0.
          5    1    3    3  502    0  0.79978369747E+01  0.21247377220E+02  0.22181850340E+02  0.32014423617E+02  0.41800000000E+01 0.  1.
         -5    1    3    3    0  502 -0.52152039413E+02 -0.39232874617E+02 -0.11039311825E+03  0.12830887195E+03  0.41800000000E+01 0.  1.
        -11    1    1    2    0    0  0.42943894594E+02 -0.29257305172E+02 -0.98438253469E+02  0.11131153460E+03  0.00000000000E+00 0.  1.
         11    1    1    2    0    0  0.12103078438E+01  0.47242802568E+02 -0.56031065919E+02  0.73299574266E+02  0.00000000000E+00 0. -1.
</event>
<event>
 7    1  0.6473813E-006  0.9052713E+02  0.7561462E-02  0.1301580E+00
          2   -1    0    0  501    0  0.00000000000E+00  0.00000000000E+00  0.23934729177E+03  0.23934729177E+03  0.00000000000E+00 0.  1.
         -2   -1    0    0    0  501 -0.00000000000E+00 -0.00000000000E+00 -0.55931772288E+02  0.55931772288E+02  0.00000000000E+00 0. -1.
         23    2    1    2    0    0 -0.16563088478E+02 -0.22237239415E+02  0.69580656853E+02  0.14580183356E+03  0.12509147111E+03 0.  0.
          5    1    3    3  502    0  0.20213498001E+02  0.45935692912E+02  0.31338719694E+02  0.59314931819E+02  0.41800000000E+01 0. -1.
         -5    1    3    3    0  502 -0.36776586478E+02 -0.68172932327E+02  0.38241937160E+02  0.86486901741E+02  0.41800000000E+01 0. -1.
        -11    1    1    2    0    0  0.29350549111E+02  0.23064486268E+01 -0.36166267637E+01  0.29662340224E+02  0.00000000000E+00 0. -1.
         11    1    1    2    0    0 -0.12787460634E+02  0.19930790788E+02  0.11745148940E+03  0.11981489028E+03  0.00000000000E+00 0.  1.
</event>
<event>
 7    1  0.6473813E-006  0.1096589E+03  0.7561462E-02  0.1261203E+00
          2   -1    0    0  501    0  0.00000000000E+00  0.00000000000E+00  0.36948714255E+03  0.36948714255E+03  0.00000000000E+00 0. -1.
         -2   -1    0    0    0  501 -0.00000000000E+00 -0.00000000000E+00 -0.42288452925E+02  0.42288452925E+02  0.00000000000E+00 0.  1.
         23    2    1    2    0    0  0.21500598062E+02 -0.41987901650E+02  0.11759460313E+03  0.17815006018E+03  0.12523455456E+03 0.  0.
          5    1    3    3  502    0 -0.45606698166E+02 -0.57201366241E-01  0.75804720136E+02  0.88565242531E+02  0.41800000000E+01 0.  1.
         -5    1    3    3    0  502  0.67107296228E+02 -0.41930700283E+02  0.41789882997E+02  0.89584817654E+02  0.41800000000E+01 0.  1.
        -11    1    1    2    0    0 -0.39010068823E+02  0.58433040556E+02  0.10527189632E+03  0.12656373040E+03  0.00000000000E+00 0.  1.
         11    1    1    2    0    0  0.17509470762E+02 -0.16445138906E+02  0.10433219017E+03  0.10706180489E+03  0.00000000000E+00 0. -1.
</event>
<event>
 7    1  0.6473813E-006  0.1289286E+03  0.7561462E-02  0.1229054E+00
         -1   -1    0    0    0  501 -0.00000000000E+00  0.00000000000E+00  0.44813173458E+03  0.44813173458E+03  0.00000000000E+00 0.  1.
          1   -1    0    0  501    0  0.00000000000E+00 -0.00000000000E+00 -0.69970751066E+02  0.69970751066E+02  0.00000000000E+00 0. -1.
         23    2    1    2    0    0  0.65701849179E+02 -0.40198299870E+02  0.37144772964E+03  0.39944087117E+03  0.12508779881E+03 0.  0.
          5    1    3    3  502    0 -0.36488122857E+02 -0.18942734563E+02  0.12868328548E+03  0.13515572745E+03  0.41800000000E+01 0. -1.
         -5    1    3    3    0  502  0.10218997204E+03 -0.21255565307E+02  0.24276444416E+03  0.26428514372E+03  0.41800000000E+01 0. -1.
        -11    1    1    2    0    0 -0.63297082618E+02 -0.80118407524E+01  0.22842735591E+02  0.67767992662E+02  0.00000000000E+00 0.  1.
         11    1    1    2    0    0 -0.24047665610E+01  0.48210140623E+02 -0.16129481714E+02  0.50893621815E+02  0.00000000000E+00 0. -1.
</event>
<event>
 7    1  0.6473813E-006  0.1020722E+03  0.7561462E-02  0.1275998E+00
          1   -1    0    0  501    0  0.00000000000E+00  0.00000000000E+00  0.17751820229E+03  0.17751820229E+03  0.00000000000E+00 0. -1.
         -1   -1    0    0    0  501 -0.00000000000E+00 -0.00000000000E+00 -0.34601276349E+03  0.34601276349E+03  0.00000000000E+00 0.  1.
         23    2    1    2    0    0 -0.36002930207E+02  0.70795407578E+02 -0.30881445896E+03  0.33810296437E+03  0.11242350169E+03 0.  0.
          5    1    3    3  502    0 -0.47587883834E+00  0.52745552813E+02 -0.40031539632E+02  0.66349953786E+02  0.41800000000E+01 0. -1.
         -5    1    3    3    0  502 -0.35527051368E+02  0.18049854765E+02 -0.26878291933E+03  0.27175301058E+03  0.41800000000E+01 0.  1.
        -11    1    1    2    0    0  0.89055083474E+01 -0.81531577239E+02  0.13149188812E+03  0.15497361971E+03  0.00000000000E+00 0. -1.
         11    1    1    2    0    0  0.27097421859E+02  0.10736169661E+02  0.88280096388E+01  0.30454381698E+02  0.00000000000E+00 0.  1.
</event>
<event>
 7    1  0.6473813E-006  0.1036700E+03  0.7561462E-02  0.1272762E+00
         -2   -1    0    0    0  501 -0.00000000000E+00  0.00000000000E+00  0.10734742472E+03  0.10734742472E+03  0.00000000000E+00 0.  1.
          2   -1    0    0  501    0  0.00000000000E+00 -0.00000000000E+00 -0.13941433527E+03  0.13941433527E+03  0.00000000000E+00 0. -1.
         23    2    1    2    0    0 -0.36900417105E+02  0.43349450729E+02 -0.20630590599E+02  0.13897466112E+03  0.12509004558E+03 0.  0.
          5    1    3    3  502    0 -0.73154998358E+02  0.28207395096E+02  0.21307165985E+02  0.81355876525E+02  0.41800000000E+01 0.  1.
         -5    1    3    3    0  502  0.36254581253E+02  0.15142055633E+02 -0.41937756584E+02  0.57618784593E+02  0.41800000000E+01 0.  1.
        -11    1    1    2    0    0  0.27284192515E+01  0.18473580559E+02  0.22649156287E+02  0.29354756527E+02  0.00000000000E+00 0.  1.
         11    1    1    2    0    0  0.34171997853E+02 -0.61823031288E+02 -0.34085476243E+02  0.78432342344E+02  0.00000000000E+00 0. -1.
</event>
<event>
 6    1  0.6473813E-006  0.2162703E+03  0.7561462E-02  0.1136695E+00
          2   -1    0    0  501    0  0.00000000000E+00  0.00000000000E+00  0.62126328238E+03  0.62126328238E+03  0.00000000000E+00 0. -1.
         -2   -1    0    0    0  501 -0.00000000000E+00 -0.00000000000E+00 -0.11349600950E+03  0.11349600950E+03  0.00000000000E+00 0.  1.
          5    1    1    2  502    0  0.17646758607E+03 -0.74973927164E+01  0.11448011590E+03  0.21052360715E+03  0.41800000000E+01 0. -1.
         -5    1    1    2    0  502 -0.13796418970E+03  0.52886944314E+02  0.37929247256E+02  0.15260159473E+03  0.41800000000E+01 0.  1.
        -11    1    1    2    0    0  0.29142938554E+02 -0.59381229580E+01  0.79695104777E+02  0.85063987076E+02  0.00000000000E+00 0.  1.
         11    1    1    2    0    0 -0.67646334928E+02 -0.39451428639E+02  0.27566280496E+03  0.28657010292E+03  0.00000000000E+00 0. -1.
</event>
<event>
 7    1  0.6473813E-006  0.1505007E+03  0.7561462E-02  0.1199859E+00
         -4   -1    0    0    0  501 -0.00000000000E+00  0.00000000000E+00  0.29036628059E+03  0.29036628059E+03  0.00000000000E+00 0.  1.
          4   -1    0    0  501    0  0.00000000000E+00 -0.00000000000E+00 -0.92589217499E+02  0.92589217499E+02  0.00000000000E+00 0. -1.
         23    2    1    2    0    0 -0.90867701588E+02 -0.80133271406E+02  0.99379037049E+02  0.20050588892E+03  0.12509251820E+03 0.  0.
          5    1    3    3  502    0 -0.11444290442E+03 -0.29902218098E+02  0.63812156379E+02  0.13446480848E+03  0.41800000000E+01 0. -1.
         -5    1    3    3    0  502  0.23575202830E+02 -0.50231053309E+02  0.35566880670E+02  0.66041080439E+02  0.41800000000E+01 0. -1.
        -11    1    1    2    0    0  0.59511158376E+02  0.27108302427E+02 -0.11246316311E+01  0.65404149930E+02  0.00000000000E+00 0. -1.
         11    1    1    2    0    0  0.31356543211E+02  0.53024968980E+02  0.99522657669E+02  0.11704545923E+03  0.00000000000E+00 0.  1.
</event>
<event>
 7    1  0.6473813E-006  0.1127269E+03  0.7561462E-02  0.1255602E+00
          2   -1    0    0  501    0  0.00000000000E+00  0.00000000000E+00  0.12084210113E+03  0.12084210113E+03  0.00000000000E+00 0. -1.
         -2   -1    0    0    0  501 -0.00000000000E+00 -0.00000000000E+00 -0.12528995373E+03  0.12528995373E+03  0.00000000000E+00 0.  1.
         23    2    1    2    0    0 -0.51553559955E+02 -0.97839419538E+01 -0.32705201179E+02  0.13953026264E+03  0.12508224871E+03 0.  0.
          5    1    3    3  502    0  0.36043333771E+02 -0.97540164167E+01  0.14091914796E+02  0.40128757870E+02  0.41800000000E+01 0. -1.
         -5    1    3    3    0  502 -0.87596893726E+02 -0.29925537091E-01 -0.46797115975E+02  0.99401504765E+02  0.41800000000E+01 0. -1.
        -11    1    1    2    0    0  0.14067073006E+02 -0.37378919144E+02 -0.27897742183E+00  0.39939253470E+02  0.00000000000E+00 0.  1.
         11    1    1    2    0    0  0.37486486948E+02  0.47162861098E+02  0.28536326005E+02  0.66662538750E+02  0.00000000000E+00 0. -1.
</event>
<event>
 7    1  0.6473813E-006  0.1162982E+03  0.7561462E-02  0.1249332E+00
          1   -1    0    0  501    0  0.00000000000E+00  0.00000000000E+00  0.86708687858E+02  0.86708687858E+02  0.00000000000E+00 0. -1.
         -1   -1    0    0    0  501 -0.00000000000E+00 -0.00000000000E+00 -0.20544798782E+03  0.20544798782E+03  0.00000000000E+00 0.  1.
         23    2    1    2    0    0  0.79912216325E+02 -0.21377655106E+02 -0.98273150405E+02  0.17930130631E+03  0.12509348464E+03 0.  0.
          5    1    3    3  502    0  0.28120365028E+02  0.46515993164E+02 -0.82267093326E+01  0.55132963786E+02  0.41800000000E+01 0.  1.
         -5    1    3    3    0  502  0.51791851297E+02 -0.67893648271E+02 -0.90046441073E+02  0.12416834253E+03  0.41800000000E+01 0.  1.
        -11    1    1    2    0    0 -0.45705169639E+02 -0.92948864045E+01 -0.41401706157E+02  0.62365525074E+02  0.00000000000E+00 0.  1.
         11    1    1    2    0    0 -0.34207046686E+02  0.30672541511E+02  0.20935556605E+02  0.50489844287E+02  0.00000000000E+00 0. -1.
</event>
<event>
 6    1  0.6473813E-006  0.1001371E+03  0.7561462E-02  0.1280008E+00
          4   -1    0    0  501    0  0.00000000000E+00  0.00000000000E+00  0.21059962669E+03  0.21059962669E+03  0.00000000000E+00 0. -1.
         -4   -1    0    0    0  501 -0.00000000000E+00 -0.00000000000E+00 -0.80212563755E+02  0.80212563755E+02  0.00000000000E+00 0.  1.
          5    1    1    2  502    0  0.25174438193E+02  0.44520400842E+02  0.74628254701E+02  0.90568577494E+02  0.41800000000E+01 0. -1.
         -5    1    1    2    0  502 -0.49432915756E+02 -0.22660056549E+02 -0.36479677911E+02  0.65615018277E+02  0.41800000000E+01 0.  1.
        -11    1    1    2    0    0 -0.10735647367E+02  0.29996290757E+02  0.14946216996E+02  0.35191206090E+02  0.00000000000E+00 0. -1.
         11    1    1    2    0    0  0.34994124930E+02 -0.51856635050E+02  0.77292269149E+02  0.99437388585E+02  0.00000000000E+00 0.  1.
</event>
<event>
 7    1  0.6473813E-006  0.8866736E+02  0.7561462E-02  0.1306111E+00
          2   -1    0    0  501    0  0.00000000000E+00  0.00000000000E+00  0.28041446679E+03  0.28041446679E+03  0.00000000000E+00 0.  1.
         -2   -1    0    0    0  501 -0.00000000000E+00 -0.00000000000E+00 -0.67386427340E+02  0.67386427340E+02  0.00000000000E+00 0. -1.
         23    2    1    2    0    0 -0.44525623820E+02  0.14113865658E+02  0.28164871350E+02  0.13646495749E+03  0.12509073612E+03 0.  0.
          5    1    3    3  502    0 -0.43342599724E+02 -0.32332167930E+02  0.59314725416E+02  0.80372004361E+02  0.41800000000E+01 0. -1.
         -5    1    3    3    0  502 -0.11830240958E+01  0.46446033588E+02 -0.31149854066E+02  0.56092953126E+02  0.41800000000E+01 0. -1.
        -11    1    1    2    0    0  0.22715723465E+02 -0.37895880342E+02  0.17029161587E+03  0.17592991864E+03  0.00000000000E+00 0.  1.
         11    1    1    2    0    0  0.21809900354E+02  0.23782014684E+02  0.14571552229E+02  0.35406017995E+02  0.00000000000E+00 0. -1.
</event>
<event>
 7    1  0.6473813E-006  0.1055695E+03  0.7561462E-02  0.1269002E+00
         -2   -1    0    0    0  501 -0.00000000000E+00  0.00000000000E+00  0.51665076242E+02  0.51665076242E+02  0.00000000000E+00 0.  1.
          2   -1    0    0  501    0  0.00000000000E+00 -0.00000000000E+00 -0.33908114510E+03  0.33908114510E+03  0.00000000000E+00 0. -1.
         23    2    1    2    0    0  0.62010772608E+02  0.11776173433E+02 -0.97620597544E+02  0.17076590609E+03  0.12508876623E+03 0.  0.
          5    1    3    3  502    0 -0.73423214936E+01 -0.32824885715E+02 -0.79236007267E+02  0.86181204765E+02  0.41800000000E+01 0. -1.
         -5    1    3    3    0  502  0.69353094102E+02  0.44601059148E+02 -0.18384590277E+02  0.84584701325E+02  0.41800000000E+01 0. -1.
        -11    1    1    2    0    0  0.45560663124E+01  0.20289202014E+02 -0.56259790021E+01  0.21542077391E+02  0.00000000000E+00 0.  1.
         11    1    1    2    0    0 -0.66566838921E+02 -0.32065375447E+02 -0.18416949231E+03  0.19843823786E+03  0.00000000000E+00 0. -1.
</event>
<event>
 7    1  0.6473813E-006  0.1422185E+03  0.7561462E-02  0.1210375E+00
          1   -1    0    0  501    0  0.00000000000E+00  0.00000000000E+00  0.63520130860E+03  0.63520130860E+03  0.00000000000E+00 0. -1.
         -1   -1    0    0    0  501 -0.00000000000E+00 -0.00000000000E+00 -0.34688008550E+02  0.34688008550E+02  0.00000000000E+00 0.  1.
         23    2    1    2    0    0  0.10025066795E+03 -0.13006042874E+02  0.30708391352E+03  0.34665228926E+03  0.12509167092E+03 0.  0.
          5    1    3    3  502    0  0.15211487316E+02 -0.52649346845E+02  0.18273127949E+03  0.19081807035E+03  0.41800000000E+01 0.  1.
         -5    1    3    3    0  502  0.85039180636E+02  0.39643303971E+02  0.12435263403E+03  0.15583421891E+03  0.41800000000E+01 0.  1.
        -11    1    1    2    0    0 -0.15337215064E+02  0.42880604629E+02  0.10131467289E+03  0.11107942817E+03  0.00000000000E+00 0. -1.
         11    1    1    2    0    0 -0.84913452888E+02 -0.29874561755E+02  0.19211471365E+03  0.21215759973E+03  0.00000000000E+00 0.  1.
</event>
<event>
 7    1  0.6473813E-006  0.9368268E+02  0.7561462E-02  0.1294171E+00
          1   -1    0    0  501    0  0.00000000000E+00  0.00000000000E+00  0.24329930414E+02  0.24329930414E+02  0.00000000000E+00 0. -1.
         -1   -1    0    0    0  501 -0.00000000000E+00 -0.00000000000E+00 -0.79020958511E+03  0.79020958511E+03  0.00000000000E+00 0.  1.
         23    2    1    2    0    0  0.35994195201E+02  0.43519967226E+02 -0.60248505673E+03  0.61791942832E+03  0.12508639686E+03 0.  0.
          5    1    3    3  502    0 -0.29024404660E+02  0.23879157497E+02 -0.44184804768E+03  0.44346341435E+03  0.41800000000E+01 0.  1.
         -5    1    3    3    0  502  0.65018599861E+02  0.19640809729E+02 -0.16063700906E+03  0.17445601398E+03  0.41800000000E+01 0.  1.
        -11    1    1    2    0    0 -0.27555421151E+02 -0.58297888686E+02 -0.16718172927E+03  0.17918614807E+03  0.00000000000E+00 0.  1.
         11    1    1    2    0    0 -0.84387740502E+01  0.14777921460E+02  0.37871312986E+01  0.17433939131E+02  0.00000000000E+00 0. -1.
</event>
<event>
 7    1  0.6473813E-006  0.1087928E+03  0.7561462E-02  0.1262822E+00
          1   -1    0    0  501    0  0.00000000000E+00  0.00000000000E+00  0.65301115205E+03  0.65301115205E+03  0.00000000000E+00 0. -1.
         -1   -1    0    0    0  501 -0.00000000000E+00 -0.00000000000E+00 -0.29753618231E+02  0.29753618231E+02  0.00000000000E+00 0.  1.
         23    2    1    2    0    0  0.30765862382E+01  0.88997806078E+02  0.32951266585E+03  0.36353363380E+03  0.12509209039E+03 0.  0.
          5    1    3    3  502    0 -0.66740051782E+01  0.53105170215E+01 -0.99446019789E+01  0.13751779691E+02  0.41800000000E+01 0.  1.
         -5    1    3    3    0  502  0.97505914164E+01  0.83687289057E+02  0.33945726783E+03  0.34978185411E+03  0.41800000000E+01 0.  1.
        -11    1    1    2    0    0 -0.76182336053E+01  0.16479544966E+02  0.29028124104E+02  0.34238061781E+02  0.00000000000E+00 0. -1.
         11    1    1    2    0    0  0.45416473671E+01 -0.10547735104E+03  0.26471674387E+03  0.28499307471E+03  0.00000000000E+00 0.  1.
</event>
<event>
 7    1  0.6473813E-006  0.1989303E+03  0.7561462E-02  0.1150645E+00
         -1   -1    0    0    0  501 -0.00000000000E+00  0.00000000000E+00  0.71928195700E+02  0.71928195700E+02  0.00000000000E+00 0.  1.
          1   -1    0    0  501    0  0.00000000000E+00 -0.00000000000E+00 -0.68947564066E+03  0.68947564066E+03  0.00000000000E+00 0. -1.
         23    2    1    2    0    0  0.80925054250E+02 -0.14859650040E+03 -0.15816015705E+03  0.26323188450E+03  0.12508639178E+03 0.  0.
          5    1    3    3  502    0  0.67103719727E+02 -0.66519567419E+01 -0.55964446558E+02  0.87730550028E+02  0.41800000000E+01 0. -1.
         -5    1    3    3    0  502  0.13821334524E+02 -0.14194454365E+03 -0.10219571049E+03  0.17550133448E+03  0.41800000000E+01 0. -1.
        -11    1    1    2    0    0 -0.96811839841E+02  0.11406483398E+03 -0.40556753657E+03  0.43228271468E+03  0.00000000000E+00 0. -1.
         11    1    1    2    0    0  0.15886785590E+02  0.34531666418E+02 -0.53819751341E+02  0.65889237181E+02  0.00000000000E+00 0.  1.
</event>
<event>
 7    1  0.6473813E-006  0.9978341E+02  0.7561462E-02  0.1280752E+00
          2   -1    0    0  501    0  0.00000000000E+00  0.00000000000E+00  0.21490438331E+03  0.21490438331E+03  0.00000000000E+00 0.  1.
         -2   -1    0    0    0  501 -0.00000000000E+00 -0.00000000000E+00 -0.10255545168E+03  0.10255545168E+03  0.00000000000E+00 0. -1.
         23    2    1    2    0    0 -0.30119298741E+01 -0.70169624306E+02 -0.17209118935E+02  0.14448605388E+03  0.12508884080E+03 0.  0.
          5    1    3    3  502    0  0.32243959486E+02 -0.76055750986E+02  0.27433158286E+02  0.87144711572E+02  0.41800000000E+01 0.  1.
         -5    1    3    3    0  502 -0.35255889360E+02  0.58861266798E+01 -0.44642277221E+02  0.57341342305E+02  0.41800000000E+01 0.  1.
        -11    1    1    2    0    0  0.17812291319E+02  0.60783290531E+02  0.26873901544E+02  0.68804743397E+02  0.00000000000E+00 0. -1.
         11    1    1    2    0    0 -0.14800361445E+02  0.93863337757E+01  0.10268414901E+03  0.10416903772E+03  0.00000000000E+00 0.  1.
</event>
<event>
 7    1  0.6473813E-006  0.1048595E+03  0.7561462E-02  0.1270397E+00
          3   -1    0    0  501    0  0.00000000000E+00  0.00000000000E+00  0.13343880108E+03  0.13343880108E+03  0.00000000000E+00 0. -1.
         -3   -1    0    0    0  501 -0.00000000000E+00 -0.00000000000E+00 -0.94009098213E+02  0.94009098213E+02  0.00000000000E+00 0.  1.
         23    2    1    2    0    0  0.25737251495E+02  0.14894010764E+01  0.12100039362E+02  0.12828609338E+03  0.12508511651E+03 0.  0.
          5    1    3    3  502    0 -0.44440966101E+02 -0.25609678677E+02  0.12425599496E+02  0.52940750209E+02  0.41800000000E+01 0.  1.
         -5    1    3    3    0  502  0.70178217595E+02  0.27099079753E+02 -0.32556013406E+00  0.75345343172E+02  0.41800000000E+01 0.  1.
        -11    1    1    2    0    0 -0.84945971953E+01 -0.39907910076E+02 -0.10957689782E+02  0.42247726962E+02  0.00000000000E+00 0.  1.
         11    1    1    2    0    0 -0.17242654299E+02  0.38418508999E+02  0.38287353287E+02  0.56914078950E+02  0.00000000000E+00 0. -1.
</event>
<event>
 7    1  0.6473813E-006  0.1022693E+03  0.7561462E-02  0.1275595E+00
         -2   -1    0    0    0  501 -0.00000000000E+00  0.00000000000E+00  0.13669238931E+02  0.13669238931E+02  0.00000000000E+00 0.  1.
          2   -1    0    0  501    0  0.00000000000E+00 -0.00000000000E+00 -0.94016728757E+03  0.94016728757E+03  0.00000000000E+00 0. -1.
         23    2    1    2    0    0  0.26560705367E+02 -0.20939875644E+02 -0.51754271535E+03  0.53351913917E+03  0.12509300616E+03 0.  0.
          5    1    3    3  502    0  0.67413225018E+02 -0.18792259664E+02 -0.44184944899E+03  0.44737691034E+03  0.41800000000E+01 0. -1.
         -5    1    3    3    0  502 -0.40852519651E+02 -0.21476159796E+01 -0.75693266358E+02  0.86142228832E+02  0.41800000000E+01 0. -1.
        -11    1    1    2    0    0 -0.58734735572E+02  0.12600853515E+02 -0.31448241366E+03  0.32016829820E+03  0.00000000000E+00 0.  1.
         11    1    1    2    0    0  0.32174030205E+02  0.83390221288E+01 -0.94472919625E+02  0.10014908912E+03  0.00000000000E+00 0. -1.
</event>
<event>
 6    1  0.6473813E-006  0.2359751E+03  0.7561462E-02  0.1122504E+00
         -2   -1    0    0    0  501 -0.00000000000E+00  0.00000000000E+00  0.41885501117E+02  0.41885501117E+02  0.00000000000E+00 0.  1.
          2   -1    0    0  501    0  0.00000000000E+00 -0.00000000000E+00 -0.16995667849E+04  0.16995667849E+04  0.00000000000E+00 0. -1.
          5    1    1    2  502    0  0.12655943656E+03 -0.16488109328E+02 -0.49580912365E+03  0.51198955871E+03  0.41800000000E+01 0. -1.
         -5    1    1    2    0  502  0.72043236093E+02 -0.81688290024E+02 -0.13068779561E+03  0.17017631126E+03  0.41800000000E+01 0.  1.
        -11    1    1    2    0    0 -0.44166045308E+02 -0.11735653010E+02 -0.11598983521E+03  0.12466758593E+03  0.00000000000E+00 0.  1.
         11    1    1    2    0    0 -0.15443662735E+03  0.10991205236E+03 -0.91519452930E+03  0.93461883010E+03  0.00000000000E+00 0. -1.
</event>
<event>
 7    1  0.6473813E-006  0.1163942E+03  0.7561462E-02  0.1249167E+00
          1   -1    0    0  501    0  0.00000000000E+00  0.00000000000E+00  0.33561069386E+02  0.33561069386E+02  0.00000000000E+00 0. -1.
         -1   -1    0    0    0  501 -0.00000000000E+00 -0.00000000000E+00 -0.71271397262E+03  0.71271397262E+03  0.00000000000E+00 0.  1.
         23    2    1    2    0    0  0.99485317283E+02 -0.20224521777E+02 -0.43971542229E+03  0.46829942689E+03  0.12509332912E+03 0.  0.
          5    1    3    3  502    0  0.48252157194E+02 -0.19277256837E+02 -0.41099391434E+02  0.66381591434E+02  0.41800000000E+01 0. -1.
         -5    1    3    3    0  502  0.51233160089E+02 -0.94726493987E+00 -0.39861603086E+03  0.40191783546E+03  0.41800000000E+01 0. -1.
        -11    1    1    2    0    0 -0.62488429381E+02 -0.27993187492E+02 -0.18159057526E+03  0.19407101632E+03  0.00000000000E+00 0.  1.
         11    1    1    2    0    0 -0.36996887902E+02  0.48217709269E+02 -0.57846905683E+02  0.83904598793E+02  0.00000000000E+00 0. -1.
</event>
<event>
 7    1  0.6473813E-006  0.6946442E+02  0.7561462E-02  0.1361924E+00
          2   -1    0    0  501    0  0.00000000000E+00  0.00000000000E+00  0.39770638358E+03  0.39770638358E+03  0.00000000000E+00 0. -1.
         -2   -1    0    0    0  501 -0.00000000000E+00 -0.00000000000E+00 -0.35117869349E+02  0.35117869349E+02  0.00000000000E+00 0.  1.
         23    2    1    2    0    0  0.23867260413E+02  0.79869729884E+01  0.11361308325E+03  0.16654017093E+03  0.11913965751E+03 0.  0.
          5    1    3    3  502    0  0.13379694751E+02  0.24350541886E+02  0.13467669362E+03  0.13757634000E+03  0.41800000000E+01 0. -1.
         -5    1    3    3    0  502  0.10487565662E+02 -0.16363568898E+02 -0.21063610374E+02  0.28963830938E+02  0.41800000000E+01 0.  1.
        -11    1    1    2    0    0 -0.40368540499E+02 -0.38804226863E+02  0.11625585591E+03  0.12903802198E+03  0.00000000000E+00 0.  1.
         11    1    1    2    0    0  0.16501280086E+02  0.30817253874E+02  0.13271957508E+03  0.13724606001E+03  0.00000000000E+00 0. -1.
</event>
<event>
 7    1  0.6473813E-006  0.9871879E+02  0.7561462E-02  0.1283013E+00
         -1   -1    0    0    0  501 -0.00000000000E+00  0.00000000000E+00  0.42178876341E+03  0.42178876341E+03  0.00000000000E+00 0.  1.
          1   -1    0    0  501    0  0.00000000000E+00 -0.00000000000E+00 -0.44324742349E+02  0.44324742349E+02  0.00000000000E+00 0. -1.
         23    2    1    2    0    0  0.65490840697E+02 -0.12088284729E+00  0.28506278533E+03  0.31811380635E+03  0.12508611987E+03 0.  0.
          5    1    3    3  502    0  0.33340332135E+02  0.24954066499E+02  0.27184609332E+03  0.27504918476E+03  0.41800000000E+01 0. -1.
         -5    1    3    3    0  502  0.32150508561E+02 -0.25074949346E+02  0.13216692008E+02  0.43064621595E+02  0.41800000000E+01 0. -1.
        -11    1    1    2    0    0 -0.48945388323E+02 -0.45031255573E+02  0.43843884673E+02  0.79660223699E+02  0.00000000000E+00 0.  1.
         11    1    1    2    0    0 -0.16545452374E+02  0.45152138420E+02  0.48557351061E+02  0.68339475710E+02  0.00000000000E+00 0. -1.
</event>
<event>
 7    1  0.6473813E-006  0.1271029E+03  0.7561462E-02  0.1231819E+00
         -2   -1    0    0    0  501 -0.00000000000E+00  0.00000000000E+00  0.33245874153E+02  0.33245874153E+02  0.00000000000E+00 0.  1.
          2   -1    0    0  501    0  0.00000000000E+00 -0.00000000000E+00 -0.70974345697E+03  0.70974345697E+03  0.00000000000E+00 0. -1.
         23    2    1    2    0    0 -0.97528884122E+02  0.21442013248E+01 -0.24773323901E+03  0.29416589779E+03  0.12508132105E+03 0.  0.
          5    1    3    3  502    0 -0.10181531666E+03 -0.18730629462E+02 -0.97170138020E+02  0.14204472292E+03  0.41800000000E+01 0.  1.
         -5    1    3    3    0  502  0.42864325369E+01  0.20874830786E+02 -0.15056310099E+03  0.15212117487E+03  0.41800000000E+01 0.  1.
        -11    1    1    2    0    0  0.11319085498E+03 -0.24185914123E+01 -0.40362655514E+03  0.41920450290E+03  0.00000000000E+00 0. -1.
         11    1    1    2    0    0 -0.15661970857E+02  0.27439008747E+00 -0.25137788664E+02  0.29618930433E+02  0.00000000000E+00 0.  1.
</event>
<event>
 7    1  0.6473813E-006  0.3617092E+03  0.7561462E-02  0.1057909E+00
         -1   -1    0    0    0  501 -0.00000000000E+00  0.00000000000E+00  0.18974757585E+03  0.18974757585E+03  0.00000000000E+00 0.  1.
          1   -1    0    0  501    0  0.00000000000E+00 -0.00000000000E+00 -0.72224944177E+03  0.72224944177E+03  0.00000000000E+00 0. -1.
         23    2    1    2    0    0  0.34173898157E+03 -0.73772912062E+02 -0.20345190806E+03  0.42339959693E+03  0.12508623308E+03 0.  0.
          5    1    3    3  502    0  0.57156772527E+02  0.34218551327E+02 -0.31946850909E+02  0.73999186372E+02  0.41800000000E+01 0.  1.
         -5    1    3    3    0  502  0.28458220905E+03 -0.10799146339E+03 -0.17150505715E+03  0.34940041056E+03  0.41800000000E+01 0.  1.
        -11    1    1    2    0    0 -0.30974025854E+03  0.53359179736E+02 -0.25254199719E+03  0.40319187760E+03  0.00000000000E+00 0.  1.
         11    1    1    2    0    0 -0.31998723038E+02  0.20413732326E+02 -0.76507960680E+02  0.85405543093E+02  0.00000000000E+00 0. -1.
</event>
<event>
 7    1  0.6473813E-006  0.1155415E+03  0.7561462E-02  0.1250639E+00
         -1   -1    0    0    0  501 -0.00000000000E+00  0.00000000000E+00  0.17105084520E+02  0.17105084520E+02  0.00000000000E+00 0.  1.
          1   -1    0    0  501    0  0.00000000000E+00 -0.00000000000E+00 -0.78280272998E+03  0.78280272998E+03  0.00000000000E+00 0. -1.
         23    2    1    2    0    0 -0.40441768802E+02  0.38253886312E+01 -0.43152347894E+03  0.45113324013E+03  0.12513399703E+03 0.  0.
          5    1    3    3  502    0  0.43747161973E+02 -0.11844281751E+02 -0.16471699960E+03  0.17088962387E+03  0.41800000000E+01 0. -1.
         -5    1    3    3    0  502 -0.84188930775E+02  0.15669670382E+02 -0.26680647934E+03  0.28024361626E+03  0.41800000000E+01 0. -1.
        -11    1    1    2    0    0  0.64515471008E+02 -0.23580797409E+02 -0.23349641500E+03  0.24339037743E+03  0.00000000000E+00 0.  1.
         11    1    1    2    0    0 -0.24073702206E+02  0.19755408777E+02 -0.10067775152E+03  0.10538419694E+03  0.00000000000E+00 0. -1.
</event>
<event>
 7    1  0.6473813E-006  0.9500792E+02  0.7561462E-02  0.1291158E+00
         -1   -1    0    0    0  501 -0.00000000000E+00  0.00000000000E+00  0.75014484594E+02  0.75014484594E+02  0.00000000000E+00 0.  1.
          1   -1    0    0  501    0  0.00000000000E+00 -0.00000000000E+00 -0.18894017506E+03  0.18894017506E+03  0.00000000000E+00 0. -1.
         23    2    1    2    0    0  0.22200228912E+02 -0.86542643019E+01 -0.16619307535E+02  0.12842506385E+03  0.12509615977E+03 0.  0.
          5    1    3    3  502    0  0.65815897636E+02  0.62794006335E+01  0.20220911636E+02  0.69264138783E+02  0.41800000000E+01 0.  1.
         -5    1    3    3    0  502 -0.43615668724E+02 -0.14933664935E+02 -0.36840219171E+02  0.59160925071E+02  0.41800000000E+01 0.  1.
        -11    1    1    2    0    0  0.27314677355E+02  0.55026756195E+01 -0.18204967131E+01  0.27922844523E+02  0.00000000000E+00 0.  1.
         11    1    1    2    0    0 -0.49514906266E+02  0.31515886824E+01 -0.95485886222E+02  0.10760675128E+03  0.00000000000E+00 0. -1.
</event>
<event>
 7    1  0.9905200E-006  0.2449373E+03  0.7561462E-02  0.1116547E+00
          2   -1    0    0  501    0  0.00000000000E+00  0.00000000000E+00  0.11288179350E+04  0.11288179350E+04  0.00000000000E+00 0. -1.
         -2   -1    0    0    0  501 -0.00000000000E+00 -0.00000000000E+00 -0.66973717775E+02  0.66973717775E+02  0.00000000000E+00 0.  1.
         23    2    1    2    0    0  0.26549885812E+01  0.24230847778E+03  0.39076506923E+03  0.47651374107E+03  0.12509020237E+03 0.  0.
          5    1    3    3  502    0  0.13658754974E+02  0.47370551151E+02  0.19037890231E+03  0.19670315084E+03  0.41800000000E+01 0. -1.
         -5    1    3    3    0  502 -0.11003766393E+02  0.19493792663E+03  0.20038616692E+03  0.27981059023E+03  0.41800000000E+01 0. -1.
        -11    1    1    2    0    0 -0.17435834652E+02 -0.69084081305E+02  0.10338330277E+03  0.12555765970E+03  0.00000000000E+00 0.  1.
         11    1    1    2    0    0  0.14780846070E+02 -0.17322439648E+03  0.56769584526E+03  0.59372025203E+03  0.00000000000E+00 0. -1.
</event>
<event>
 7    1  0.6473813E-006  0.8710751E+02  0.7561462E-02  0.1310011E+00
         -1   -1    0    0    0  501 -0.00000000000E+00  0.00000000000E+00  0.30226928184E+02  0.30226928184E+02  0.00000000000E+00 0.  1.
          1   -1    0    0  501    0  0.00000000000E+00 -0.00000000000E+00 -0.39579360238E+03  0.39579360238E+03  0.00000000000E+00 0. -1.
         23    2    1    2    0    0  0.13450697177E+02  0.12545197105E+02 -0.20048553482E+03  0.23702307933E+03  0.12508871747E+03 0.  0.
          5    1    3    3  502    0 -0.43038698623E+02  0.37284683001E+02 -0.56474779424E+02  0.80307846918E+02  0.41800000000E+01 0.  1.
         -5    1    3    3    0  502  0.56489395801E+02 -0.24739485896E+02 -0.14401075540E+03  0.15671523242E+03  0.41800000000E+01 0.  1.
        -11    1    1    2    0    0  0.71732640072E+01 -0.28401594953E+02 -0.15978622893E+03  0.16244920827E+03  0.00000000000E+00 0. -1.
         11    1    1    2    0    0 -0.20623961185E+02  0.15856397848E+02 -0.52949104428E+01  0.26548242960E+02  0.00000000000E+00 0.  1.
</event>
<event>
 7    1  0.6473813E-006  0.1135276E+03  0.7561462E-02  0.1254173E+00
         -1   -1    0    0    0  501 -0.00000000000E+00  0.00000000000E+00  0.53355569631E+02  0.53355569631E+02  0.00000000000E+00 0.  1.
          1   -1    0    0  501    0  0.00000000000E+00 -0.00000000000E+00 -0.26049148395E+03  0.26049148395E+03  0.00000000000E+00 0. -1.
         23    2    1    2    0    0 -0.52479887138E+02 -0.10700608557E+01 -0.11776709885E+03  0.17964644323E+03  0.12509385041E+03 0.  0.
          5    1    3    3  502    0  0.39856615711E+02  0.22093141150E+01 -0.19237601822E+02  0.44508298200E+02  0.41800000000E+01 0.  1.
         -5    1    3    3    0  502 -0.92336502849E+02 -0.32793749707E+01 -0.98529497027E+02  0.13513814503E+03  0.41800000000E+01 0.  1.
        -11    1    1    2    0    0  0.33001623866E+02  0.39423769626E+02 -0.70430802660E+02  0.87199992848E+02  0.00000000000E+00 0. -1.
         11    1    1    2    0    0  0.19478263272E+02 -0.38353708770E+02 -0.18938012814E+02  0.47000617505E+02  0.00000000000E+00 0.  1.
</event>
<event>
 7    1  0.6473813E-006  0.1215967E+03  0.7561462E-02  0.1240486E+00
         -3   -1    0    0    0  501 -0.00000000000E+00  0.00000000000E+00  0.74803772819E+02  0.74803772819E+02  0.00000000000E+00 0.  1.
          3   -1    0    0  501    0  0.00000000000E+00 -0.00000000000E+00 -0.20063158435E+03  0.20063158435E+03  0.00000000000E+00 0. -1.
         23    2    1    2    0    0 -0.51192099379E+02  0.25934631335E+02 -0.70578240899E+02  0.15466509499E+03  0.12508703921E+03 0.  0.
          5    1    3    3  502    0 -0.89934282480E+02  0.34750944648E+02 -0.40511980533E+02  0.10466372956E+03  0.41800000000E+01 0.  1.
         -5    1    3    3    0  502  0.38742183101E+02 -0.88163133136E+01 -0.30066260366E+02  0.50001365424E+02  0.41800000000E+01 0.  1.
        -11    1    1    2    0    0  0.50896201675E+01 -0.53021496225E+02 -0.34233437014E+02  0.63317545003E+02  0.00000000000E+00 0. -1.
         11    1    1    2    0    0  0.46102479211E+02  0.27086864890E+02 -0.21016133615E+02  0.57452717178E+02  0.00000000000E+00 0.  1.
</event>
<event>
 7    1  0.6473813E-006  0.1376891E+03  0.7561462E-02  0.1216473E+00
          2   -1    0    0  501    0  0.00000000000E+00  0.00000000000E+00  0.56865118173E+03  0.56865118173E+03  0.00000000000E+00 0.  1.
         -2   -1    0    0    0  501 -0.00000000000E+00 -0.00000000000E+00 -0.36858102709E+02  0.36858102709E+02  0.00000000000E+00 0. -1.
         23    2    1    2    0    0  0.84822652585E+02  0.56318816282E+01  0.19698945327E+03  0.24835247491E+03  0.12508999404E+03 0.  0.
          5    1    3    3  502    0 -0.27002252254E+02 -0.22925266884E+02  0.43002111694E+02  0.55868985123E+02  0.41800000000E+01 0.  1.
         -5    1    3    3    0  502  0.11182490484E+03  0.28557148512E+02  0.15398734158E+03  0.19248348979E+03  0.41800000000E+01 0.  1.
        -11    1    1    2    0    0 -0.10377502298E+03 -0.11428675489E+02  0.27475481176E+03  0.29392188861E+03  0.00000000000E+00 0.  1.
         11    1    1    2    0    0  0.18952370396E+02  0.57967938605E+01  0.60048813987E+02  0.63234920922E+02  0.00000000000E+00 0. -1.
</event>
<event>
 7    1  0.6473813E-006  0.1129737E+03  0.7561462E-02  0.1255160E+00
         -1   -1    0    0    0  501 -0.00000000000E+00  0.00000000000E+00  0.38365664456E+03  0.38365664456E+03  0.00000000000E+00 0.  1.
          1   -1    0    0  501    0  0.00000000000E+00 -0.00000000000E+00 -0.58117845544E+02  0.58117845544E+02  0.00000000000E+00 0. -1.
         23    2    1    2    0    0  0.75533527669E+02  0.68046978053E+02  0.18514984961E+03  0.24548687484E+03  0.12509050277E+03 0.  0.
          5    1    3    3  502    0  0.75983385330E+02  0.23774949346E+02  0.18452463462E+03  0.20101128388E+03  0.41800000000E+01 0.  1.
         -5    1    3    3    0  502 -0.44985766119E+00  0.44272028707E+02  0.62521498854E+00  0.44475590963E+02  0.41800000000E+01 0.  1.
        -11    1    1    2    0    0 -0.17900980912E+02 -0.13791828818E+02  0.10870527822E+03  0.11102926269E+03  0.00000000000E+00 0.  1.
         11    1    1    2    0    0 -0.57632546756E+02 -0.54255149235E+02  0.31683671180E+02  0.85258352574E+02  0.00000000000E+00 0. -1.
</event>
<event>
 7    1  0.6473813E-006  0.1072752E+03  0.7561462E-02  0.1265701E+00
         -2   -1    0    0    0  501 -0.00000000000E+00  0.00000000000E+00  0.84787010138E+02  0.84787010138E+02  0.00000000000E+00 0.  1.
          2   -1    0    0  501    0  0.00000000000E+00 -0.00000000000E+00 -0.26452815700E+03  0.26452815700E+03  0.00000000000E+00 0. -1.
         23    2    1    2    0    0 -0.44466603655E+02  0.46720616596E+01  0.17598465073E+02  0.13452380934E+03  0.12564968088E+03 0.  0.
          5    1    3    3  502    0  0.41025420722E+02 -0.17731906023E+02  0.56164128659E+01  0.45238502740E+02  0.41800000000E+01 0. -1.
         -5    1    3    3    0  502 -0.85492024377E+02  0.22403967683E+02  0.11982052207E+02  0.89285306603E+02  0.41800000000E+01 0.  1.
        -11    1    1    2    0    0 -0.10815532416E+01 -0.29357100340E+02 -0.10364087800E+03  0.10772390956E+03  0.00000000000E+00 0. -1.
         11    1    1    2    0    0  0.45548156897E+02  0.24685038681E+02 -0.93698733939E+02  0.10706744824E+03  0.00000000000E+00 0.  1.
</event>
<event>
 7    1  0.6473813E-006  0.1004175E+03  0.7561462E-02  0.1279420E+00
          2   -1    0    0  501    0  0.00000000000E+00  0.00000000000E+00  0.22235738105E+02  0.22235738105E+02  0.00000000000E+00 0. -1.
         -2   -1    0    0    0  501 -0.00000000000E+00 -0.00000000000E+00 -0.59359151608E+03  0.59359151608E+03  0.00000000000E+00 0.  1.
         23    2    1    2    0    0 -0.34630632645E+02  0.15014151970E+02 -0.31875950255E+03  0.34449983551E+03  0.12509120963E+03 0.  0.
          5    1    3    3  502    0  0.31233453481E+02  0.47256788533E+02 -0.12559913185E+03  0.13784537352E+03  0.41800000000E+01 0. -1.
         -5    1    3    3    0  502 -0.65864086126E+02 -0.32242636563E+02 -0.19316037070E+03  0.20665446200E+03  0.41800000000E+01 0. -1.
        -11    1    1    2    0    0 -0.44447375206E+01  0.18548218358E+02 -0.68897156828E+01  0.20279553202E+02  0.00000000000E+00 0. -1.
         11    1    1    2    0    0  0.39075370166E+02 -0.33562370328E+02 -0.24570655975E+03  0.25104786547E+03  0.00000000000E+00 0.  1.
</event>
<event>
 6    1  0.6473813E-006  0.9984786E+02  0.7561462E-02  0.1280616E+00
         -4   -1    0    0    0  501 -0.00000000000E+00  0.00000000000E+00  0.62137998658E+02  0.62137998658E+02  0.00000000000E+00 0.  1.
          4   -1    0    0  501    0  0.00000000000E+00 -0.00000000000E+00 -0.36944641495E+03  0.36944641495E+03  0.00000000000E+00 0. -1.
          5    1    1    2  502    0 -0.22925157670E+02  0.77656504935E+00 -0.73069988770E+02  0.76699814643E+02  0.41800000000E+01 0. -1.
         -5    1    1    2    0  502  0.86823883923E+02 -0.27097210433E+02  0.22556210282E+01  0.91078020724E+02  0.41800000000E+01 0.  1.
        -11    1    1    2    0    0 -0.32939649276E+02 -0.12888515743E+02 -0.19692490433E+03  0.20007636611E+03  0.00000000000E+00 0.  1.
         11    1    1    2    0    0 -0.30959076978E+02  0.39209161127E+02 -0.39569144226E+02  0.63730212132E+02  0.00000000000E+00 0. -1.
</event>
<event>
 7    1  0.6473813E-006  0.1088518E+03  0.7561462E-02  0.1262711E+00
         -1   -1    0    0    0  501 -0.00000000000E+00  0.00000000000E+00  0.34843705187E+02  0.34843705187E+02  0.00000000000E+00 0.  1.
          1   -1    0    0  501    0  0.00000000000E+00 -0.00000000000E+00 -0.60687724128E+03  0.60687724128E+03  0.00000000000E+00 0. -1.
         23    2    1    2    0    0 -0.11287375746E+02 -0.61371347508E+02 -0.14782661517E+03  0.20345469716E+03  0.12508900230E+03 0.  0.
          5    1    3    3  502    0 -0.49088841034E+02 -0.23011179458E+02 -0.98229141226E+01  0.55255685101E+02  0.41800000000E+01 0. -1.
         -5    1    3    3    0  502  0.37801465288E+02 -0.38360168049E+02 -0.13800370105E+03  0.14819901206E+03  0.41800000000E+01 0. -1.
        -11    1    1    2    0    0  0.50065648120E+02  0.24254216122E+02 -0.18936063365E+03  0.19736333422E+03  0.00000000000E+00 0.  1.
         11    1    1    2    0    0 -0.38778272374E+02  0.37117131386E+02 -0.23484628728E+03  0.24090291509E+03  0.00000000000E+00 0. -1.
</event>
<event>
 7    1  0.6473813E-006  0.8236218E+02  0.7561462E-02  0.1322478E+00
          3   -1    0    0  501    0  0.00000000000E+00  0.00000000000E+00  0.40191264158E+03  0.40191264158E+03  0.00000000000E+00 0. -1.
         -3   -1    0    0    0  501 -0.00000000000E+00 -0.00000000000E+00 -0.30656853124E+02  0.30656853124E+02  0.00000000000E+00 0.  1.
         23    2    1    2    0    0  0.17815439009E+02  0.20594056777E+02  0.21956458558E+03  0.25416671791E+03  0.12510239092E+03 0.  0.
          5    1    3    3  502    0  0.50561628589E+02  0.28468132377E+02  0.21140251050E+03  0.21926104691E+03  0.41800000000E+01 0.  1.
         -5    1    3    3    0  502 -0.32746189580E+02 -0.78740756001E+01  0.81620750757E+01  0.34905671002E+02  0.41800000000E+01 0.  1.
        -11    1    1    2    0    0  0.20158609436E+02 -0.27415444560E+02  0.16508359646E+02  0.37821978703E+02  0.00000000000E+00 0.  1.
         11    1    1    2    0    0 -0.37974048444E+02  0.68213877829E+01  0.13518284323E+03  0.14058079809E+03  0.00000000000E+00 0. -1.
</event>
<event>
 7    1  0.6473813E-006  0.6639831E+02  0.7561462E-02  0.1372788E+00
          1   -1    0    0  501    0  0.00000000000E+00  0.00000000000E+00  0.34676230216E+02  0.34676230216E+02  0.00000000000E+00 0. -1.
         -1   -1    0    0    0  501 -0.00000000000E+00 -0.00000000000E+00 -0.36708727713E+03  0.36708727713E+03  0.00000000000E+00 0.  1.
         23    2    1    2    0    0 -0.26954816530E+02  0.55076622643E+01 -0.20932313086E+03  0.24540150874E+03  0.12509528729E+03 0.  0.
          5    1    3    3  502    0 -0.25242105667E+02 -0.21294049570E+02  0.10261281309E+01  0.33303540120E+02  0.41800000000E+01 0.  1.
         -5    1    3    3    0  502 -0.17127108626E+01  0.26801711834E+02 -0.21034925899E+03  0.21209796862E+03  0.41800000000E+01 0.  1.
        -11    1    1    2    0    0  0.46906004477E+02 -0.16285775675E+02 -0.24818178025E+02  0.55509834316E+02  0.00000000000E+00 0. -1.
         11    1    1    2    0    0 -0.19951187948E+02  0.10778113411E+02 -0.98269738028E+02  0.10085216429E+03  0.00000000000E+00 0.  1.
</event>
<event>
 7    1  0.6473813E-006  0.9080475E+02  0.7561462E-02  0.1300914E+00
         -1   -1    0    0    0  501 -0.00000000000E+00  0.00000000000E+00  0.36386741682E+03  0.36386741682E+03  0.00000000000E+00 0.  1.
          1   -1    0    0  501    0  0.00000000000E+00 -0.00000000000E+00 -0.44298277110E+02  0.44298277110E+02  0.00000000000E+00 0. -1.
         23    2    1    2    0    0  0.57512193986E+02 -0.24894724052E+02  0.20590113792E+03  0.24893579451E+03  0.12508537664E+03 0.  0.
          5    1    3    3  502    0  0.20263497035E+02 -0.56239001472E+02  0.31258844665E+02  0.67587146474E+02  0.41800000000E+01 0. -1.
         -5    1    3    3    0  502  0.37248696951E+02  0.31344277420E+02  0.17464229326E+03  0.18134864804E+03  0.41800000000E+01 0. -1.
        -11    1    1    2    0    0 -0.21134264931E+02 -0.91228241345E+01 -0.10607621355E+02  0.25345703880E+02  0.00000000000E+00 0. -1.
         11    1    1    2    0    0 -0.36377929055E+02  0.34017548187E+02  0.12427562314E+03  0.13388419554E+03  0.00000000000E+00 0.  1.
</event>
<event>
 7    1  0.6473813E-006  0.9821492E+02  0.7561462E-02  0.1284095E+00
          2   -1    0    0  501    0  0.00000000000E+00  0.00000000000E+00  0.70909400406E+02  0.70909400406E+02  0.00000000000E+00 0. -1.
         -2   -1    0    0    0  501 -0.00000000000E+00 -0.00000000000E+00 -0.26309554684E+03  0.26309554684E+03  0.00000000000E+00 0.  1.
         23    2    1    2    0    0  0.75022318079E+02  0.89975218719E+01 -0.14605267250E+03  0.20661336354E+03  0.12509354596E+03 0.  0.
          5    1    3    3  502    0  0.19360115351E+02 -0.10472052366E+02  0.20198043495E+02  0.30164736169E+02  0.41800000000E+01 0. -1.
         -5    1    3    3    0  502  0.55662202728E+02  0.19469574238E+02 -0.16625071599E+03  0.17644862737E+03  0.41800000000E+01 0. -1.
        -11    1    1    2    0    0 -0.49426639918E+02  0.37357667333E+02 -0.87461090816E+01  0.62570619833E+02  0.00000000000E+00 0. -1.
         11    1    1    2    0    0 -0.25595678161E+02 -0.46355189205E+02 -0.37387364860E+02  0.64820963877E+02  0.00000000000E+00 0.  1.
</event>
<event>
 7    1  0.6473813E-006  0.9231679E+02  0.7561462E-02  0.1297336E+00
         -3   -1    0    0    0  501 -0.00000000000E+00  0.00000000000E+00  0.41375858441E+02  0.41375858441E+02  0.00000000000E+00 0.  1.
          3   -1    0    0  501    0  0.00000000000E+00 -0.00000000000E+00 -0.35032262631E+03  0.35032262631E+03  0.00000000000E+00 0. -1.
         23    2    1    2    0    0  0.86597620467E+01 -0.13518981647E+02 -0.93154267904E+02  0.15679698806E+03  0.12509925456E+03 0.  0.
          5    1    3    3  502    0  0.14196398226E+02 -0.63187322821E+02 -0.83452929249E+02  0.10571678811E+03  0.41800000000E+01 0.  1.
         -5    1    3    3    0  502 -0.55366361788E+01  0.49668341175E+02 -0.97013386550E+01  0.51080199950E+02  0.41800000000E+01 0.  1.
        -11    1    1    2    0    0  0.26747229443E+02  0.20245760120E+02 -0.28040112605E+02  0.43721310600E+02  0.00000000000E+00 0.  1.
         11    1    1    2    0    0 -0.35406991489E+02 -0.67267784732E+01 -0.18775238736E+03  0.19118018609E+03  0.00000000000E+00 0. -1.
</event>
<event>
 7    1  0.6473813E-006  0.1184366E+03  0.7561462E-02  0.1245699E+00
         -2   -1    0    0    0  501 -0.00000000000E+00  0.00000000000E+00  0.12323601691E+03  0.12323601691E+03  0.00000000000E+00 0. -1.
          2   -1    0    0  501    0  0.00000000000E+00 -0.00000000000E+00 -0.15382901632E+03  0.15382901632E+03  0.00000000000E+00 0.  1.
         23    2    1    2    0    0 -0.23954265415E+02 -0.68517156800E+02  0.28824015628E+02  0.14745458314E+03  0.12507446823E+03 0.  0.
          5    1    3    3  502    0  0.37842588921E+02 -0.75943042714E+01  0.44626799043E+02  0.59150305041E+02  0.41800000000E+01 0.  1.
         -5    1    3    3    0  502 -0.61796854336E+02 -0.60922852529E+02 -0.15802783414E+02  0.88304278094E+02  0.41800000000E+01 0.  1.
        -11    1    1    2    0    0 -0.15580822454E+02  0.69897073019E+02 -0.53982300339E+02  0.89679716742E+02  0.00000000000E+00 0.  1.
         11    1    1    2    0    0  0.39535087869E+02 -0.13799162186E+01 -0.54347147006E+01  0.39930733345E+02  0.00000000000E+00 0. -1.
</event>
<event>
 6    1  0.1763011E-005  0.9682690E+03  0.7561462E-02  0.9344048E-01
         -2   -1    0    0    0  501 -0.00000000000E+00  0.00000000000E+00  0.67139882379E+03  0.67139882379E+03  0.00000000000E+00 0.  1.
          2   -1    0    0  501    0  0.00000000000E+00 -0.00000000000E+00 -0.17896531904E+04  0.17896531904E+04  0.00000000000E+00 0. -1.
          5    1    1    2  502    0 -0.11679517793E+03  0.35051311177E+02  0.79273485941E+01  0.12227028772E+03  0.41800000000E+01 0. -1.
         -5    1    1    2    0  502 -0.69911665252E+03 -0.45536992418E+03 -0.17613446863E+03  0.85274069043E+03  0.41800000000E+01 0.  1.
        -11    1    1    2    0    0 -0.33568268450E+02  0.31137756572E+02  0.81957696009E+02  0.93879989700E+02  0.00000000000E+00 0.  1.
         11    1    1    2    0    0  0.84948009890E+03  0.38918085643E+03 -0.10320049426E+04  0.13921610463E+04  0.00000000000E+00 0. -1.
</event>
<event>
 7    1  0.6473813E-006  0.8963070E+02  0.7561462E-02  0.1303748E+00
          2   -1    0    0  501    0  0.00000000000E+00  0.00000000000E+00  0.65019448596E+03  0.65019448596E+03  0.00000000000E+00 0. -1.
         -2   -1    0    0    0  501 -0.00000000000E+00 -0.00000000000E+00 -0.26481721316E+02  0.26481721316E+02  0.00000000000E+00 0.  1.
         23    2    1    2    0    0  0.37789658467E+02 -0.62424064373E+02  0.37425057045E+03  0.40129939741E+03  0.12511152936E+03 0.  0.
          5    1    3    3  502    0 -0.11847633490E+02 -0.52917247089E+02  0.32858798798E+03  0.33305876314E+03  0.41800000000E+01 0. -1.
         -5    1    3    3    0  502  0.49637291957E+02 -0.95068172839E+01  0.45662582471E+02  0.68240634270E+02  0.41800000000E+01 0. -1.
        -11    1    1    2    0    0 -0.33711739468E+02  0.44775195225E+02  0.25101539626E+03  0.25719647868E+03  0.00000000000E+00 0. -1.
         11    1    1    2    0    0 -0.40779189990E+01  0.17648869148E+02 -0.15532020636E+01  0.18180331191E+02  0.00000000000E+00 0.  1.
</event>
<event>
 7    1  0.6473813E-006  0.1359366E+03  0.7561462E-02  0.1218904E+00
          1   -1    0    0  501    0  0.00000000000E+00  0.00000000000E+00  0.43046311413E+02  0.43046311413E+02  0.00000000000E+00 0. -1.
         -1   -1    0    0    0  501 -0.00000000000E+00 -0.00000000000E+00 -0.53239862114E+03  0.53239862114E+03  0.00000000000E+00 0.  1.
         23    2    1    2    0    0  0.80571626547E+02 -0.49061248432E+02 -0.33135012465E+03  0.36652220681E+03  0.12508728902E+03 0.  0.
          5    1    3    3  502    0  0.49937461227E+02 -0.78698594764E+02 -0.12616535427E+03  0.15691522511E+03  0.41800000000E+01 0. -1.
         -5    1    3    3    0  502  0.30634165320E+02  0.29637346332E+02 -0.20518477038E+03  0.20960698170E+03  0.41800000000E+01 0. -1.
        -11    1    1    2    0    0 -0.30844184008E+02 -0.29557528949E+02 -0.61522364398E+02  0.74900016861E+02  0.00000000000E+00 0.  1.
         11    1    1    2    0    0 -0.49727442540E+02  0.78618777381E+02 -0.96479820673E+02  0.13402270888E+03  0.00000000000E+00 0. -1.
</event>
<event>
 7    1  0.6473813E-006  0.1120704E+03  0.7561462E-02  0.1256783E+00
          3   -1    0    0  501    0  0.00000000000E+00  0.00000000000E+00  0.44513774197E+02  0.44513774197E+02  0.00000000000E+00 0. -1.
         -3   -1    0    0    0  501 -0.00000000000E+00 -0.00000000000E+00 -0.60002501942E+03  0.60002501942E+03  0.00000000000E+00 0.  1.
         23    2    1    2    0    0 -0.25211353119E+01  0.34731646973E+02 -0.52642468340E+03  0.54220160103E+03  0.12508791085E+03 0.  0.
          5    1    3    3  502    0  0.41679253217E+02  0.63209749063E+02 -0.34675681145E+03  0.35495125188E+03  0.41800000000E+01 0.  1.
         -5    1    3    3    0  502 -0.44200388529E+02 -0.28478102090E+02 -0.17966787195E+03  0.18725034915E+03  0.41800000000E+01 0.  1.
        -11    1    1    2    0    0  0.14172293113E+02 -0.63218658560E+02 -0.85793198947E+01  0.65353327476E+02  0.00000000000E+00 0. -1.
         11    1    1    2    0    0 -0.11651157801E+02  0.28487011587E+02 -0.20507241932E+02  0.36983865116E+02  0.00000000000E+00 0.  1.
</event>
<event>
 7    1  0.6473813E-006  0.1211274E+03  0.7561462E-02  0.1241249E+00
          1   -1    0    0  501    0  0.00000000000E+00  0.00000000000E+00  0.44225580393E+03  0.44225580393E+03  0.00000000000E+00 0. -1.
         -1   -1    0    0    0  501 -0.00000000000E+00 -0.00000000000E+00 -0.48792259509E+02  0.48792259509E+02  0.00000000000E+00 0.  1.
         23    2    1    2    0    0 -0.90414977364E+02 -0.10345555499E+02  0.15051067486E+03  0.21583110686E+03  0.12509078621E+03 0.  0.
          5    1    3    3  502    0 -0.42165934902E+02 -0.60278073049E+02  0.36379991995E+02  0.82172917523E+02  0.41800000000E+01 0.  1.
         -5    1    3    3    0  502 -0.48249042462E+02  0.49932517550E+02  0.11413068286E+03  0.13365818934E+03  0.41800000000E+01 0.  1.
        -11    1    1    2    0    0  0.57988019326E+02  0.25345263670E+02  0.54836779549E+02  0.83738074776E+02  0.00000000000E+00 0.  1.
         11    1    1    2    0    0  0.32426958038E+02 -0.14999708171E+02  0.18811609001E+03  0.19147888180E+03  0.00000000000E+00 0. -1.
</event>
<event>
 7    1  0.6473813E-006  0.8051791E+02  0.7561462E-02  0.1327588E+00
         -1   -1    0    0    0  501 -0.00000000000E+00  0.00000000000E+00  0.21432477969E+03  0.21432477969E+03  0.00000000000E+00 0.  1.
          1   -1    0    0  501    0  0.00000000000E+00 -0.00000000000E+00 -0.95517522069E+02  0.95517522069E+02  0.00000000000E+00 0. -1.
         23    2    1    2    0    0 -0.63721442518E+02  0.34357193849E+02  0.13722487779E+03  0.19151209823E+03  0.11227367312E+03 0.  0.
          5    1    3    3  502    0 -0.55880038786E+02  0.21403642690E+02  0.70554000094E+01  0.60398226170E+02  0.41800000000E+01 0. -1.
         -5    1    3    3    0  502 -0.78414037315E+01  0.12953551159E+02  0.13016947778E+03  0.13111387206E+03  0.41800000000E+01 0.  1.
        -11    1    1    2    0    0  0.51753994077E+02 -0.45559464895E+02 -0.48343050786E+02  0.84209211514E+02  0.00000000000E+00 0. -1.
         11    1    1    2    0    0  0.11967448441E+02  0.11202271047E+02  0.29925430617E+02  0.34120992020E+02  0.00000000000E+00 0.  1.
</event>
<event>
 7    1  0.6473813E-006  0.1114917E+03  0.7561462E-02  0.1257832E+00
         -2   -1    0    0    0  501 -0.00000000000E+00  0.00000000000E+00  0.11064961426E+04  0.11064961426E+04  0.00000000000E+00 0.  1.
          2   -1    0    0  501    0  0.00000000000E+00 -0.00000000000E+00 -0.20089598609E+02  0.20089598609E+02  0.00000000000E+00 0. -1.
         23    2    1    2    0    0  0.18072065710E+02 -0.94672418661E+02  0.69709018036E+03  0.71475270926E+03  0.12508896607E+03 0.  0.
          5    1    3    3  502    0 -0.31046363351E+02 -0.45156444760E+02  0.54043211800E+03  0.54321941032E+03  0.41800000000E+01 0. -1.
         -5    1    3    3    0  502  0.49118429061E+02 -0.49515973901E+02  0.15665806236E+03  0.17153329894E+03  0.41800000000E+01 0. -1.
        -11    1    1    2    0    0 -0.43904582173E+01  0.68325564273E+02  0.37030218105E+03  0.37657849666E+03  0.00000000000E+00 0. -1.
         11    1    1    2    0    0 -0.13681607493E+02  0.26346854388E+02  0.19014182605E+02  0.35254535309E+02  0.00000000000E+00 0.  1.
</event>
<event>
 7    1  0.6473813E-006  0.8857719E+02  0.7561462E-02  0.1306334E+00
          2   -1    0    0  501    0  0.00000000000E+00  0.00000000000E+00  0.20702739739E+03  0.20702739739E+03  0.00000000000E+00 0. -1.
         -2   -1    0    0    0  501 -0.00000000000E+00 -0.00000000000E+00 -0.70100041649E+02  0.70100041649E+02  0.00000000000E+00 0.  1.
         23    2    1    2    0    0 -0.15589597768E+02 -0.32164089247E+02  0.33257018320E+02  0.13427599604E+03  0.12508576918E+03 0.  0.
          5    1    3    3  502    0  0.29451200241E+02  0.23812271728E+02  0.47517533381E+02  0.60908011452E+02  0.41800000000E+01 0.  1.
         -5    1    3    3    0  502 -0.45040798009E+02 -0.55976360975E+02 -0.14260515061E+02  0.73367984592E+02  0.41800000000E+01 0.  1.
        -11    1    1    2    0    0  0.30793889262E+02 -0.77474704659E+00  0.10198307884E+03  0.10653362013E+03  0.00000000000E+00 0. -1.
         11    1    1    2    0    0 -0.15204291495E+02  0.32938836294E+02  0.16872585873E+01  0.36317822867E+02  0.00000000000E+00 0.  1.
</event>
<event>
 7    1  0.6473813E-006  0.1047957E+03  0.7561462E-02  0.1270523E+00
         -1   -1    0    0    0  501 -0.00000000000E+00  0.00000000000E+00  0.17895848809E+02  0.17895848809E+02  0.00000000000E+00 0.  1.
          1   -1    0    0  501    0  0.00000000000E+00 -0.00000000000E+00 -0.64181999710E+03  0.64181999710E+03  0.00000000000E+00 0. -1.
         23    2    1    2    0    0  0.62749907940E+01  0.36882733822E+00 -0.35756476671E+03  0.37886648874E+03  0.12509093634E+03 0.  0.
          5    1    3    3  502    0  0.39744257875E+02  0.48944130604E+02 -0.22510263680E+03  0.23380291583E+03  0.41800000000E+01 0. -1.
         -5    1    3    3    0  502 -0.33469267081E+02 -0.48575303266E+02 -0.13246212991E+03  0.14506357291E+03  0.41800000000E+01 0. -1.
        -11    1    1    2    0    0  0.40062758731E+02  0.59437133515E+01 -0.15185096250E+03  0.15715936872E+03  0.00000000000E+00 0. -1.
         11    1    1    2    0    0 -0.46337749525E+02 -0.63125406898E+01 -0.11450841907E+03  0.12368998844E+03  0.00000000000E+00 0.  1.
</event>
<event>
 7    1  0.6473813E-006  0.1627900E+03  0.7561462E-02  0.1185582E+00
         -2   -1    0    0    0  501 -0.00000000000E+00  0.00000000000E+00  0.14719434405E+03  0.14719434405E+03  0.00000000000E+00 0.  1.
          2   -1    0    0  501    0  0.00000000000E+00 -0.00000000000E+00 -0.23115849305E+03  0.23115849305E+03  0.00000000000E+00 0. -1.
         23    2    1    2    0    0 -0.92855229838E+02 -0.90902161734E+02  0.28138143659E+02  0.18255301018E+03  0.12509416326E+03 0.  0.
          5    1    3    3  502    0 -0.81350754340E+02 -0.31656802843E+01  0.43879822211E+02  0.92579036291E+02  0.41800000000E+01 0. -1.
         -5    1    3    3    0  502 -0.11504475498E+02 -0.87736481449E+02 -0.15741678552E+02  0.89973973888E+02  0.41800000000E+01 0. -1.
        -11    1    1    2    0    0  0.80205809017E+02  0.18943858983E+02 -0.34873064093E+02  0.89487273913E+02  0.00000000000E+00 0.  1.
         11    1    1    2    0    0  0.12649420821E+02  0.71958302751E+02 -0.77229228567E+02  0.10631255301E+03  0.00000000000E+00 0. -1.
</event>
<event>
 7    1  0.6473813E-006  0.1070375E+03  0.7561462E-02  0.1266157E+00
          1   -1    0    0  501    0  0.00000000000E+00  0.00000000000E+00  0.24876541854E+03  0.24876541854E+03  0.00000000000E+00 0. -1.
         -1   -1    0    0    0  501 -0.00000000000E+00 -0.00000000000E+00 -0.87276575222E+02  0.87276575222E+02  0.00000000000E+00 0.  1.
         23    2    1    2    0    0  0.22093632969E+02  0.26148979698E+02 -0.20214362926E+02  0.13125912674E+03  0.12509372537E+03 0.  0.
          5    1    3    3  502    0  0.30607778750E+02  0.69403190033E+02 -0.36236602401E+02  0.84167705566E+02  0.41800000000E+01 0. -1.
         -5    1    3    3    0  502 -0.85141457807E+01 -0.43254210335E+02  0.16022239474E+02  0.47091421170E+02  0.41800000000E+01 0. -1.
        -11    1    1    2    0    0 -0.58770186782E+01 -0.57886776154E+02  0.10101636335E+03  0.11657497102E+03  0.00000000000E+00 0.  1.
         11    1    1    2    0    0 -0.16216614291E+02  0.31737796456E+02  0.80686842893E+02  0.88207896013E+02  0.00000000000E+00 0. -1.
</event>
<event>
 7    1  0.6473813E-006  0.1494276E+03  0.7561462E-02  0.1201178E+00
          2   -1    0    0  501    0  0.00000000000E+00  0.00000000000E+00  0.72533379104E+02  0.72533379104E+02  0.00000000000E+00 0. -1.
         -2   -1    0    0    0  501 -0.00000000000E+00 -0.00000000000E+00 -0.40471515478E+03  0.40471515478E+03  0.00000000000E+00 0.  1.
         23    2    1    2    0    0 -0.10866693345E+03  0.28434003620E+02 -0.27273654969E+03  0.32038902878E+03  0.12508760624E+03 0.  0.
          5    1    3    3  502    0 -0.10648340654E+03 -0.17335062339E+02 -0.24217768321E+03  0.26515414931E+03  0.41800000000E+01 0. -1.
         -5    1    3    3    0  502 -0.21835269072E+01  0.45769065958E+02 -0.30558866484E+02  0.55234879463E+02  0.41800000000E+01 0. -1.
        -11    1    1    2    0    0  0.12487788393E+03 -0.19571569532E+02 -0.55043673757E+02  0.13786710358E+03  0.00000000000E+00 0.  1.
         11    1    1    2    0    0 -0.16210950483E+02 -0.88624340874E+01 -0.44015522255E+01  0.18992401520E+02  0.00000000000E+00 0. -1.
</event>
<event>
 7    1  0.6473813E-006  0.1529538E+03  0.7561462E-02  0.1196890E+00
          1   -1    0    0  501    0  0.00000000000E+00  0.00000000000E+00  0.27692967701E+03  0.27692967701E+03  0.00000000000E+00 0. -1.
         -1   -1    0    0    0  501 -0.00000000000E+00 -0.00000000000E+00 -0.11352745368E+03  0.11352745368E+03  0.00000000000E+00 0.  1.
         23    2    1    2    0    0  0.10239649059E+03 -0.68714593951E+02  0.16058807611E+02  0.17638550840E+03  0.12508887066E+03 0.  0.
          5    1    3    3  502    0  0.27041728200E+02  0.22312880016E+02  0.42467591260E+02  0.55227605290E+02  0.41800000000E+01 0. -1.
         -5    1    3    3    0  502  0.75354762389E+02 -0.91027473967E+02 -0.26408783649E+02  0.12115790311E+03  0.41800000000E+01 0. -1.
        -11    1    1    2    0    0 -0.10022615899E+03  0.18286107145E+02  0.78038846368E+02  0.12833443109E+03  0.00000000000E+00 0. -1.
         11    1    1    2    0    0 -0.21703315940E+01  0.50428486806E+02  0.69304569355E+02  0.85737191197E+02  0.00000000000E+00 0.  1.
</event>
<event>
 7    1  0.6473813E-006  0.9742331E+02  0.7561462E-02  0.1285810E+00
         -3   -1    0    0    0  501 -0.00000000000E+00  0.00000000000E+00  0.63570679508E+02  0.63570679508E+02  0.00000000000E+00 0.  1.
          3   -1    0    0  501    0  0.00000000000E+00 -0.00000000000E+00 -0.20076256519E+03  0.20076256519E+03  0.00000000000E+00 0. -1.
         23    2    1    2    0    0 -0.26707545213E+02  0.18060825011E+02 -0.87300934447E+02  0.15591999633E+03  0.12510038261E+03 0.  0.
          5    1    3    3  502    0  0.35813994785E+02 -0.66564407032E+01  0.96040681803E+01  0.37903310553E+02  0.41800000000E+01 0.  1.
         -5    1    3    3    0  502 -0.62521539998E+02  0.24717265714E+02 -0.96905002627E+02  0.11801668578E+03  0.41800000000E+01 0.  1.
        -11    1    1    2    0    0  0.26148881778E+02  0.31679180715E+02 -0.49480466828E+01  0.41374118419E+02  0.00000000000E+00 0.  1.
         11    1    1    2    0    0  0.55866343579E+00 -0.49740005726E+02 -0.44942904555E+02  0.67039129948E+02  0.00000000000E+00 0. -1.
</event>
<event>
 7    1  0.6473813E-006  0.2077783E+03  0.7561462E-02  0.1143337E+00
         -1   -1    0    0    0  501 -0.00000000000E+00  0.00000000000E+00  0.41911591398E+03  0.41911591398E+03  0.00000000000E+00 0.  1.
          1   -1    0    0  501    0  0.00000000000E+00 -0.00000000000E+00 -0.17393768343E+03  0.17393768343E+03  0.00000000000E+00 0. -1.
         23    2    1    2    0    0  0.19536093145E+03  0.15918874040E+02  0.29045664324E+03  0.37206349309E+03  0.12508747820E+03 0.  0.
          5    1    3    3  502    0  0.17072887062E+03  0.22847915793E+01  0.14558914083E+03  0.22442646426E+03  0.41800000000E+01 0. -1.
         -5    1    3    3    0  502  0.24632060826E+02  0.13634082461E+02  0.14486750241E+03  0.14763702883E+03  0.41800000000E+01 0. -1.
        -11    1    1    2    0    0 -0.11020078611E+03  0.36751007178E+02 -0.23759822084E+02  0.11857225196E+03  0.00000000000E+00 0. -1.
         11    1    1    2    0    0 -0.85160145334E+02 -0.52669881219E+02 -0.21518590612E+02  0.10241785236E+03  0.00000000000E+00 0.  1.
</event>
<event>
 7    1  0.6473813E-006  0.9778122E+02  0.7561462E-02  0.1285032E+00
         -1   -1    0    0    0  501 -0.00000000000E+00  0.00000000000E+00  0.99107624422E+02  0.99107624422E+02  0.00000000000E+00 0.  1.
          1   -1    0    0  501    0  0.00000000000E+00 -0.00000000000E+00 -0.19344416864E+03  0.19344416864E+03  0.00000000000E+00 0. -1.
         23    2    1    2    0    0 -0.60921540237E+02  0.59342232114E+02 -0.48563399553E+02  0.15886942200E+03  0.12509258528E+03 0.  0.
          5    1    3    3  502    0  0.14234453754E+02  0.21833015717E+02 -0.67661393282E+02  0.72628071638E+02  0.41800000000E+01 0. -1.
         -5    1    3    3    0  502 -0.75155993992E+02  0.37509216397E+02  0.19097993729E+02  0.86241350361E+02  0.41800000000E+01 0. -1.
        -11    1    1    2    0    0  0.32856175664E+02 -0.33258228707E+02  0.25138937372E+02  0.53081109900E+02  0.00000000000E+00 0.  1.
         11    1    1    2    0    0  0.28065364573E+02 -0.26084003407E+02 -0.70912082033E+02  0.80601261160E+02  0.00000000000E+00 0. -1.
</event>
<event>
 7    1  0.6473813E-006  0.1320296E+03  0.7561462E-02  0.1224475E+00
         -2   -1    0    0    0  501 -0.00000000000E+00  0.00000000000E+00  0.10079679160E+03  0.10079679160E+03  0.00000000000E+00 0.  1.
          2   -1    0    0  501    0  0.00000000000E+00 -0.00000000000E+00 -0.26840341710E+03  0.26840341710E+03  0.00000000000E+00 0. -1.
         23    2    1    2    0    0  0.10316957571E+03  0.95312369911E+01 -0.14081106741E+02  0.16293230655E+03  0.12495540452E+03 0.  0.
          5    1    3    3  502    0  0.10759885480E+02  0.55118630315E+02  0.95852481888E+01  0.57124319919E+02  0.41800000000E+01 0. -1.
         -5    1    3    3    0  502  0.92409690229E+02 -0.45587393324E+02 -0.23666354930E+02  0.10580798663E+03  0.41800000000E+01 0. -1.
        -11    1    1    2    0    0 -0.70337357938E+02 -0.13252710513E+02 -0.28652155577E+02  0.77096849980E+02  0.00000000000E+00 0.  1.
         11    1    1    2    0    0 -0.32832217771E+02  0.37214735220E+01 -0.12487336318E+03  0.12917105217E+03  0.00000000000E+00 0. -1.
</event>
<event>
 7    1  0.6473813E-006  0.9618175E+02  0.7561462E-02  0.1288536E+00
          1   -1    0    0  501    0  0.00000000000E+00  0.00000000000E+00  0.11660082821E+03  0.11660082821E+03  0.00000000000E+00 0. -1.
         -1   -1    0    0    0  501 -0.00000000000E+00 -0.00000000000E+00 -0.27276770358E+03  0.27276770358E+03  0.00000000000E+00 0.  1.
         23    2    1    2    0    0  0.55400737103E+02  0.53782269468E+02 -0.21242996687E+03  0.25833505466E+03  0.12509490581E+03 0.  0.
          5    1    3    3  502    0  0.54505466095E+02  0.24216611955E+02 -0.19180904764E+02  0.62790681126E+02  0.41800000000E+01 0.  1.
         -5    1    3    3    0  502  0.89527100803E+00  0.29565657513E+02 -0.19324906210E+03  0.19554437353E+03  0.41800000000E+01 0.  1.
        -11    1    1    2    0    0 -0.59346373781E+02 -0.66649749909E+02  0.18765783588E+02  0.91193946496E+02  0.00000000000E+00 0.  1.
         11    1    1    2    0    0  0.39456366782E+01  0.12867480441E+02  0.37497307904E+02  0.39839530642E+02  0.00000000000E+00 0. -1.
</event>
<event>
 7    1  0.6473813E-006  0.8481908E+02  0.7561462E-02  0.1315906E+00
         -2   -1    0    0    0  501 -0.00000000000E+00  0.00000000000E+00  0.42788198548E+02  0.42788198548E+02  0.00000000000E+00 0.  1.
          2   -1    0    0  501    0  0.00000000000E+00 -0.00000000000E+00 -0.34798379288E+03  0.34798379288E+03  0.00000000000E+00 0. -1.
         23    2    1    2    0    0 -0.42420462528E+02 -0.32585125900E+02 -0.13287672170E+03  0.19016912486E+03  0.12508711688E+03 0.  0.
          5    1    3    3  502    0  0.12555784363E+02 -0.48973646513E+02 -0.12132164730E+03  0.13150087557E+03  0.41800000000E+01 0. -1.
         -5    1    3    3    0  502 -0.54976246891E+02  0.16388520613E+02 -0.11555074405E+02  0.58668249289E+02  0.41800000000E+01 0. -1.
        -11    1    1    2    0    0  0.15833390977E+02 -0.38404801459E+01  0.54680577647E+01  0.17185610647E+02  0.00000000000E+00 0.  1.
         11    1    1    2    0    0  0.26587071550E+02  0.36425606046E+02 -0.17778693040E+03  0.18341725592E+03  0.00000000000E+00 0. -1.
</event>
<event>
 6    1  0.6473813E-006  0.1487926E+03  0.7561462E-02  0.1201964E+00
         -2   -1    0    0    0  501 -0.00000000000E+00  0.00000000000E+00  0.42583985407E+02  0.42583985407E+02  0.00000000000E+00 0.  1.
          2   -1    0    0  501    0  0.00000000000E+00 -0.00000000000E+00 -0.60104200241E+03  0.60104200241E+03  0.00000000000E+00 0. -1.
          5    1    1    2  502    0 -0.43633281443E+02 -0.68424912576E+02 -0.14389847060E+03  0.16525759938E+03  0.41800000000E+01 0. -1.
         -5    1    1    2    0  502 -0.41261377308E+02  0.88279104527E+02 -0.99934484827E+02  0.13964266974E+03  0.41800000000E+01 0.  1.
        -11    1    1    2    0    0  0.10059688654E+03 -0.12242182980E+02 -0.21627836169E+03  0.23884290728E+03  0.00000000000E+00 0.  1.
         11    1    1    2    0    0 -0.15702227788E+02 -0.76120089712E+01 -0.98346699892E+02  0.99882811423E+02  0.00000000000E+00 0. -1.
</event>
<event>
 7    1  0.6473813E-006  0.6078381E+02  0.7561462E-02  0.1394572E+00
          2   -1    0    0  501    0  0.00000000000E+00  0.00000000000E+00  0.63942207873E+03  0.63942207873E+03  0.00000000000E+00 0. -1.
         -2   -1    0    0    0  501 -0.00000000000E+00 -0.00000000000E+00 -0.20720409377E+02  0.20720409377E+02  0.00000000000E+00 0.  1.
         23    2    1    2    0    0 -0.40648345325E+02 -0.31183035076E+01  0.29935035923E+03  0.32698374608E+03  0.12508285588E+03 0.  0.
          5    1    3    3  502    0 -0.44053340441E+01 -0.81462690279E+01  0.28837649580E+03  0.28855544423E+03  0.41800000000E+01 0. -1.
         -5    1    3    3    0  502 -0.36243011281E+02  0.50279655204E+01  0.10973863427E+02  0.38428301842E+02  0.41800000000E+01 0. -1.
        -11    1    1    2    0    0 -0.15850603629E+02 -0.67437342681E+01  0.13253527574E+02  0.21734203009E+02  0.00000000000E+00 0.  1.
         11    1    1    2    0    0  0.56498948954E+02  0.98620377757E+01  0.30609778256E+03  0.31142453903E+03  0.00000000000E+00 0. -1.
</event>
<event>
 7    1  0.6473813E-006  0.1115390E+03  0.7561462E-02  0.1257746E+00
          1   -1    0    0  501    0  0.00000000000E+00  0.00000000000E+00  0.72558280353E+02  0.72558280353E+02  0.00000000000E+00 0. -1.
         -1   -1    0    0    0  501 -0.00000000000E+00 -0.00000000000E+00 -0.21325962319E+03  0.21325962319E+03  0.00000000000E+00 0.  1.
         23    2    1    2    0    0  0.41442953069E+02 -0.41361539775E+02 -0.90847598930E+02  0.16531622100E+03  0.12509145200E+03 0.  0.
          5    1    3    3  502    0  0.55318465454E+02  0.13851278039E+02 -0.91885507637E+02  0.10822388571E+03  0.41800000000E+01 0. -1.
         -5    1    3    3    0  502 -0.13875512385E+02 -0.55212817814E+02  0.10379087073E+01  0.57092335294E+02  0.41800000000E+01 0. -1.
        -11    1    1    2    0    0  0.18947063655E+02  0.44478061501E+02 -0.29803980787E+02  0.56794070525E+02  0.00000000000E+00 0.  1.
         11    1    1    2    0    0 -0.60390016724E+02 -0.31165217258E+01 -0.20049763116E+02  0.63707612014E+02  0.00000000000E+00 0. -1.
</event>
<event>
 7    1  0.6473813E-006  0.1408852E+03  0.7561462E-02  0.1212143E+00
         -2   -1    0    0    0  501 -0.00000000000E+00  0.00000000000E+00  0.66641075061E+02  0.66641075061E+02  0.00000000000E+00 0.  1.
          2   -1    0    0  501    0  0.00000000000E+00 -0.00000000000E+00 -0.33193600600E+03  0.33193600600E+03  0.00000000000E+00 0. -1.
         23    2    1    2    0    0  0.86315016898E+02  0.47551600939E+02 -0.11184271195E+03  0.19459609139E+03  0.12508960658E+03 0.  0.
          5    1    3    3  502    0  0.89990139105E+02 -0.19186600617E+02 -0.60340026334E+02  0.11011240601E+03  0.41800000000E+01 0. -1.
         -5    1    3    3    0  502 -0.36751222069E+01  0.66738201556E+02 -0.51502685619E+02  0.84483685384E+02  0.41800000000E+01 0. -1.
        -11    1    1    2    0    0  0.13342574074E+02 -0.73403607898E+01 -0.58917713951E+02  0.60853941504E+02  0.00000000000E+00 0. -1.
         11    1    1    2    0    0 -0.99657590973E+02 -0.40211240149E+02 -0.94534505031E+02  0.14312704816E+03  0.00000000000E+00 0.  1.
</event>
<event>
 7    1  0.6473813E-006  0.1428202E+03  0.7561462E-02  0.1209584E+00
          2   -1    0    0  501    0  0.00000000000E+00  0.00000000000E+00  0.50944988431E+03  0.50944988431E+03  0.00000000000E+00 0. -1.
         -2   -1    0    0    0  501 -0.00000000000E+00 -0.00000000000E+00 -0.45756171940E+02  0.45756171940E+02  0.00000000000E+00 0.  1.
         23    2    1    2    0    0  0.68426068840E+02  0.83984602727E+02  0.24112241342E+03  0.29244275993E+03  0.12508880520E+03 0.  0.
          5    1    3    3  502    0 -0.13201599333E+02  0.59272418351E+02  0.17241430691E+03  0.18284328654E+03  0.41800000000E+01 0.  1.
         -5    1    3    3    0  502  0.81627668173E+02  0.24712184376E+02  0.68708106510E+02  0.10959947339E+03  0.41800000000E+01 0.  1.
        -11    1    1    2    0    0  0.15365239218E+02 -0.43872927654E+02  0.66498795925E+02  0.81135776428E+02  0.00000000000E+00 0.  1.
         11    1    1    2    0    0 -0.83791308058E+02 -0.40111675073E+02  0.15607250302E+03  0.18162751989E+03  0.00000000000E+00 0. -1.
</event>
<event>
 7    1  0.6473813E-006  0.1420823E+03  0.7561462E-02  0.1210554E+00
         -1   -1    0    0    0  501 -0.00000000000E+00  0.00000000000E+00  0.29206520758E+02  0.29206520758E+02  0.00000000000E+00 0.  1.
          1   -1    0    0  501    0  0.00000000000E+00 -0.00000000000E+00 -0.74148798112E+03  0.74148798112E+03  0.00000000000E+00 0. -1.
         23    2    1    2    0    0 -0.61978283693E+02 -0.77483845785E+02 -0.38548668388E+03  0.41724414784E+03  0.12509053303E+03 0.  0.
          5    1    3    3  502    0 -0.98075728774E+02 -0.44012424361E+02 -0.22634718332E+03  0.25061217422E+03  0.41800000000E+01 0.  1.
         -5    1    3    3    0  502  0.36097445082E+02 -0.33471421424E+02 -0.15913950056E+03  0.16663197362E+03  0.41800000000E+01 0.  1.
        -11    1    1    2    0    0  0.46059650782E+02 -0.20143628109E+01 -0.17939101051E+03  0.18522063530E+03  0.00000000000E+00 0. -1.
         11    1    1    2    0    0  0.15918632911E+02  0.79498208596E+02 -0.14740376597E+03  0.16822971874E+03  0.00000000000E+00 0.  1.
</event>
<event>
 7    1  0.6473813E-006  0.2735301E+03  0.7561462E-02  0.1099276E+00
         -1   -1    0    0    0  501 -0.00000000000E+00  0.00000000000E+00  0.27719408532E+03  0.27719408532E+03  0.00000000000E+00 0.  1.
          1   -1    0    0  501    0  0.00000000000E+00 -0.00000000000E+00 -0.31311413978E+03  0.31311413978E+03  0.00000000000E+00 0. -1.
         23    2    1    2    0    0 -0.50096375563E+02 -0.25001779470E+03  0.81174730074E+02  0.29537822356E+03  0.12506163936E+03 0.  0.
          5    1    3    3  502    0 -0.77083386220E+02 -0.11398596572E+03  0.65161591473E+01  0.13782083131E+03  0.41800000000E+01 0.  1.
         -5    1    3    3    0  502  0.26987010656E+02 -0.13603182898E+03  0.74658570927E+02  0.15755739225E+03  0.41800000000E+01 0.  1.
        -11    1    1    2    0    0  0.70684086591E+02  0.12210111783E+03 -0.58465001997E+02  0.15271895603E+03  0.00000000000E+00 0. -1.
         11    1    1    2    0    0 -0.20587711028E+02  0.12791667687E+03 -0.58629782530E+02  0.14221104552E+03  0.00000000000E+00 0.  1.
</event>
<event>
 7    1  0.6473813E-006  0.1083560E+03  0.7561462E-02  0.1263645E+00
         -1   -1    0    0    0  501 -0.00000000000E+00  0.00000000000E+00  0.11075340372E+03  0.11075340372E+03  0.00000000000E+00 0.  1.
          1   -1    0    0  501    0  0.00000000000E+00 -0.00000000000E+00 -0.19272235230E+03  0.19272235230E+03  0.00000000000E+00 0. -1.
         23    2    1    2    0    0 -0.70828249466E+02 -0.67876646700E+02 -0.37228243047E+02  0.16303647392E+03  0.12478409217E+03 0.  0.
          5    1    3    3  502    0 -0.40169598603E+01 -0.16016351311E+02  0.43083736709E+02  0.46328611512E+02  0.41800000000E+01 0.  1.
         -5    1    3    3    0  502 -0.66811289605E+02 -0.51860295389E+02 -0.80311979755E+02  0.11670786241E+03  0.41800000000E+01 0.  1.
        -11    1    1    2    0    0 -0.40387498592E+00  0.37594861230E+02  0.17161697489E+02  0.41328689390E+02  0.00000000000E+00 0.  1.
         11    1    1    2    0    0  0.71232124452E+02  0.30281785470E+02 -0.61902403026E+02  0.99110592701E+02  0.00000000000E+00 0. -1.
</event>
<event>
 7    1  0.6473813E-006  0.1343331E+03  0.7561462E-02  0.1221164E+00
         -2   -1    0    0    0  501 -0.00000000000E+00  0.00000000000E+00  0.42397861302E+02  0.42397861302E+02  0.00000000000E+00 0.  1.
          2   -1    0    0  501    0  0.00000000000E+00 -0.00000000000E+00 -0.63905070453E+03  0.63905070453E+03  0.00000000000E+00 0. -1.
         23    2    1    2    0    0 -0.11406342152E+03  0.28019724207E+01 -0.22281557830E+03  0.27985951188E+03  0.12512493467E+03 0.  0.
          5    1    3    3  502    0 -0.74817409678E+02 -0.19022598189E+02 -0.22164799525E+03  0.23474413780E+03  0.41800000000E+01 0. -1.
         -5    1    3    3    0  502 -0.39246011844E+02  0.21824570610E+02 -0.11675830514E+01  0.45115374077E+02  0.41800000000E+01 0. -1.
        -11    1    1    2    0    0  0.95604891643E+02 -0.40849628072E+02 -0.27937354256E+03  0.29809153578E+03  0.00000000000E+00 0.  1.
         11    1    1    2    0    0  0.18458529879E+02  0.38047655651E+02 -0.94463722369E+02  0.10349751818E+03  0.00000000000E+00 0. -1.
</event>
<event>
 7    1  0.6473813E-006  0.7213568E+02  0.7561462E-02  0.1352978E+00
         -1   -1    0    0    0  501 -0.00000000000E+00  0.00000000000E+00  0.59614617205E+02  0.59614617205E+02  0.00000000000E+00 0.  1.
          1   -1    0    0  501    0  0.00000000000E+00 -0.00000000000E+00 -0.22863413011E+03  0.22863413011E+03  0.00000000000E+00 0. -1.
         23    2    1    2    0    0 -0.62512336787E+01  0.38828635655E+02 -0.70034648305E+02  0.14865596685E+03  0.12508798362E+03 0.  0.
          5    1    3    3  502    0 -0.21680874881E+02  0.43073404327E+02 -0.10186771809E+03  0.11278245823E+03  0.41800000000E+01 0.  1.
         -5    1    3    3    0  502  0.15429641202E+02 -0.42447686717E+01  0.31833069783E+02  0.35873508617E+02  0.41800000000E+01 0.  1.
        -11    1    1    2    0    0  0.21517905625E+02  0.13107049232E+02 -0.77257469675E+02  0.81262116775E+02  0.00000000000E+00 0. -1.
         11    1    1    2    0    0 -0.15266671946E+02 -0.51935684887E+02 -0.21727394928E+02  0.58330663697E+02  0.00000000000E+00 0.  1.
</event>
<event>
 7    1  0.6473813E-006  0.1899464E+03  0.7561462E-02  0.1158510E+00
          4   -1    0    0  501    0  0.00000000000E+00  0.00000000000E+00  0.15527471902E+03  0.15527471902E+03  0.00000000000E+00 0. -1.
         -4   -1    0    0    0  501 -0.00000000000E+00 -0.00000000000E+00 -0.48370138980E+03  0.48370138980E+03  0.00000000000E+00 0.  1.
         23    2    1    2    0    0 -0.83609494959E+02 -0.13323941246E+03 -0.39727563418E+03  0.44521812209E+03  0.12509179847E+03 0.  0.
          5    1    3    3  502    0 -0.10433242098E+03 -0.54239283457E+02 -0.20683359621E+03  0.23795958241E+03  0.41800000000E+01 0.  1.
         -5    1    3    3    0  502  0.20722926025E+02 -0.79000129006E+02 -0.19044203797E+03  0.20725853968E+03  0.41800000000E+01 0.  1.
        -11    1    1    2    0    0  0.18238944778E+02  0.10933471187E+03  0.50301370951E+02  0.12172496148E+03  0.00000000000E+00 0.  1.
         11    1    1    2    0    0  0.65370550182E+02  0.23904700591E+02  0.18547592448E+02  0.72033025253E+02  0.00000000000E+00 0. -1.
</event>
<event>
 7    1  0.6473813E-006  0.2294811E+03  0.7561462E-02  0.1127006E+00
         -1   -1    0    0    0  501 -0.00000000000E+00  0.00000000000E+00  0.25306708772E+03  0.25306708772E+03  0.00000000000E+00 0.  1.
          1   -1    0    0  501    0  0.00000000000E+00 -0.00000000000E+00 -0.50836504223E+03  0.50836504223E+03  0.00000000000E+00 0. -1.
         23    2    1    2    0    0 -0.16642134183E+03 -0.12876776090E+03  0.15637987594E+03  0.29048053479E+03  0.12508827376E+03 0.  0.
          5    1    3    3  502    0 -0.62805577570E+02 -0.12414311193E+03  0.10681709157E+03  0.17545203409E+03  0.41800000000E+01 0. -1.
         -5    1    3    3    0  502 -0.10361576426E+03 -0.46246489737E+01  0.49562784366E+02  0.11502850071E+03  0.41800000000E+01 0. -1.
        -11    1    1    2    0    0  0.41652225705E+02  0.81726659590E+01 -0.30909679206E+02  0.52508176922E+02  0.00000000000E+00 0.  1.
         11    1    1    2    0    0  0.12476911612E+03  0.12059509494E+03 -0.38076815125E+03  0.41844341824E+03  0.00000000000E+00 0. -1.
</event>
<event>
 7    1  0.6473813E-006  0.1160963E+03  0.7561462E-02  0.1249680E+00
         -2   -1    0    0    0  501 -0.00000000000E+00  0.00000000000E+00  0.14515856824E+02  0.14515856824E+02  0.00000000000E+00 0.  1.
          2   -1    0    0  501    0  0.00000000000E+00 -0.00000000000E+00 -0.93983383102E+03  0.93983383102E+03  0.00000000000E+00 0. -1.
         23    2    1    2    0    0 -0.33392562239E+02 -0.30817669431E+02 -0.54647649930E+03  0.56244824779E+03  0.12508667074E+03 0.  0.
          5    1    3    3  502    0 -0.25063491597E+02  0.47670742243E+02 -0.21654592892E+03  0.22318219017E+03  0.41800000000E+01 0. -1.
         -5    1    3    3    0  502 -0.83290706421E+01 -0.78488411674E+02 -0.32993057038E+03  0.33926605762E+03  0.41800000000E+01 0. -1.
        -11    1    1    2    0    0  0.61588639389E+02  0.34667423534E+02 -0.24081315123E+03  0.25097004714E+03  0.00000000000E+00 0. -1.
         11    1    1    2    0    0 -0.28196077150E+02 -0.38497541032E+01 -0.13802832366E+03  0.14093139291E+03  0.00000000000E+00 0.  1.
</event>
<event>
 7    1  0.6473813E-006  0.1205713E+03  0.7561462E-02  0.1242157E+00
          3   -1    0    0  501    0  0.00000000000E+00  0.00000000000E+00  0.39117818645E+03  0.39117818645E+03  0.00000000000E+00 0. -1.
         -3   -1    0    0    0  501 -0.00000000000E+00 -0.00000000000E+00 -0.59637377080E+02  0.59637377080E+02  0.00000000000E+00 0.  1.
         23    2    1    2    0    0  0.23086362137E+01  0.62940295384E+02  0.50436841206E+02  0.14885500533E+03  0.12508847699E+03 0.  0.
          5    1    3    3  502    0 -0.25868517510E+02  0.88994983038E+02  0.58146432650E+02  0.10948866258E+03  0.41800000000E+01 0. -1.
         -5    1    3    3    0  502  0.28177153724E+02 -0.26054687655E+02 -0.77095914435E+01  0.39366342743E+02  0.41800000000E+01 0. -1.
        -11    1    1    2    0    0 -0.42154237692E+02 -0.54731894659E+02  0.16257323398E+03  0.17664262355E+03  0.00000000000E+00 0. -1.
         11    1    1    2    0    0  0.39845601478E+02 -0.82084007248E+01  0.11853073419E+03  0.12531793466E+03  0.00000000000E+00 0.  1.
</event>
<event>
 7    1  0.6473813E-006  0.1058682E+03  0.7561462E-02  0.1268418E+00
          1   -1    0    0  501    0  0.00000000000E+00  0.00000000000E+00  0.24394891126E+03  0.24394891126E+03  0.00000000000E+00 0. -1.
         -1   -1    0    0    0  501 -0.00000000000E+00 -0.00000000000E+00 -0.50729851273E+02  0.50729851273E+02  0.00000000000E+00 0.  1.
         23    2    1    2    0    0 -0.60528891964E+01 -0.16013659285E+02  0.83649405542E+02  0.15144831359E+03  0.12508514656E+03 0.  0.
          5    1    3    3  502    0 -0.55368136769E+02 -0.37054231534E+02  0.23516573497E+02  0.70775336615E+02  0.41800000000E+01 0.  1.
         -5    1    3    3    0  502  0.49315247573E+02  0.21040572249E+02  0.60132832045E+02  0.80672976972E+02  0.41800000000E+01 0.  1.
        -11    1    1    2    0    0 -0.65279132533E+01 -0.36563606897E+02  0.55408718332E+02  0.66705599974E+02  0.00000000000E+00 0. -1.
         11    1    1    2    0    0  0.12580802450E+02  0.52577266182E+02  0.54160936113E+02  0.76524848971E+02  0.00000000000E+00 0.  1.
</event>
<event>
 7    1  0.6473813E-006  0.1021377E+03  0.7561462E-02  0.1275864E+00
          2   -1    0    0  501    0  0.00000000000E+00  0.00000000000E+00  0.27142497016E+03  0.27142497016E+03  0.00000000000E+00 0. -1.
         -2   -1    0    0    0  501 -0.00000000000E+00 -0.00000000000E+00 -0.92747063560E+02  0.92747063560E+02  0.00000000000E+00 0.  1.
         23    2    1    2    0    0  0.25542977152E+02 -0.78396725166E+02  0.32531283533E+01  0.14991462074E+03  0.12516117797E+03 0.  0.
          5    1    3    3  502    0  0.79558347214E+01 -0.92931760638E+02  0.43856495195E+02  0.10315266362E+03  0.41800000000E+01 0. -1.
         -5    1    3    3    0  502  0.17587142431E+02  0.14535035472E+02 -0.40603366842E+02  0.46761957123E+02  0.41800000000E+01 0. -1.
        -11    1    1    2    0    0  0.18122566827E+01  0.42713813919E+02  0.11491021629E+02  0.44269603024E+02  0.00000000000E+00 0.  1.
         11    1    1    2    0    0 -0.27355233835E+02  0.35682911247E+02  0.16393375662E+03  0.16998780995E+03  0.00000000000E+00 0. -1.
</event>
<event>
 7    1  0.6473813E-006  0.8175928E+02  0.7561462E-02  0.1324132E+00
         -3   -1    0    0    0  501 -0.00000000000E+00  0.00000000000E+00  0.23708939169E+03  0.23708939169E+03  0.00000000000E+00 0.  1.
          3   -1    0    0  501    0  0.00000000000E+00 -0.00000000000E+00 -0.55254869878E+02  0.55254869878E+02  0.00000000000E+00 0. -1.
         23    2    1    2    0    0 -0.27073188415E+02  0.25010157971E+02  0.11909870230E+03  0.17661663038E+03  0.12510182934E+03 0.  0.
          5    1    3    3  502    0  0.16431928205E+02 -0.15298569721E+02  0.11475207639E+03  0.11700241851E+03  0.41800000000E+01 0. -1.
         -5    1    3    3    0  502 -0.43505116620E+02  0.40308727692E+02  0.43466259095E+01  0.59614211871E+02  0.41800000000E+01 0. -1.
        -11    1    1    2    0    0  0.51575709000E+02 -0.23499587809E+02  0.99926137151E+01  0.57551166061E+02  0.00000000000E+00 0. -1.
         11    1    1    2    0    0 -0.24502520586E+02 -0.15105701620E+01  0.52743205789E+02  0.58176465123E+02  0.00000000000E+00 0.  1.
</event>
<event>
 7    1  0.6473813E-006  0.1780827E+03  0.7561462E-02  0.1169672E+00
         -2   -1    0    0    0  501 -0.00000000000E+00  0.00000000000E+00  0.43809500970E+03  0.43809500970E+03  0.00000000000E+00 0.  1.
          2   -1    0    0  501    0  0.00000000000E+00 -0.00000000000E+00 -0.17589836906E+03  0.17589836906E+03  0.00000000000E+00 0. -1.
         23    2    1    2    0    0 -0.10376417571E+03 -0.12093537546E+03  0.35792915331E+03  0.41128286107E+03  0.12509174162E+03 0.  0.
          5    1    3    3  502    0 -0.43883252762E+02  0.15080784096E+02  0.13936314236E+03  0.14694464185E+03  0.41800000000E+01 0. -1.
         -5    1    3    3    0  502 -0.59880922951E+02 -0.13601615956E+03  0.21856601095E+03  0.26433821922E+03  0.41800000000E+01 0. -1.
        -11    1    1    2    0    0  0.71405614350E+02  0.97935472387E+02 -0.28305268339E+02  0.12446407806E+03  0.00000000000E+00 0.  1.
         11    1    1    2    0    0  0.32358561363E+02  0.22999903076E+02 -0.67427244341E+02  0.78246439627E+02  0.00000000000E+00 0. -1.
</event>
<event>
 7    1  0.6473813E-006  0.2671934E+03  0.7561462E-02  0.1102897E+00
         -2   -1    0    0    0  501 -0.00000000000E+00  0.00000000000E+00  0.34868969582E+02  0.34868969582E+02  0.00000000000E+00 0.  1.
          2   -1    0    0  501    0  0.00000000000E+00 -0.00000000000E+00 -0.23737090700E+04  0.23737090700E+04  0.00000000000E+00 0. -1.
         23    2    1    2    0    0 -0.26083687698E+03  0.47901057686E+02 -0.12881173561E+04  0.13210684980E+04  0.12508103649E+03 0.  0.
          5    1    3    3  502    0 -0.35177974052E+02 -0.87035040568E+01 -0.53742822666E+02  0.64953862313E+02  0.41800000000E+01 0.  1.
         -5    1    3    3    0  502 -0.22565890293E+03  0.56604561743E+02 -0.12343745334E+04  0.12561146357E+04  0.41800000000E+01 0.  1.
        -11    1    1    2    0    0  0.17161416614E+03 -0.29881847297E+02 -0.50383567746E+03  0.53309918093E+03  0.00000000000E+00 0.  1.
         11    1    1    2    0    0  0.89222710843E+02 -0.18019210389E+02 -0.54688706682E+03  0.55441036059E+03  0.00000000000E+00 0. -1.
</event>
<event>
 7    1  0.6473813E-006  0.1302945E+03  0.7561462E-02  0.1227019E+00
          1   -1    0    0  501    0  0.00000000000E+00  0.00000000000E+00  0.63755927073E+03  0.63755927073E+03  0.00000000000E+00 0. -1.
         -1   -1    0    0    0  501 -0.00000000000E+00 -0.00000000000E+00 -0.34737595351E+02  0.34737595351E+02  0.00000000000E+00 0.  1.
         23    2    1    2    0    0  0.45857332014E+02 -0.88492362112E+02  0.28518874948E+03  0.32697695134E+03  0.12509001088E+03 0.  0.
          5    1    3    3  502    0  0.30679557367E+01 -0.10998318878E+03  0.17493048077E+03  0.20669750766E+03  0.41800000000E+01 0.  1.
         -5    1    3    3    0  502  0.42789376277E+02  0.21490826670E+02  0.11025826871E+03  0.12027944368E+03  0.41800000000E+01 0.  1.
        -11    1    1    2    0    0 -0.14360817715E+02  0.90860748389E+01  0.62652872852E+00  0.17005363262E+02  0.00000000000E+00 0.  1.
         11    1    1    2    0    0 -0.31496514299E+02  0.79406287274E+02  0.31700639716E+03  0.32831455148E+03  0.00000000000E+00 0. -1.
</event>
<event>
 7    1  0.6473813E-006  0.1041120E+03  0.7561462E-02  0.1271879E+00
          1   -1    0    0  501    0  0.00000000000E+00  0.00000000000E+00  0.44788073103E+03  0.44788073103E+03  0.00000000000E+00 0. -1.
         -1   -1    0    0    0  501 -0.00000000000E+00 -0.00000000000E+00 -0.34591152919E+02  0.34591152919E+02  0.00000000000E+00 0.  1.
         23    2    1    2    0    0 -0.70108080440E+02  0.13646546501E+02  0.18579853103E+03  0.23509334624E+03  0.12508563522E+03 0.  0.
          5    1    3    3  502    0 -0.22764986788E+01 -0.33682440467E+02  0.13205612044E+03  0.13636708029E+03  0.41800000000E+01 0.  1.
         -5    1    3    3    0  502 -0.67831581762E+02  0.47328986968E+02  0.53742410585E+02  0.98726265943E+02  0.41800000000E+01 0.  1.
        -11    1    1    2    0    0  0.14104962879E+02 -0.29913567371E+02  0.12656962059E+03  0.13081911308E+03  0.00000000000E+00 0.  1.
         11    1    1    2    0    0  0.56003117561E+02  0.16267020870E+02  0.10092142650E+03  0.11655942463E+03  0.00000000000E+00 0. -1.
</event>
<event>
 7    1  0.6473813E-006  0.9781798E+02  0.7561462E-02  0.1284953E+00
          1   -1    0    0  501    0  0.00000000000E+00  0.00000000000E+00  0.36776896912E+03  0.36776896912E+03  0.00000000000E+00 0. -1.
         -1   -1    0    0    0  501 -0.00000000000E+00 -0.00000000000E+00 -0.11443322132E+03  0.11443322132E+03  0.00000000000E+00 0.  1.
         23    2    1    2    0    0  0.13764406835E+02 -0.53467567824E+02 -0.66572243407E+02  0.14500175634E+03  0.11638473287E+03 0.  0.
          5    1    3    3  502    0 -0.31782842916E+02  0.13952810877E+02 -0.51348399569E+02  0.62120532624E+02  0.41800000000E+01 0. -1.
         -5    1    3    3    0  502  0.45547249750E+02 -0.67420378700E+02 -0.15223843838E+02  0.82881223719E+02  0.41800000000E+01 0.  1.
        -11    1    1    2    0    0 -0.73313075289E+01 -0.11652211057E+02  0.36482112736E+01  0.14241893768E+02  0.00000000000E+00 0.  1.
         11    1    1    2    0    0 -0.64330993058E+01  0.65119778880E+02  0.31625977994E+03  0.32295854033E+03  0.00000000000E+00 0. -1.
</event>
<event>
 7    1  0.6473813E-006  0.5530683E+02  0.7561462E-02  0.1418653E+00
          1   -1    0    0  501    0  0.00000000000E+00  0.00000000000E+00  0.15879546048E+03  0.15879546048E+03  0.00000000000E+00 0. -1.
         -1   -1    0    0    0  501 -0.00000000000E+00 -0.00000000000E+00 -0.89330616049E+02  0.89330616049E+02  0.00000000000E+00 0.  1.
         23    2    1    2    0    0 -0.37252040117E+02  0.11402173565E+01  0.88030249834E+01  0.13082157855E+03  0.12509107713E+03 0.  0.
          5    1    3    3  502    0 -0.32347702692E+02 -0.61692579199E+00  0.65795569360E+02  0.73438980210E+02  0.41800000000E+01 0.  1.
         -5    1    3    3    0  502 -0.49043374254E+01  0.17571431485E+01 -0.56992544376E+02  0.57382598339E+02  0.41800000000E+01 0.  1.
        -11    1    1    2    0    0  0.93060725071E+01 -0.29837797506E+02 -0.12685863683E+02  0.33731710347E+02  0.00000000000E+00 0.  1.
         11    1    1    2    0    0  0.27945967610E+02  0.28697580150E+02  0.73347683130E+02  0.83572787633E+02  0.00000000000E+00 0. -1.
</event>
<event>
 6    1  0.6473813E-006  0.1253117E+03  0.7561462E-02  0.1234583E+00
          1   -1    0    0  501    0  0.00000000000E+00  0.00000000000E+00  0.59631542246E+03  0.59631542246E+03  0.00000000000E+00 0. -1.
         -1   -1    0    0    0  501 -0.00000000000E+00 -0.00000000000E+00 -0.30432389953E+02  0.30432389953E+02  0.00000000000E+00 0.  1.
          5    1    1    2  502    0  0.35618723865E+02  0.57913316593E+02  0.16243831095E+03  0.17614290503E+03  0.41800000000E+01 0. -1.
         -5    1    1    2    0  502 -0.81569655286E+02 -0.31446993656E+02  0.12109560127E+03  0.14941264713E+03  0.41800000000E+01 0.  1.
        -11    1    1    2    0    0  0.67685479551E+02 -0.27881054093E+02  0.25949116429E+03  0.26961888225E+03  0.00000000000E+00 0. -1.
         11    1    1    2    0    0 -0.21734548130E+02  0.14147311566E+01  0.22857955992E+02  0.31573378007E+02  0.00000000000E+00 0.  1.
</event>
<event>
 7    1  0.6473813E-006  0.1674831E+03  0.7561462E-02  0.1180498E+00
         -2   -1    0    0    0  501 -0.00000000000E+00  0.00000000000E+00  0.65936673429E+02  0.65936673429E+02  0.00000000000E+00 0.  1.
          2   -1    0    0  501    0  0.00000000000E+00 -0.00000000000E+00 -0.67942792520E+03  0.67942792520E+03  0.00000000000E+00 0. -1.
         23    2    1    2    0    0  0.67434252221E+02 -0.12751878230E+03 -0.12715897753E+03  0.22940222762E+03  0.12509020049E+03 0.  0.
          5    1    3    3  502    0 -0.24978565479E+02 -0.78092567522E+02 -0.33091732884E+02  0.88515044037E+02  0.41800000000E+01 0.  1.
         -5    1    3    3    0  502  0.92412817700E+02 -0.49426214782E+02 -0.94067244649E+02  0.14088718359E+03  0.41800000000E+01 0.  1.
        -11    1    1    2    0    0 -0.15519064529E+02  0.75333547617E+01 -0.61710192724E+01  0.18321415794E+02  0.00000000000E+00 0.  1.
         11    1    1    2    0    0 -0.51915187691E+02  0.11998542754E+03 -0.48016125496E+03  0.49764095521E+03  0.00000000000E+00 0. -1.
</event>
<event>
 7    1  0.6473813E-006  0.1022336E+03  0.7561462E-02  0.1275668E+00
          1   -1    0    0  501    0  0.00000000000E+00  0.00000000000E+00  0.20903327473E+03  0.20903327473E+03  0.00000000000E+00 0. -1.
         -1   -1    0    0    0  501 -0.00000000000E+00 -0.00000000000E+00 -0.82645105373E+02  0.82645105373E+02  0.00000000000E+00 0.  1.
         23    2    1    2    0    0 -0.33223642928E+02 -0.44767111245E+02  0.10160104252E+02  0.13732539305E+03  0.12508849332E+03 0.  0.
          5    1    3    3  502    0  0.33371195445E+02 -0.12946470988E+02  0.43280733633E+02  0.56319997339E+02  0.41800000000E+01 0.  1.
         -5    1    3    3    0  502 -0.66594838373E+02 -0.31820640257E+02 -0.33120629381E+02  0.81005395715E+02  0.41800000000E+01 0.  1.
        -11    1    1    2    0    0  0.42957260347E+02  0.61576781154E+02  0.11139737775E+03  0.13433689725E+03  0.00000000000E+00 0. -1.
         11    1    1    2    0    0 -0.97336174187E+01 -0.16809669909E+02  0.48306873566E+01  0.20016089799E+02  0.00000000000E+00 0.  1.
</event>
<event>
 7    1  0.6473813E-006  0.1226838E+03  0.7561462E-02  0.1238734E+00
          1   -1    0    0  501    0  0.00000000000E+00  0.00000000000E+00  0.41712366140E+02  0.41712366140E+02  0.00000000000E+00 0. -1.
         -1   -1    0    0    0  501 -0.00000000000E+00 -0.00000000000E+00 -0.38441310032E+03  0.38441310032E+03  0.00000000000E+00 0.  1.
         23    2    1    2    0    0 -0.26935464492E+02  0.59037276343E+02 -0.18210387604E+03  0.23024605413E+03  0.12506200273E+03 0.  0.
          5    1    3    3  502    0  0.24799110968E+02  0.74899813020E+02 -0.14292380946E+03  0.16330849827E+03  0.41800000000E+01 0. -1.
         -5    1    3    3    0  502 -0.51734575460E+02 -0.15862536677E+02 -0.39180066583E+02  0.66937555866E+02  0.41800000000E+01 0. -1.
        -11    1    1    2    0    0 -0.87273000105E+01 -0.73196316847E+02 -0.10246280397E+03  0.12622397856E+03  0.00000000000E+00 0.  1.
         11    1    1    2    0    0  0.35662764502E+02  0.14159040504E+02 -0.58134054170E+02  0.69655433773E+02  0.00000000000E+00 0. -1.
</event>
<event>
 7    1  0.6473813E-006  0.1333568E+03  0.7561462E-02  0.1222558E+00
         -2   -1    0    0    0  501 -0.00000000000E+00  0.00000000000E+00  0.30563220701E+03  0.30563220701E+03  0.00000000000E+00 0.  1.
          2   -1    0    0  501    0  0.00000000000E+00 -0.00000000000E+00 -0.93513659967E+02  0.93513659967E+02  0.00000000000E+00 0. -1.
         23    2    1    2    0    0  0.11145626070E+03 -0.27035911266E+02  0.17919886949E+03  0.24680634514E+03  0.12509076155E+03 0.  0.
          5    1    3    3  502    0  0.12111280892E+03 -0.25091104273E+02  0.19304511570E+03  0.22930714139E+03  0.41800000000E+01 0.  1.
         -5    1    3    3    0  502 -0.96565482229E+01 -0.19448069931E+01 -0.13846246204E+02  0.17499203747E+02  0.41800000000E+01 0.  1.
        -11    1    1    2    0    0 -0.52872656764E+01  0.25536640788E+02  0.37943548072E+02  0.46041155952E+02  0.00000000000E+00 0.  1.
         11    1    1    2    0    0 -0.10616899502E+03  0.14992704780E+01 -0.50238705233E+01  0.10629836589E+03  0.00000000000E+00 0. -1.
</event>
<event>
 7    1  0.8835925E-006  0.2200696E+03  0.7561462E-02  0.1133831E+00
         -1   -1    0    0    0  501 -0.00000000000E+00  0.00000000000E+00  0.16849982674E+03  0.16849982674E+03  0.00000000000E+00 0.  1.
          1   -1    0    0  501    0  0.00000000000E+00 -0.00000000000E+00 -0.31162370149E+03  0.31162370149E+03  0.00000000000E+00 0. -1.
         23    2    1    2    0    0  0.18328186227E+03  0.83519308112E+02 -0.72677910917E+02  0.24798686940E+03  0.12509073824E+03 0.  0.
          5    1    3    3  502    0 -0.18721505667E+02  0.11921875642E+02 -0.43276158791E+01  0.22996229092E+02  0.41800000000E+01 0. -1.
         -5    1    3    3    0  502  0.20200336793E+03  0.71597432470E+02 -0.68350295038E+02  0.22499064030E+03  0.41800000000E+01 0. -1.
        -11    1    1    2    0    0 -0.74378353152E+02 -0.19587596672E+02  0.16696556565E+02  0.78705707304E+02  0.00000000000E+00 0.  1.
         11    1    1    2    0    0 -0.10890350911E+03 -0.63931711440E+02 -0.87142520395E+02  0.15343095152E+03  0.00000000000E+00 0. -1.
</event>
<event>
 7    1  0.6473813E-006  0.9952891E+02  0.7561462E-02  0.1281290E+00
         -2   -1    0    0    0  501 -0.00000000000E+00  0.00000000000E+00  0.85451983096E+02  0.85451983096E+02  0.00000000000E+00 0.  1.
          2   -1    0    0  501    0  0.00000000000E+00 -0.00000000000E+00 -0.16195872975E+03  0.16195872975E+03  0.00000000000E+00 0. -1.
         23    2    1    2    0    0 -0.53580129345E+01  0.19827490789E+02  0.20767631298E+01  0.12678133641E+03  0.12508939453E+03 0.  0.
          5    1    3    3  502    0  0.95231330683E+00 -0.43788933726E+02 -0.31822499498E+02  0.54300289979E+02  0.41800000000E+01 0. -1.
         -5    1    3    3    0  502 -0.63103262413E+01  0.63616424515E+02  0.33899262628E+02  0.72481046433E+02  0.41800000000E+01 0. -1.
        -11    1    1    2    0    0 -0.37854680282E+02  0.91757546010E+01 -0.27309079843E+02  0.47570549016E+02  0.00000000000E+00 0. -1.
         11    1    1    2    0    0  0.43212693217E+02 -0.29003245390E+02 -0.51274429943E+02  0.73058827422E+02  0.00000000000E+00 0.  1.
</event>
<event>
 7    1  0.6473813E-006  0.1686940E+03  0.7561462E-02  0.1179217E+00
          1   -1    0    0  501    0  0.00000000000E+00  0.00000000000E+00  0.14898943721E+03  0.14898943721E+03  0.00000000000E+00 0. -1.
         -1   -1    0    0    0  501 -0.00000000000E+00 -0.00000000000E+00 -0.22270821748E+03  0.22270821748E+03  0.00000000000E+00 0.  1.
         23    2    1    2    0    0 -0.11771841321E+03 -0.85123093267E+02 -0.27953467741E+02  0.19373061827E+03  0.12508633131E+03 0.  0.
          5    1    3    3  502    0 -0.20483149100E+01 -0.67902913184E+02 -0.34932180069E+02  0.76503142532E+02  0.41800000000E+01 0.  1.
         -5    1    3    3    0  502 -0.11567009830E+03 -0.17220180083E+02  0.69787123281E+01  0.11722747574E+03  0.41800000000E+01 0.  1.
        -11    1    1    2    0    0  0.99896471267E+02  0.47371536229E+02 -0.68867735561E+02  0.13025410710E+03  0.00000000000E+00 0.  1.
         11    1    1    2    0    0  0.17821941943E+02  0.37751557038E+02  0.23102423027E+02  0.47712929308E+02  0.00000000000E+00 0. -1.
</event>
<event>
 7    1  0.6473813E-006  0.1051306E+03  0.7561462E-02  0.1269863E+00
         -2   -1    0    0    0  501 -0.00000000000E+00  0.00000000000E+00  0.16108158727E+03  0.16108158727E+03  0.00000000000E+00 0.  1.
          2   -1    0    0  501    0  0.00000000000E+00 -0.00000000000E+00 -0.83663706242E+02  0.83663706242E+02  0.00000000000E+00 0. -1.
         23    2    1    2    0    0  0.23321086615E+02  0.71610285342E+01  0.82230160137E+02  0.15167089458E+03  0.12508839921E+03 0.  0.
          5    1    3    3  502    0  0.23759034318E+02  0.64973506896E+02  0.40838967140E+02  0.80444651452E+02  0.41800000000E+01 0.  1.
         -5    1    3    3    0  502 -0.43794770314E+00 -0.57812478362E+02  0.41391192997E+02  0.71226243129E+02  0.41800000000E+01 0.  1.
        -11    1    1    2    0    0  0.13845494542E+02 -0.34286294899E+02 -0.23057910384E+02  0.43576541491E+02  0.00000000000E+00 0. -1.
         11    1    1    2    0    0 -0.37166581157E+02  0.27125266365E+02  0.18245631270E+02  0.49497857436E+02  0.00000000000E+00 0.  1.
</event>
<event>
 7    1  0.6473813E-006  0.9569390E+02  0.7561462E-02  0.1289621E+00
         -2   -1    0    0    0  501 -0.00000000000E+00  0.00000000000E+00  0.46801834485E+02  0.46801834485E+02  0.00000000000E+00 0.  1.
          2   -1    0    0  501    0  0.00000000000E+00 -0.00000000000E+00 -0.38342609720E+03  0.38342609720E+03  0.00000000000E+00 0. -1.
         23    2    1    2    0    0  0.10842055711E+02  0.33295322828E+02 -0.70842223346E+02  0.14795830332E+03  0.12508761017E+03 0.  0.
          5    1    3    3  502    0 -0.25823514028E+02 -0.24569834604E+02  0.14270751879E+02  0.38621980897E+02  0.41800000000E+01 0. -1.
         -5    1    3    3    0  502  0.36665569739E+02  0.57865157433E+02 -0.85112975224E+02  0.10933632242E+03  0.41800000000E+01 0. -1.
        -11    1    1    2    0    0 -0.43869284668E+02 -0.31086690321E+02 -0.21523295609E+03  0.22184706858E+03  0.00000000000E+00 0.  1.
         11    1    1    2    0    0  0.33027228957E+02 -0.22086325071E+01 -0.50549083279E+02  0.60422559781E+02  0.00000000000E+00 0. -1.
</event>
<event>
 7    1  0.6473813E-006  0.1417536E+03  0.7561462E-02  0.1210989E+00
         -1   -1    0    0    0  501 -0.00000000000E+00  0.00000000000E+00  0.57526249732E+02  0.57526249732E+02  0.00000000000E+00 0.  1.
          1   -1    0    0  501    0  0.00000000000E+00 -0.00000000000E+00 -0.45894513400E+03  0.45894513400E+03  0.00000000000E+00 0. -1.
         23    2    1    2    0    0 -0.11570918508E+03  0.11124277359E+02 -0.16651146996E+03  0.23850610363E+03  0.12508687694E+03 0.  0.
          5    1    3    3  502    0 -0.12402023637E+03  0.10494363593E+01 -0.72958090945E+02  0.14395303325E+03  0.41800000000E+01 0. -1.
         -5    1    3    3    0  502  0.83110512888E+01  0.10074840999E+02 -0.93553379013E+02  0.94553070386E+02  0.41800000000E+01 0. -1.
        -11    1    1    2    0    0  0.91033896323E+02  0.31598812776E+02 -0.12795306736E+03  0.16018003213E+03  0.00000000000E+00 0.  1.
         11    1    1    2    0    0  0.24675288761E+02 -0.42723090135E+02 -0.10695434695E+03  0.11778524797E+03  0.00000000000E+00 0. -1.
</event>
<event>
 7    1  0.6473813E-006  0.1988603E+03  0.7561462E-02  0.1150704E+00
          1   -1    0    0  501    0  0.00000000000E+00  0.00000000000E+00  0.84022661664E+03  0.84022661664E+03  0.00000000000E+00 0. -1.
         -1   -1    0    0    0  501 -0.00000000000E+00 -0.00000000000E+00 -0.58716729183E+02  0.58716729183E+02  0.00000000000E+00 0.  1.
         23    2    1    2    0    0  0.35803290792E+02  0.17944937258E+03  0.27946957430E+03  0.35670138327E+03  0.12509468781E+03 0.  0.
          5    1    3    3  502    0 -0.13251205259E+02  0.91496562431E+02  0.22236559753E+03  0.24085503262E+03  0.41800000000E+01 0. -1.
         -5    1    3    3    0  502  0.49054496050E+02  0.87952810144E+02  0.57103976778E+02  0.11584635065E+03  0.41800000000E+01 0. -1.
        -11    1    1    2    0    0 -0.44377986287E+02 -0.27538957465E+02  0.14566736211E+03  0.15474747245E+03  0.00000000000E+00 0.  1.
         11    1    1    2    0    0  0.85746954957E+01 -0.15191041511E+03  0.35637295104E+03  0.38749449009E+03  0.00000000000E+00 0. -1.
</event>
<event>
 7    1  0.6473813E-006  0.9018230E+02  0.7561462E-02  0.1302411E+00
          2   -1    0    0  501    0  0.00000000000E+00  0.00000000000E+00  0.60087981308E+03  0.60087981308E+03  0.00000000000E+00 0. -1.
         -2   -1    0    0    0  501 -0.00000000000E+00 -0.00000000000E+00 -0.21604003949E+02  0.21604003949E+02  0.00000000000E+00 0.  1.
         23    2    1    2    0    0 -0.20516231285E+02  0.10205472207E+02  0.26354845709E+03  0.29262828181E+03  0.12509378350E+03 0.  0.
          5    1    3    3  502    0 -0.51672165691E+02 -0.61617853508E+01  0.24883864717E+03  0.25425602260E+03  0.41800000000E+01 0.  1.
         -5    1    3    3    0  502  0.31155934406E+02  0.16367257557E+02  0.14709809927E+02  0.38372259208E+02  0.41800000000E+01 0.  1.
        -11    1    1    2    0    0  0.54995005223E+02 -0.17027512302E+02  0.15541062073E+03  0.16573125176E+03  0.00000000000E+00 0. -1.
         11    1    1    2    0    0 -0.34478773938E+02  0.68220400953E+01  0.16031673131E+03  0.16412428346E+03  0.00000000000E+00 0.  1.
</event>
<event>
 7    1  0.6473813E-006  0.1254520E+03  0.7561462E-02  0.1234365E+00
          1   -1    0    0  501    0  0.00000000000E+00  0.00000000000E+00  0.63605030794E+02  0.63605030794E+02  0.00000000000E+00 0. -1.
         -1   -1    0    0    0  501 -0.00000000000E+00 -0.00000000000E+00 -0.41405961193E+03  0.41405961193E+03  0.00000000000E+00 0.  1.
         23    2    1    2    0    0 -0.47716299292E+02 -0.62169421097E+02 -0.32023977953E+03  0.35261864990E+03  0.12507803053E+03 0.  0.
          5    1    3    3  502    0 -0.78696268598E+02 -0.57679401060E+01 -0.13438694943E+03  0.15589642844E+03  0.41800000000E+01 0.  1.
         -5    1    3    3    0  502  0.30979969306E+02 -0.56401480991E+02 -0.18585283011E+03  0.19672222146E+03  0.41800000000E+01 0.  1.
        -11    1    1    2    0    0  0.67253248537E+02  0.53894059657E+02  0.23079710212E+01  0.86214243808E+02  0.00000000000E+00 0.  1.
         11    1    1    2    0    0 -0.19536949245E+02  0.82753614401E+01 -0.32522772627E+02  0.38831749022E+02  0.00000000000E+00 0. -1.
</event>
<event>
 7    1  0.6473813E-006  0.1943220E+03  0.7561462E-02  0.1154620E+00
         -2   -1    0    0    0  501 -0.00000000000E+00  0.00000000000E+00  0.69781866298E+02  0.69781866298E+02  0.00000000000E+00 0.  1.
          2   -1    0    0  501    0  0.00000000000E+00 -0.00000000000E+00 -0.66572930811E+03  0.66572930811E+03  0.00000000000E+00 0. -1.
         23    2    1    2    0    0  0.76938568422E+01  0.18640656914E+03 -0.30988461845E+03  0.38273084178E+03  0.12509123088E+03 0.  0.
          5    1    3    3  502    0  0.75352687457E+01  0.12255162063E+03 -0.86215017947E+02  0.15008724701E+03  0.41800000000E+01 0.  1.
         -5    1    3    3    0  502  0.15858809649E+00  0.63854948512E+02 -0.22366960050E+03  0.23264359477E+03  0.41800000000E+01 0.  1.
        -11    1    1    2    0    0 -0.15597096222E+02 -0.37813015639E+00 -0.48478254431E+02  0.50926943220E+02  0.00000000000E+00 0.  1.
         11    1    1    2    0    0  0.79032393803E+01 -0.18602843899E+03 -0.23758456893E+03  0.30185338941E+03  0.00000000000E+00 0. -1.
</event>
<event>
 7    1  0.6473813E-006  0.3411020E+03  0.7561462E-02  0.1066328E+00
         -2   -1    0    0    0  501 -0.00000000000E+00  0.00000000000E+00  0.18809139004E+03  0.18809139004E+03  0.00000000000E+00 0.  1.
          2   -1    0    0  501    0  0.00000000000E+00 -0.00000000000E+00 -0.74900530225E+03  0.74900530225E+03  0.00000000000E+00 0. -1.
         23    2    1    2    0    0  0.82783467401E+01 -0.33399429408E+03 -0.12004189875E+03  0.37640274670E+03  0.12509296849E+03 0.  0.
          5    1    3    3  502    0 -0.26788232084E+02 -0.29082683359E+03 -0.67515236675E+02  0.29978931952E+03  0.41800000000E+01 0. -1.
         -5    1    3    3    0  502  0.35066578824E+02 -0.43167460486E+02 -0.52526662075E+02  0.76613427178E+02  0.41800000000E+01 0. -1.
        -11    1    1    2    0    0 -0.11252252733E+02  0.19991451897E+03 -0.33308020815E+03  0.38863202795E+03  0.00000000000E+00 0.  1.
         11    1    1    2    0    0  0.29739059924E+01  0.13407977510E+03 -0.10779180531E+03  0.17206191764E+03  0.00000000000E+00 0. -1.
</event>
<event>
 7    1  0.6473813E-006  0.1108384E+03  0.7561462E-02  0.1259025E+00
          1   -1    0    0  501    0  0.00000000000E+00  0.00000000000E+00  0.18950900950E+03  0.18950900950E+03  0.00000000000E+00 0. -1.
         -1   -1    0    0    0  501 -0.00000000000E+00 -0.00000000000E+00 -0.70845266582E+02  0.70845266582E+02  0.00000000000E+00 0.  1.
         23    2    1    2    0    0 -0.55091937071E+01 -0.33301304374E+02  0.41402602709E+02  0.13601671004E+03  0.12508813617E+03 0.  0.
          5    1    3    3  502    0  0.57455824974E+02 -0.98736095707E+01  0.35643443764E+02  0.68458655207E+02  0.41800000000E+01 0.  1.
         -5    1    3    3    0  502 -0.62965018681E+02 -0.23427694803E+02  0.57591589443E+01  0.67558054834E+02  0.41800000000E+01 0.  1.
        -11    1    1    2    0    0  0.35904806336E+02 -0.14947592255E+02  0.42237400847E+02  0.57415883365E+02  0.00000000000E+00 0.  1.
         11    1    1    2    0    0 -0.30395612629E+02  0.48248896629E+02  0.35023739359E+02  0.66921682672E+02  0.00000000000E+00 0. -1.
</event>
<event>
 7    1  0.6473813E-006  0.1337002E+03  0.7561462E-02  0.1222066E+00
         -3   -1    0    0    0  501 -0.00000000000E+00  0.00000000000E+00  0.50696261555E+03  0.50696261555E+03  0.00000000000E+00 0.  1.
          3   -1    0    0  501    0  0.00000000000E+00 -0.00000000000E+00 -0.77478578097E+02  0.77478578097E+02  0.00000000000E+00 0. -1.
         23    2    1    2    0    0  0.28220552238E+02  0.10010900795E+03  0.41266114666E+03  0.44357378878E+03  0.12510104352E+03 0.  0.
          5    1    3    3  502    0  0.53755857065E+02  0.11651274898E+03  0.36494949464E+03  0.38687274249E+03  0.41800000000E+01 0. -1.
         -5    1    3    3    0  502 -0.25535304827E+02 -0.16403741027E+02  0.47711652017E+02  0.56701046291E+02  0.41800000000E+01 0. -1.
        -11    1    1    2    0    0 -0.33504877797E+02 -0.67636125936E+02  0.52800712603E+02  0.92114806731E+02  0.00000000000E+00 0.  1.
         11    1    1    2    0    0  0.52843255588E+01 -0.32472882016E+02 -0.35977821807E+02  0.48752598136E+02  0.00000000000E+00 0. -1.
</event>
<event>
 7    1  0.6473813E-006  0.1792696E+03  0.7561462E-02  0.1168512E+00
         -1   -1    0    0    0  501 -0.00000000000E+00  0.00000000000E+00  0.24530040031E+02  0.24530040031E+02  0.00000000000E+00 0.  1.
          1   -1    0    0  501    0  0.00000000000E+00 -0.00000000000E+00 -0.14951464076E+04  0.14951464076E+04  0.00000000000E+00 0. -1.
         23    2    1    2    0    0 -0.14634711184E+03  0.38874796700E+02 -0.58892063816E+03  0.62080981142E+03  0.12509427224E+03 0.  0.
          5    1    3    3  502    0 -0.92261927748E+02 -0.29726728049E+02 -0.20152007049E+03  0.22365990450E+03  0.41800000000E+01 0.  1.
         -5    1    3    3    0  502 -0.54085184090E+02  0.68601524749E+02 -0.38740056767E+03  0.39714990692E+03  0.41800000000E+01 0.  1.
        -11    1    1    2    0    0  0.99111093277E+01 -0.36268098988E+02 -0.15741476994E+03  0.16184256204E+03  0.00000000000E+00 0.  1.
         11    1    1    2    0    0  0.13643600251E+03 -0.26066977123E+01 -0.72428095951E+03  0.73702407421E+03  0.00000000000E+00 0. -1.
</event>
<event>
 7    1  0.6473813E-006  0.1691410E+03  0.7561462E-02  0.1178747E+00
          1   -1    0    0  501    0  0.00000000000E+00  0.00000000000E+00  0.66617198594E+02  0.66617198594E+02  0.00000000000E+00 0. -1.
         -1   -1    0    0    0  501 -0.00000000000E+00 -0.00000000000E+00 -0.57216172075E+03  0.57216172075E+03  0.00000000000E+00 0.  1.
         23    2    1    2    0    0  0.74548967375E+02 -0.12350959407E+03 -0.38960398967E+03  0.43387749559E+03  0.12508494733E+03 0.  0.
          5    1    3    3  502    0  0.10258447077E+03 -0.77258366930E+02 -0.32525007464E+03  0.34971061230E+03  0.41800000000E+01 0. -1.
         -5    1    3    3    0  502 -0.28035503393E+02 -0.46251227145E+02 -0.64353915030E+02  0.84166883289E+02  0.41800000000E+01 0. -1.
        -11    1    1    2    0    0  0.97654422452E+01  0.18067747004E+02  0.76019020661E+01  0.21899686278E+02  0.00000000000E+00 0. -1.
         11    1    1    2    0    0 -0.84314409621E+02  0.10544184707E+03 -0.12354243455E+03  0.18300173747E+03  0.00000000000E+00 0.  1.
</event>
<event>
 7    1  0.6473813E-006  0.1015658E+03  0.7561462E-02  0.1277037E+00
          1   -1    0    0  501    0  0.00000000000E+00  0.00000000000E+00  0.57439560679E+03  0.57439560679E+03  0.00000000000E+00 0. -1.
         -1   -1    0    0    0  501 -0.00000000000E+00 -0.00000000000E+00 -0.24606429363E+02  0.24606429363E+02  0.00000000000E+00 0.  1.
         23    2    1    2    0    0 -0.20873732247E+02 -0.43466830933E+02  0.31079637880E+03  0.33848031731E+03  0.12509779393E+03 0.  0.
          5    1    3    3  502    0 -0.52278317385E+02 -0.48478531724E+02  0.29344789873E+03  0.30201379468E+03  0.41800000000E+01 0. -1.
         -5    1    3    3    0  502  0.31404585139E+02  0.50117007905E+01  0.17348480067E+02  0.36466522636E+02  0.41800000000E+01 0. -1.
        -11    1    1    2    0    0 -0.43157698943E+01  0.65819045262E+02  0.12092326177E+03  0.13774326781E+03  0.00000000000E+00 0.  1.
         11    1    1    2    0    0  0.25189502141E+02 -0.22352214328E+02  0.11806953685E+03  0.12277845103E+03  0.00000000000E+00 0. -1.
</event>
<event>
 7    1  0.6473813E-006  0.2574821E+03  0.7561462E-02  0.1108666E+00
          1   -1    0    0  501    0  0.00000000000E+00  0.00000000000E+00  0.18471899011E+04  0.18471899011E+04  0.00000000000E+00 0. -1.
         -1   -1    0    0    0  501 -0.00000000000E+00 -0.00000000000E+00 -0.42874271792E+02  0.42874271792E+02  0.00000000000E+00 0.  1.
         23    2    1    2    0    0  0.24885930948E+03 -0.18845971505E+02  0.68404058873E+03  0.73881692653E+03  0.12511113997E+03 0.  0.
          5    1    3    3  502    0  0.51474700341E+02 -0.36519138189E+01  0.41185053429E+02  0.66156347206E+02  0.41800000000E+01 0. -1.
         -5    1    3    3    0  502  0.19738460914E+03 -0.15194057686E+02  0.64285553530E+03  0.67266057932E+03  0.41800000000E+01 0. -1.
        -11    1    1    2    0    0 -0.74156525516E+02  0.47608976819E+02  0.38437313188E+03  0.39434567255E+03  0.00000000000E+00 0. -1.
         11    1    1    2    0    0 -0.17470278396E+03 -0.28763005315E+02  0.73590190866E+03  0.75690157376E+03  0.00000000000E+00 0.  1.
</event>
<event>
 7    1  0.6473813E-006  0.1150365E+03  0.7561462E-02  0.1251517E+00
          1   -1    0    0  501    0  0.00000000000E+00  0.00000000000E+00  0.46319949411E+03  0.46319949411E+03  0.00000000000E+00 0. -1.
         -1   -1    0    0    0  501 -0.00000000000E+00 -0.00000000000E+00 -0.42992195392E+02  0.42992195392E+02  0.00000000000E+00 0.  1.
         23    2    1    2    0    0 -0.86853673756E+02  0.30577830298E+01  0.18501685169E+03  0.23965166258E+03  0.12509505700E+03 0.  0.
          5    1    3    3  502    0 -0.21988985788E+02  0.34734941817E+02  0.33935685014E+00  0.41323349841E+02  0.41800000000E+01 0. -1.
         -5    1    3    3    0  502 -0.64864687969E+02 -0.31677158787E+02  0.18467749484E+03  0.19832831274E+03  0.41800000000E+01 0. -1.
        -11    1    1    2    0    0  0.56900305954E+02  0.35917314838E+02  0.84401391165E+02  0.10794115598E+03  0.00000000000E+00 0.  1.
         11    1    1    2    0    0  0.29953367802E+02 -0.38975097868E+02  0.15078905586E+03  0.15859887094E+03  0.00000000000E+00 0. -1.
</event>
<event>
 7    1  0.6473813E-006  0.1034015E+03  0.7561462E-02  0.1273301E+00
         -1   -1    0    0    0  501 -0.00000000000E+00  0.00000000000E+00  0.50304828599E+02  0.50304828599E+02  0.00000000000E+00 0.  1.
          1   -1    0    0  501    0  0.00000000000E+00 -0.00000000000E+00 -0.23779424173E+03  0.23779424173E+03  0.00000000000E+00 0. -1.
         23    2    1    2    0    0 -0.15220193545E+02 -0.66104031592E+01 -0.10782926229E+03  0.16597875039E+03  0.12508574681E+03 0.  0.
          5    1    3    3  502    0 -0.51813662798E+02  0.39826413988E+02 -0.44110738515E+02  0.78955864608E+02  0.41800000000E+01 0. -1.
         -5    1    3    3    0  502  0.36593469254E+02 -0.46436817147E+02 -0.63718523772E+02  0.87022885786E+02  0.41800000000E+01 0. -1.
        -11    1    1    2    0    0  0.34456858293E+02 -0.26694029690E+02 -0.13564786331E+02  0.45649202980E+02  0.00000000000E+00 0.  1.
         11    1    1    2    0    0 -0.19236664749E+02  0.33304432849E+02 -0.66095364514E+02  0.76471116954E+02  0.00000000000E+00 0. -1.
</event>
<event>
 7    1  0.6473813E-006  0.9218862E+02  0.7561462E-02  0.1297637E+00
         -2   -1    0    0    0  501 -0.00000000000E+00  0.00000000000E+00  0.17637709993E+02  0.17637709993E+02  0.00000000000E+00 0.  1.
          2   -1    0    0  501    0  0.00000000000E+00 -0.00000000000E+00 -0.53326722883E+03  0.53326722883E+03  0.00000000000E+00 0. -1.
         23    2    1    2    0    0 -0.25416421008E+02  0.13983453304E+02 -0.28642336500E+03  0.31389106535E+03  0.12509086883E+03 0.  0.
          5    1    3    3  502    0  0.48384364411E+02 -0.11366682548E+02 -0.12367813308E+03  0.13335666910E+03  0.41800000000E+01 0. -1.
         -5    1    3    3    0  502 -0.73800785418E+02  0.25350135852E+02 -0.16274523192E+03  0.18053439625E+03  0.41800000000E+01 0. -1.
        -11    1    1    2    0    0  0.79304326124E+01 -0.30974515658E+02 -0.86089632232E+02  0.91835380761E+02  0.00000000000E+00 0. -1.
         11    1    1    2    0    0  0.17485988395E+02  0.16991062354E+02 -0.14311652160E+03  0.14517849271E+03  0.00000000000E+00 0.  1.
</event>
<event>
 7    1  0.6473813E-006  0.1255741E+03  0.7561462E-02  0.1234175E+00
         -1   -1    0    0    0  501 -0.00000000000E+00  0.00000000000E+00  0.93619665439E+02  0.93619665439E+02  0.00000000000E+00 0.  1.
          1   -1    0    0  501    0  0.00000000000E+00 -0.00000000000E+00 -0.24445933267E+03  0.24445933267E+03  0.00000000000E+00 0. -1.
         23    2    1    2    0    0 -0.47423690309E+02  0.64101862593E+02 -0.50625983243E+01  0.14841112170E+03  0.12506868494E+03 0.  0.
          5    1    3    3  502    0  0.42887594610E+02  0.23681868942E+02 -0.45260775274E+01  0.49377469213E+02  0.41800000000E+01 0.  1.
         -5    1    3    3    0  502 -0.90311284919E+02  0.40419993651E+02 -0.53652079691E+00  0.99033652488E+02  0.41800000000E+01 0.  1.
        -11    1    1    2    0    0 -0.16416266520E+02 -0.16823944656E+02  0.16397681929E+00  0.23506718372E+02  0.00000000000E+00 0.  1.
         11    1    1    2    0    0  0.63839956829E+02 -0.47277917937E+02 -0.14594104573E+03  0.16616115804E+03  0.00000000000E+00 0. -1.
</event>
<event>
 7    1  0.6473813E-006  0.1484075E+03  0.7561462E-02  0.1202444E+00
          1   -1    0    0  501    0  0.00000000000E+00  0.00000000000E+00  0.16674921148E+03  0.16674921148E+03  0.00000000000E+00 0. -1.
         -1   -1    0    0    0  501 -0.00000000000E+00 -0.00000000000E+00 -0.17652395044E+03  0.17652395044E+03  0.00000000000E+00 0.  1.
         23    2    1    2    0    0  0.10485170431E+03  0.80959958164E+02 -0.37619763353E+02  0.17922988407E+03  0.11471577933E+03 0.  0.
          5    1    3    3  502    0  0.10300070027E+02 -0.78513408868E+01  0.29956776302E+02  0.32903128160E+02  0.41800000000E+01 0. -1.
         -5    1    3    3    0  502  0.94551634285E+02  0.88811299050E+02 -0.67576539655E+02  0.14632675592E+03  0.41800000000E+01 0.  1.
        -11    1    1    2    0    0  0.12725790900E+02 -0.72512919767E+01  0.20346012331E+02  0.25069647128E+02  0.00000000000E+00 0.  1.
         11    1    1    2    0    0 -0.11757749521E+03 -0.73708666187E+02  0.74990120658E+01  0.13897363071E+03  0.00000000000E+00 0. -1.
</event>
<event>
 7    1  0.6473813E-006  0.1113937E+03  0.7561462E-02  0.1258010E+00
         -1   -1    0    0    0  501 -0.00000000000E+00  0.00000000000E+00  0.57093535354E+02  0.57093535354E+02  0.00000000000E+00 0.  1.
          1   -1    0    0  501    0  0.00000000000E+00 -0.00000000000E+00 -0.32528172112E+03  0.32528172112E+03  0.00000000000E+00 0. -1.
         23    2    1    2    0    0 -0.80858536457E+02 -0.14207312965E+02 -0.99113566595E+02  0.17946973192E+03  0.12508371170E+03 0.  0.
          5    1    3    3  502    0 -0.46674165457E+02 -0.63146790443E+02 -0.89028263651E+02  0.11878341211E+03  0.41800000000E+01 0. -1.
         -5    1    3    3    0  502 -0.34184371000E+02  0.48939477478E+02 -0.10085302944E+02  0.60686319809E+02  0.41800000000E+01 0. -1.
        -11    1    1    2    0    0  0.57060806996E+02  0.94999135772E+00 -0.16594643146E+03  0.17548520249E+03  0.00000000000E+00 0. -1.
         11    1    1    2    0    0  0.23797729461E+02  0.13257321607E+02 -0.31281877126E+01  0.27420322064E+02  0.00000000000E+00 0.  1.
</event>
<event>
 7    1  0.6473813E-006  0.1143449E+03  0.7561462E-02  0.1252729E+00
          1   -1    0    0  501    0  0.00000000000E+00  0.00000000000E+00  0.67797566701E+02  0.67797566701E+02  0.00000000000E+00 0. -1.
         -1   -1    0    0    0  501 -0.00000000000E+00 -0.00000000000E+00 -0.25156990527E+03  0.25156990527E+03  0.00000000000E+00 0.  1.
         23    2    1    2    0    0  0.31892603761E+02  0.41123476285E+02 -0.15928969046E+03  0.20911383550E+03  0.12508841766E+03 0.  0.
          5    1    3    3  502    0  0.24607436699E+02  0.82875533295E+02 -0.13418214345E+03  0.15967529546E+03  0.41800000000E+01 0.  1.
         -5    1    3    3    0  502  0.72851670621E+01 -0.41752057009E+02 -0.25107547009E+02  0.49438540032E+02  0.41800000000E+01 0.  1.
        -11    1    1    2    0    0  0.21653729703E+02 -0.40584170988E+02  0.93116788872E+01  0.46932571936E+02  0.00000000000E+00 0. -1.
         11    1    1    2    0    0 -0.53546333464E+02 -0.53930529749E+00 -0.33794326997E+02  0.63321064543E+02  0.00000000000E+00 0.  1.
</event>
<event>
 7    1  0.6473813E-006  0.1562943E+03  0.7561462E-02  0.1192945E+00
         -2   -1    0    0    0  501 -0.00000000000E+00  0.00000000000E+00  0.30405797659E+02  0.30405797659E+02  0.00000000000E+00 0. -1.
          2   -1    0    0  501    0  0.00000000000E+00 -0.00000000000E+00 -0.90453174022E+03  0.90453174022E+03  0.00000000000E+00 0.  1.
         23    2    1    2    0    0 -0.55773801941E+02  0.11069544678E+03 -0.49684238404E+03  0.52712680118E+03  0.12508441557E+03 0.  0.
          5    1    3    3  502    0  0.65585132210E+01  0.11253207674E+03 -0.29504664937E+03  0.31587415231E+03  0.41800000000E+01 0. -1.
         -5    1    3    3    0  502 -0.62332315162E+02 -0.18366299620E+01 -0.20179573467E+03  0.21125264887E+03  0.41800000000E+01 0. -1.
        -11    1    1    2    0    0  0.67710616443E+02 -0.10236446874E+03 -0.37294573210E+03  0.39262161317E+03  0.00000000000E+00 0.  1.
         11    1    1    2    0    0 -0.11936814502E+02 -0.83309780375E+01 -0.43378264224E+01  0.15189123529E+02  0.00000000000E+00 0. -1.
</event>
<event>
 6    1  0.6473813E-006  0.1168888E+03  0.7561462E-02  0.1248320E+00
          2   -1    0    0  501    0  0.00000000000E+00  0.00000000000E+00  0.65458675609E+03  0.65458675609E+03  0.00000000000E+00 0. -1.
         -2   -1    0    0    0  501 -0.00000000000E+00 -0.00000000000E+00 -0.27423472962E+02  0.27423472962E+02  0.00000000000E+00 0.  1.
          5    1    1    2  502    0 -0.23415759927E+02 -0.13489135521E+02  0.88301567104E+01  0.28734972726E+02  0.41800000000E+01 0. -1.
         -5    1    1    2    0  502  0.83436899603E+02  0.33048528893E+02  0.31947310390E+03  0.33186512018E+03  0.41800000000E+01 0.  1.
        -11    1    1    2    0    0  0.94967363419E+01  0.29836914196E+02  0.58224053006E+02  0.66109528802E+02  0.00000000000E+00 0.  1.
         11    1    1    2    0    0 -0.69517876018E+02 -0.49396307569E+02  0.24063596952E+03  0.25530060735E+03  0.00000000000E+00 0. -1.
</event>
<event>
 7    1  0.6473813E-006  0.1069647E+03  0.7561462E-02  0.1266296E+00
          2   -1    0    0  501    0  0.00000000000E+00  0.00000000000E+00  0.38405853448E+03  0.38405853448E+03  0.00000000000E+00 0. -1.
         -2   -1    0    0    0  501 -0.00000000000E+00 -0.00000000000E+00 -0.47209683659E+02  0.47209683659E+02  0.00000000000E+00 0.  1.
         23    2    1    2    0    0  0.41059831223E+02 -0.60530225595E+02  0.13474721492E+03  0.19787424883E+03  0.12509032126E+03 0.  0.
          5    1    3    3  502    0  0.76141392280E+02 -0.17696950600E+02  0.39642188863E+02  0.87747759041E+02  0.41800000000E+01 0.  1.
         -5    1    3    3    0  502 -0.35081561057E+02 -0.42833274994E+02  0.95105026056E+02  0.11012648979E+03  0.41800000000E+01 0.  1.
        -11    1    1    2    0    0  0.19673705231E+01  0.22834196239E+02 -0.44623670461E+00  0.22923136606E+02  0.00000000000E+00 0.  1.
         11    1    1    2    0    0 -0.43027201746E+02  0.37696029356E+02  0.20254787261E+03  0.21047083270E+03  0.00000000000E+00 0. -1.
</event>
<event>
 7    1  0.6473813E-006  0.9984472E+02  0.7561462E-02  0.1280623E+00
         -2   -1    0    0    0  501 -0.00000000000E+00  0.00000000000E+00  0.72334590523E+02  0.72334590523E+02  0.00000000000E+00 0.  1.
          2   -1    0    0  501    0  0.00000000000E+00 -0.00000000000E+00 -0.22327846689E+03  0.22327846689E+03  0.00000000000E+00 0. -1.
         23    2    1    2    0    0  0.42005092111E+01  0.28232639671E+02 -0.14607523431E+02  0.12913413923E+03  0.12509004738E+03 0.  0.
          5    1    3    3  502    0  0.50983286516E+02  0.25717701443E+02  0.29713375217E+02  0.64506222477E+02  0.41800000000E+01 0.  1.
         -5    1    3    3    0  502 -0.46782777305E+02  0.25149382281E+01 -0.44320898647E+02  0.64627916751E+02  0.41800000000E+01 0.  1.
        -11    1    1    2    0    0  0.28039961817E+02  0.22046861927E+02 -0.46653502406E+02  0.58726934759E+02  0.00000000000E+00 0.  1.
         11    1    1    2    0    0 -0.32240471028E+02 -0.50279501598E+02 -0.89682850530E+02  0.10775198343E+03  0.00000000000E+00 0. -1.
</event>
<event>
 7    1  0.6473813E-006  0.2219185E+03  0.7561462E-02  0.1132461E+00
          1   -1    0    0  501    0  0.00000000000E+00  0.00000000000E+00  0.59049309498E+02  0.59049309498E+02  0.00000000000E+00 0. -1.
         -1   -1    0    0    0  501 -0.00000000000E+00 -0.00000000000E+00 -0.10328114707E+04  0.10328114707E+04  0.00000000000E+00 0.  1.
         23    2    1    2    0    0  0.19592858865E+03 -0.75997963114E+02 -0.65115832985E+03  0.69556941677E+03  0.12508373501E+03 0.  0.
          5    1    3    3  502    0  0.17882820699E+03 -0.55121176508E+02 -0.38579113510E+03  0.42880082094E+03  0.41800000000E+01 0.  1.
         -5    1    3    3    0  502  0.17100381658E+02 -0.20876786606E+02 -0.26536719475E+03  0.26676859583E+03  0.41800000000E+01 0.  1.
        -11    1    1    2    0    0 -0.16735138600E+03  0.97415269718E+02 -0.28366297543E+03  0.34345437077E+03  0.00000000000E+00 0.  1.
         11    1    1    2    0    0 -0.28577202651E+02 -0.21417306604E+02 -0.38940855919E+02  0.52836992658E+02  0.00000000000E+00 0. -1.
</event>
<event>
 7    1  0.6473813E-006  0.1162790E+03  0.7561462E-02  0.1249365E+00
         -1   -1    0    0    0  501 -0.00000000000E+00  0.00000000000E+00  0.10538290686E+03  0.10538290686E+03  0.00000000000E+00 0.  1.
          1   -1    0    0  501    0  0.00000000000E+00 -0.00000000000E+00 -0.22907663115E+03  0.22907663115E+03  0.00000000000E+00 0. -1.
         23    2    1    2    0    0  0.12445415640E+01 -0.50907868396E+02  0.39279548090E+02  0.14065902304E+03  0.12509563508E+03 0.  0.
          5    1    3    3  502    0  0.58950054963E+02 -0.22569261518E+02  0.42405728692E+02  0.76159036046E+02  0.41800000000E+01 0.  1.
         -5    1    3    3    0  502 -0.57705513399E+02 -0.28338606878E+02 -0.31261806013E+01  0.64499986989E+02  0.41800000000E+01 0.  1.
        -11    1    1    2    0    0 -0.15327925313E+02  0.75225563035E+02 -0.11950223389E+03  0.14203737020E+03  0.00000000000E+00 0. -1.
         11    1    1    2    0    0  0.14083383749E+02 -0.24317694639E+02 -0.43471038489E+02  0.51763144781E+02  0.00000000000E+00 0.  1.
</event>
<event>
 7    1  0.6473813E-006  0.1064484E+03  0.7561462E-02  0.1267292E+00
          2   -1    0    0  501    0  0.00000000000E+00  0.00000000000E+00  0.72310770417E+02  0.72310770417E+02  0.00000000000E+00 0. -1.
         -2   -1    0    0    0  501 -0.00000000000E+00 -0.00000000000E+00 -0.25112300560E+03  0.25112300560E+03  0.00000000000E+00 0.  1.
         23    2    1    2    0    0 -0.39132175895E+02  0.43768475529E+02 -0.16478505286E+03  0.21505541564E+03  0.12509081306E+03 0.  0.
          5    1    3    3  502    0  0.11146814396E+02  0.61212040453E+02 -0.28257754966E+02  0.68462679493E+02  0.41800000000E+01 0.  1.
         -5    1    3    3    0  502 -0.50278990291E+02 -0.17443564924E+02 -0.13652729789E+03  0.14659273615E+03  0.41800000000E+01 0.  1.
        -11    1    1    2    0    0 -0.23628287958E+02 -0.15935335837E+02 -0.26128892008E+02  0.38664582212E+02  0.00000000000E+00 0.  1.
         11    1    1    2    0    0  0.62760463852E+02 -0.27833139692E+02  0.12101709686E+02  0.69713778160E+02  0.00000000000E+00 0. -1.
</event>
<event>
 7    1  0.6473813E-006  0.9372917E+02  0.7561462E-02  0.1294064E+00
          2   -1    0    0  501    0  0.00000000000E+00  0.00000000000E+00  0.18144512405E+03  0.18144512405E+03  0.00000000000E+00 0. -1.
         -2   -1    0    0    0  501 -0.00000000000E+00 -0.00000000000E+00 -0.70737802499E+02  0.70737802499E+02  0.00000000000E+00 0.  1.
         23    2    1    2    0    0 -0.31210131336E+01  0.30865296359E+02  0.57749844228E+02  0.14122754859E+03  0.12509104177E+03 0.  0.
          5    1    3    3  502    0  0.72254196112E+01 -0.31208823796E+02 -0.22345978830E+02  0.39281198316E+02  0.41800000000E+01 0. -1.
         -5    1    3    3    0  502 -0.10346432745E+02  0.62074120155E+02  0.80095823058E+02  0.10194635028E+03  0.41800000000E+01 0. -1.
        -11    1    1    2    0    0  0.30093671696E+02 -0.50454559057E+02  0.15389984329E+02  0.60730084995E+02  0.00000000000E+00 0.  1.
         11    1    1    2    0    0 -0.26972658563E+02  0.19589262698E+02  0.37567492990E+02  0.50225292957E+02  0.00000000000E+00 0. -1.
</event>
<event>
 7    1  0.6473813E-006  0.2033832E+03  0.7561462E-02  0.1146916E+00
          1   -1    0    0  501    0  0.00000000000E+00  0.00000000000E+00  0.51015787250E+03  0.51015787250E+03  0.00000000000E+00 0. -1.
         -1   -1    0    0    0  501 -0.00000000000E+00 -0.00000000000E+00 -0.93019520453E+02  0.93019520453E+02  0.00000000000E+00 0.  1.
         23    2    1    2    0    0  0.17170093552E+03  0.56222324848E+02  0.29153090113E+03  0.36507448933E+03  0.12508779067E+03 0.  0.
          5    1    3    3  502    0 -0.18242477319E+02  0.15507915496E+02  0.21821820812E+02  0.32664165155E+02  0.41800000000E+01 0. -1.
         -5    1    3    3    0  502  0.18994341284E+03  0.40714409352E+02  0.26970908032E+03  0.33241032417E+03  0.41800000000E+01 0. -1.
        -11    1    1    2    0    0 -0.34023705574E+02  0.98871612653E+01 -0.66733579421E+01  0.36054156558E+02  0.00000000000E+00 0.  1.
         11    1    1    2    0    0 -0.13767722994E+03 -0.66109486113E+02  0.13228080886E+03  0.20204874707E+03  0.00000000000E+00 0. -1.
</event>
<event>
 7    1  0.6473813E-006  0.5631110E+02  0.7561462E-02  0.1413998E+00
          1   -1    0    0  501    0  0.00000000000E+00  0.00000000000E+00  0.32237643476E+03  0.32237643476E+03  0.00000000000E+00 0. -1.
         -1   -1    0    0    0  501 -0.00000000000E+00 -0.00000000000E+00 -0.38339560785E+02  0.38339560785E+02  0.00000000000E+00 0.  1.
         23    2    1    2    0    0 -0.19879872350E+02  0.58736287841E+01  0.14224642084E+03  0.19055800221E+03  0.12509436089E+03 0.  0.
          5    1    3    3  502    0  0.12663194866E+02 -0.86507109134E+00 -0.20461202051E+02  0.24438454157E+02  0.41800000000E+01 0. -1.
         -5    1    3    3    0  502 -0.32543067216E+02  0.67386998754E+01  0.16270762289E+03  0.16611954805E+03  0.41800000000E+01 0. -1.
        -11    1    1    2    0    0  0.31138701636E+02 -0.27395655326E+02  0.20139159415E+02  0.46105600661E+02  0.00000000000E+00 0.  1.
         11    1    1    2    0    0 -0.11258829287E+02  0.21522026542E+02  0.12165129372E+03  0.12405239267E+03  0.00000000000E+00 0. -1.
</event>
<event>
 7    1  0.6473813E-006  0.9337964E+02  0.7561462E-02  0.1294868E+00
          1   -1    0    0  501    0  0.00000000000E+00  0.00000000000E+00  0.37909419322E+03  0.37909419322E+03  0.00000000000E+00 0. -1.
         -1   -1    0    0    0  501 -0.00000000000E+00 -0.00000000000E+00 -0.41050292368E+02  0.41050292368E+02  0.00000000000E+00 0.  1.
         23    2    1    2    0    0 -0.24876668966E+02 -0.53075288492E+02  0.17422344202E+03  0.22234240743E+03  0.12508598436E+03 0.  0.
          5    1    3    3  502    0 -0.23448001556E+02 -0.62275904065E+02  0.19122338096E+03  0.20251407564E+03  0.41800000000E+01 0.  1.
         -5    1    3    3    0  502 -0.14286674094E+01  0.92006155722E+01 -0.16999938943E+02  0.19828331789E+02  0.41800000000E+01 0.  1.
        -11    1    1    2    0    0  0.29394874210E+02  0.78620719168E+02  0.11322792079E+03  0.14094622435E+03  0.00000000000E+00 0.  1.
         11    1    1    2    0    0 -0.45182052446E+01 -0.25545430676E+02  0.50592538046E+02  0.56855853814E+02  0.00000000000E+00 0. -1.
</event>
<event>
 7    1  0.6473813E-006  0.1351018E+03  0.7561462E-02  0.1220076E+00
         -1   -1    0    0    0  501 -0.00000000000E+00  0.00000000000E+00  0.30225299254E+02  0.30225299254E+02  0.00000000000E+00 0.  1.
          1   -1    0    0  501    0  0.00000000000E+00 -0.00000000000E+00 -0.81847828281E+03  0.81847828281E+03  0.00000000000E+00 0. -1.
         23    2    1    2    0    0 -0.10619433297E+03 -0.37528097546E+01 -0.31667735565E+03  0.35665672867E+03  0.12501261772E+03 0.  0.
          5    1    3    3  502    0 -0.11932100699E+02 -0.35347693223E+02 -0.19918003262E+03  0.20268693159E+03  0.41800000000E+01 0. -1.
         -5    1    3    3    0  502 -0.94262232270E+02  0.31594883468E+02 -0.11749732303E+03  0.15396979708E+03  0.41800000000E+01 0. -1.
        -11    1    1    2    0    0  0.19151614604E+02 -0.33413653217E+02 -0.21817053626E+03  0.22154376420E+03  0.00000000000E+00 0. -1.
         11    1    1    2    0    0  0.87042718365E+02  0.37166462972E+02 -0.25340509165E+03  0.27050308919E+03  0.00000000000E+00 0.  1.
</event>
<event>
 7    1  0.6473813E-006  0.1002388E+03  0.7561462E-02  0.1279795E+00
         -1   -1    0    0    0  501 -0.00000000000E+00  0.00000000000E+00  0.72219117201E+02  0.72219117201E+02  0.00000000000E+00 0.  1.
          1   -1    0    0  501    0  0.00000000000E+00 -0.00000000000E+00 -0.22828572613E+03  0.22828572613E+03  0.00000000000E+00 0. -1.
         23    2    1    2    0    0  0.29065677902E+02  0.61031865007E+02 -0.65820120813E+02  0.15668077225E+03  0.12508746505E+03 0.  0.
          5    1    3    3  502    0 -0.17747291285E+02  0.12888770758E+01 -0.77631621334E+02  0.79754426729E+02  0.41800000000E+01 0. -1.
         -5    1    3    3    0  502  0.46812969187E+02  0.59742987931E+02  0.11811500521E+02  0.76926345523E+02  0.41800000000E+01 0. -1.
        -11    1    1    2    0    0  0.28908298861E+02 -0.21088577555E+02 -0.53623024540E+02  0.64465856134E+02  0.00000000000E+00 0. -1.
         11    1    1    2    0    0 -0.57973976764E+02 -0.39943287452E+02 -0.36623463572E+02  0.79358214939E+02  0.00000000000E+00 0.  1.
</event>
<event>
 7    1  0.6473813E-006  0.1042377E+03  0.7561462E-02  0.1271629E+00
          1   -1    0    0  501    0  0.00000000000E+00  0.00000000000E+00  0.14651318914E+03  0.14651318914E+03  0.00000000000E+00 0. -1.
         -1   -1    0    0    0  501 -0.00000000000E+00 -0.00000000000E+00 -0.13682803456E+03  0.13682803456E+03  0.00000000000E+00 0.  1.
         23    2    1    2    0    0  0.26705529749E+02 -0.11283200267E+02 -0.81764581313E+02  0.15223063918E+03  0.12509286479E+03 0.  0.
          5    1    3    3  502    0  0.62909065769E+01  0.49938993523E+02 -0.70282094653E+02  0.86547812269E+02  0.41800000000E+01 0. -1.
         -5    1    3    3    0  502  0.20414623172E+02 -0.61222193790E+02 -0.11482486659E+02  0.65682826915E+02  0.41800000000E+01 0. -1.
        -11    1    1    2    0    0 -0.18648563615E+02 -0.38546344590E+02  0.34325267406E+02  0.54879992608E+02  0.00000000000E+00 0.  1.
         11    1    1    2    0    0 -0.80569661346E+01  0.49829544857E+02  0.57124468485E+02  0.76230591915E+02  0.00000000000E+00 0. -1.
</event>
<event>
 7    1  0.6473813E-006  0.9763789E+02  0.7561462E-02  0.1285343E+00
         -2   -1    0    0    0  501 -0.00000000000E+00  0.00000000000E+00  0.18144515033E+03  0.18144515033E+03  0.00000000000E+00 0.  1.
          2   -1    0    0  501    0  0.00000000000E+00 -0.00000000000E+00 -0.88154475272E+02  0.88154475272E+02  0.00000000000E+00 0. -1.
         23    2    1    2    0    0 -0.50384597018E+02 -0.26224851750E+02  0.87130635351E+02  0.16269043961E+03  0.12510028400E+03 0.  0.
          5    1    3    3  502    0 -0.76900047668E+02  0.24297732600E+01  0.12084711557E+02  0.77993806054E+02  0.41800000000E+01 0. -1.
         -5    1    3    3    0  502  0.26515450650E+02 -0.28654625010E+02  0.75045923794E+02  0.84696633556E+02  0.41800000000E+01 0. -1.
        -11    1    1    2    0    0 -0.60693454838E+01  0.21464411052E+02 -0.31705478922E+02  0.38765903706E+02  0.00000000000E+00 0. -1.
         11    1    1    2    0    0  0.56453942502E+02  0.47604406972E+01  0.37865518631E+02  0.68143282287E+02  0.00000000000E+00 0.  1.
</event>
<event>
 7    1  0.6473813E-006  0.1020311E+03  0.7561462E-02  0.1276082E+00
         -2   -1    0    0    0  501 -0.00000000000E+00  0.00000000000E+00  0.32808901173E+03  0.32808901173E+03  0.00000000000E+00 0.  1.
          2   -1    0    0  501    0  0.00000000000E+00 -0.00000000000E+00 -0.44028247153E+02  0.44028247153E+02  0.00000000000E+00 0. -1.
         23    2    1    2    0    0 -0.75732712209E+01  0.20091637840E+02  0.22065097253E+03  0.25584090508E+03  0.12769764558E+03 0.  0.
          5    1    3    3  502    0 -0.57830798558E+02  0.99194551530E+01  0.48727095080E+02  0.76384547176E+02  0.41800000000E+01 0. -1.
         -5    1    3    3    0  502  0.50257527337E+02  0.10172182687E+02  0.17192387745E+03  0.17945635791E+03  0.41800000000E+01 0.  1.
        -11    1    1    2    0    0  0.18370949013E+02 -0.54613382795E+02  0.22996124389E+02  0.62039786305E+02  0.00000000000E+00 0.  1.
         11    1    1    2    0    0 -0.10797677792E+02  0.34521744955E+02  0.40413667658E+02  0.54236567498E+02  0.00000000000E+00 0. -1.
</event>
<event>
 7    1  0.6473813E-006  0.1163002E+03  0.7561462E-02  0.1249328E+00
         -2   -1    0    0    0  501 -0.00000000000E+00  0.00000000000E+00  0.26165444002E+02  0.26165444002E+02  0.00000000000E+00 0.  1.
          2   -1    0    0  501    0  0.00000000000E+00 -0.00000000000E+00 -0.84800830178E+03  0.84800830178E+03  0.00000000000E+00 0. -1.
         23    2    1    2    0    0 -0.16460961792E+02  0.72722431159E+02 -0.24187842002E+03  0.28230273399E+03  0.12502059147E+03 0.  0.
          5    1    3    3  502    0  0.35211012693E+02  0.42062481031E+02 -0.31330756969E+02  0.63310002824E+02  0.41800000000E+01 0. -1.
         -5    1    3    3    0  502 -0.51671974486E+02  0.30659950128E+02 -0.21054766305E+03  0.21899273117E+03  0.41800000000E+01 0. -1.
        -11    1    1    2    0    0  0.52144850181E+02 -0.59954609867E+02 -0.35991059858E+03  0.36857737263E+03  0.00000000000E+00 0.  1.
         11    1    1    2    0    0 -0.35683888388E+02 -0.12767821292E+02 -0.22005383917E+03  0.22329363915E+03  0.00000000000E+00 0. -1.
</event>
<event>
 7    1  0.6473813E-006  0.1109173E+03  0.7561462E-02  0.1258881E+00
         -3   -1    0    0    0  501 -0.00000000000E+00  0.00000000000E+00  0.12346262480E+03  0.12346262480E+03  0.00000000000E+00 0.  1.
          3   -1    0    0  501    0  0.00000000000E+00 -0.00000000000E+00 -0.22129781558E+03  0.22129781558E+03  0.00000000000E+00 0. -1.
         23    2    1    2    0    0  0.84229442012E+02 -0.25775723053E+02  0.38892741496E+02  0.15785812913E+03  0.12509019462E+03 0.  0.
          5    1    3    3  502    0 -0.20351744110E+02 -0.43291986656E+01 -0.25451669765E+02  0.33139030511E+02  0.41800000000E+01 0. -1.
         -5    1    3    3    0  502  0.10458118612E+03 -0.21446524388E+02  0.64344411260E+02  0.12471909862E+03  0.41800000000E+01 0. -1.
        -11    1    1    2    0    0 -0.34153964201E+02  0.27223151363E+02 -0.26331251904E+01  0.43755303554E+02  0.00000000000E+00 0.  1.
         11    1    1    2    0    0 -0.50075477810E+02 -0.14474283098E+01 -0.13409480708E+03  0.14314700770E+03  0.00000000000E+00 0. -1.
</event>
<event>
 7    1  0.6473813E-006  0.1539396E+03  0.7561462E-02  0.1195714E+00
          2   -1    0    0  501    0  0.00000000000E+00  0.00000000000E+00  0.87786541170E+03  0.87786541170E+03  0.00000000000E+00 0. -1.
         -2   -1    0    0    0  501 -0.00000000000E+00 -0.00000000000E+00 -0.28833169326E+02  0.28833169326E+02  0.00000000000E+00 0.  1.
         23    2    1    2    0    0 -0.57113920546E+02 -0.96584206033E+02  0.37887689105E+03  0.41446840049E+03  0.12508336285E+03 0.  0.
          5    1    3    3  502    0  0.28709973244E+02 -0.71033824548E+02  0.14603091361E+03  0.16496231970E+03  0.41800000000E+01 0.  1.
         -5    1    3    3    0  502 -0.85823893789E+02 -0.25550381484E+02  0.23284597744E+03  0.24950608079E+03  0.41800000000E+01 0.  1.
        -11    1    1    2    0    0  0.64970380678E+02  0.25194681166E+02  0.17274041833E+03  0.18626640720E+03  0.00000000000E+00 0.  1.
         11    1    1    2    0    0 -0.78564601326E+01  0.71389524867E+02  0.29741493300E+03  0.30596377334E+03  0.00000000000E+00 0. -1.
</event>
<event>
 7    1  0.6473813E-006  0.1212113E+03  0.7561462E-02  0.1241112E+00
          1   -1    0    0  501    0  0.00000000000E+00  0.00000000000E+00  0.14477393351E+02  0.14477393351E+02  0.00000000000E+00 0. -1.
         -1   -1    0    0    0  501 -0.00000000000E+00 -0.00000000000E+00 -0.13128826739E+04  0.13128826739E+04  0.00000000000E+00 0.  1.
         23    2    1    2    0    0  0.69989037638E+02 -0.12321793504E+02 -0.94046378691E+03  0.95140399460E+03  0.12508850653E+03 0.  0.
          5    1    3    3  502    0 -0.51085473006E+01  0.47183074811E+02 -0.34258613463E+03  0.34588303202E+03  0.41800000000E+01 0. -1.
         -5    1    3    3    0  502  0.75097584938E+02 -0.59504868315E+02 -0.59787765228E+03  0.60552096257E+03  0.41800000000E+01 0. -1.
        -11    1    1    2    0    0 -0.75216679775E+02  0.29593157994E+02 -0.34339008321E+03  0.35277479100E+03  0.00000000000E+00 0.  1.
         11    1    1    2    0    0  0.52276421374E+01 -0.17271364490E+02 -0.14551410428E+02  0.23181281653E+02  0.00000000000E+00 0. -1.
</event>
<event>
 7    1  0.6473813E-006  0.9838897E+02  0.7561462E-02  0.1283721E+00
         -2   -1    0    0    0  501 -0.00000000000E+00  0.00000000000E+00  0.85174757362E+02  0.85174757362E+02  0.00000000000E+00 0.  1.
          2   -1    0    0  501    0  0.00000000000E+00 -0.00000000000E+00 -0.27456539238E+03  0.27456539238E+03  0.00000000000E+00 0. -1.
         23    2    1    2    0    0  0.44088133691E+02 -0.24639643792E+02  0.99295575717E+01  0.13526729684E+03  0.12509104646E+03 0.  0.
          5    1    3    3  502    0  0.35522916695E+02  0.36233754596E+02 -0.32548556191E+02  0.60428829981E+02  0.41800000000E+01 0. -1.
         -5    1    3    3    0  502  0.85652169956E+01 -0.60873398388E+02  0.42478113763E+02  0.74838466863E+02  0.41800000000E+01 0. -1.
        -11    1    1    2    0    0 -0.52225848370E+02 -0.59793544570E+01 -0.52575203580E+02  0.74346781700E+02  0.00000000000E+00 0.  1.
         11    1    1    2    0    0  0.81377146788E+01  0.30618998249E+02 -0.14674498901E+03  0.15012607120E+03  0.00000000000E+00 0. -1.
</event>
<event>
 7    1  0.6473813E-006  0.3014556E+03  0.7561462E-02  0.1084515E+00
         -2   -1    0    0    0  501 -0.00000000000E+00  0.00000000000E+00  0.62950189497E+02  0.62950189497E+02  0.00000000000E+00 0.  1.
          2   -1    0    0  501    0  0.00000000000E+00 -0.00000000000E+00 -0.16257617189E+04  0.16257617189E+04  0.00000000000E+00 0. -1.
         23    2    1    2    0    0 -0.29369351833E+03  0.12110285693E+01 -0.65036643879E+03  0.72448669112E+03  0.12508841512E+03 0.  0.
          5    1    3    3  502    0 -0.35269671398E+02 -0.10283115584E+02 -0.17753601767E+02  0.41016520602E+02  0.41800000000E+01 0. -1.
         -5    1    3    3    0  502 -0.25842384693E+03  0.11494144153E+02 -0.63261283703E+03  0.68347017051E+03  0.41800000000E+01 0. -1.
        -11    1    1    2    0    0  0.64789652063E+02  0.37812510623E+02 -0.15897224841E+03  0.17578299332E+03  0.00000000000E+00 0.  1.
         11    1    1    2    0    0  0.22890386627E+03 -0.39023539192E+02 -0.75347284221E+03  0.78844222398E+03  0.00000000000E+00 0. -1.
</event>
<event>
 7    1  0.6473813E-006  0.2197436E+03  0.7561462E-02  0.1134074E+00
          2   -1    0    0  501    0  0.00000000000E+00  0.00000000000E+00  0.91135870251E+03  0.91135870251E+03  0.00000000000E+00 0. -1.
         -2   -1    0    0    0  501 -0.00000000000E+00 -0.00000000000E+00 -0.65206521830E+02  0.65206521830E+02  0.00000000000E+00 0.  1.
         23    2    1    2    0    0  0.20469689725E+03  0.36286866160E+02  0.28411201704E+03  0.37072351883E+03  0.11618404703E+03 0.  0.
          5    1    3    3  502    0  0.20676844230E+03  0.32534166221E+02  0.29293821794E+03  0.36005823505E+03  0.41800000000E+01 0. -1.
         -5    1    3    3    0  502 -0.20715450493E+01  0.37526999390E+01 -0.88262008938E+01  0.10665283772E+02  0.41800000000E+01 0.  1.
        -11    1    1    2    0    0 -0.30331116729E+02 -0.39436774073E+02  0.93761768591E+02  0.10614379417E+03  0.00000000000E+00 0. -1.
         11    1    1    2    0    0 -0.17436578052E+03  0.31499079125E+01  0.46827839505E+03  0.49969791135E+03  0.00000000000E+00 0.  1.
</event>
<event>
 7    1  0.6473813E-006  0.1496965E+03  0.7561462E-02  0.1200846E+00
          2   -1    0    0  501    0  0.00000000000E+00  0.00000000000E+00  0.17878844598E+03  0.17878844598E+03  0.00000000000E+00 0. -1.
         -2   -1    0    0    0  501 -0.00000000000E+00 -0.00000000000E+00 -0.13759649994E+03  0.13759649994E+03  0.00000000000E+00 0.  1.
         23    2    1    2    0    0 -0.86834498531E+02  0.69159279558E+02  0.58142568812E+01  0.16734474780E+03  0.12508886021E+03 0.  0.
          5    1    3    3  502    0 -0.22042776700E+02 -0.31480945582E+02  0.25021036187E+02  0.46048437447E+02  0.41800000000E+01 0.  1.
         -5    1    3    3    0  502 -0.64791721831E+02  0.10064022514E+03 -0.19206779306E+02  0.12129631035E+03  0.41800000000E+01 0.  1.
        -11    1    1    2    0    0  0.21438957115E+01 -0.55073752031E+02  0.30630580816E+02  0.63055110282E+02  0.00000000000E+00 0.  1.
         11    1    1    2    0    0  0.84690602820E+02 -0.14085527527E+02  0.47471083401E+01  0.85985087831E+02  0.00000000000E+00 0. -1.
</event>
<event>
 7    1  0.6473813E-006  0.7504382E+02  0.7561462E-02  0.1343735E+00
         -1   -1    0    0    0  501 -0.00000000000E+00  0.00000000000E+00  0.10712682332E+04  0.10712682332E+04  0.00000000000E+00 0.  1.
          1   -1    0    0  501    0  0.00000000000E+00 -0.00000000000E+00 -0.17061419362E+02  0.17061419362E+02  0.00000000000E+00 0. -1.
         23    2    1    2    0    0 -0.92164805340E+01 -0.59383631378E+01  0.90322571235E+03  0.91191378420E+03  0.12509937928E+03 0.  0.
          5    1    3    3  502    0  0.16049876398E+02  0.42290420669E+02  0.15040725140E+03  0.15711744616E+03  0.41800000000E+01 0. -1.
         -5    1    3    3    0  502 -0.25266356932E+02 -0.48228783807E+02  0.75281846094E+03  0.75479633804E+03  0.41800000000E+01 0. -1.
        -11    1    1    2    0    0 -0.51932015984E+01 -0.19847578396E+02 -0.19963205417E+01  0.20612641916E+02  0.00000000000E+00 0. -1.
         11    1    1    2    0    0  0.14409682132E+02  0.25785941534E+02  0.15297742203E+03  0.15580322644E+03  0.00000000000E+00 0.  1.
</event>
<event>
 6    1  0.6473813E-006  0.1359359E+03  0.7561462E-02  0.1218905E+00
          3   -1    0    0  501    0  0.00000000000E+00  0.00000000000E+00  0.22845292041E+03  0.22845292041E+03  0.00000000000E+00 0. -1.
         -3   -1    0    0    0  501 -0.00000000000E+00 -0.00000000000E+00 -0.95307662935E+02  0.95307662935E+02  0.00000000000E+00 0.  1.
          5    1    1    2  502    0 -0.60308759262E-01  0.52237472799E+02 -0.12509104267E+02  0.53876778775E+02  0.41800000000E+01 0. -1.
         -5    1    1    2    0  502  0.46365513682E+02 -0.10534763117E+03  0.57713524734E+02  0.12882626902E+03  0.41800000000E+01 0.  1.
        -11    1    1    2    0    0 -0.13203858968E+02  0.67077282255E+02  0.78124898270E+02  0.10381331040E+03  0.00000000000E+00 0. -1.
         11    1    1    2    0    0 -0.33101345955E+02 -0.13967123883E+02  0.98159387344E+01  0.37244225147E+02  0.00000000000E+00 0.  1.
</event>
<event>
 7    1  0.1024016E-005  0.2643402E+03  0.7561462E-02  0.1104563E+00
          2   -1    0    0  501    0  0.00000000000E+00  0.00000000000E+00  0.37918220760E+03  0.37918220760E+03  0.00000000000E+00 0. -1.
         -2   -1    0    0    0  501 -0.00000000000E+00 -0.00000000000E+00 -0.18759812725E+03  0.18759812725E+03  0.00000000000E+00 0.  1.
         23    2    1    2    0    0  0.24116503043E+03  0.18612778584E+02  0.71769499464E+02  0.28161269454E+03  0.12509133162E+03 0.  0.
          5    1    3    3  502    0  0.23848189007E+03  0.47330915496E+02  0.64022874681E+02  0.25145621554E+03  0.41800000000E+01 0. -1.
         -5    1    3    3    0  502  0.26831403553E+01 -0.28718136912E+02  0.77466247821E+01  0.30156478995E+02  0.41800000000E+01 0. -1.
        -11    1    1    2    0    0 -0.16611873381E+03  0.27362401108E+02  0.59882292769E+02  0.17868974146E+03  0.00000000000E+00 0.  1.
         11    1    1    2    0    0 -0.75046296618E+02 -0.45975179692E+02  0.59932288125E+02  0.10647789885E+03  0.00000000000E+00 0. -1.
</event>
<event>
 7    1  0.6473813E-006  0.8686444E+02  0.7561462E-02  0.1310628E+00
         -2   -1    0    0    0  501 -0.00000000000E+00  0.00000000000E+00  0.27887503012E+03  0.27887503012E+03  0.00000000000E+00 0.  1.
          2   -1    0    0  501    0  0.00000000000E+00 -0.00000000000E+00 -0.45248296642E+02  0.45248296642E+02  0.00000000000E+00 0. -1.
         23    2    1    2    0    0  0.20337073929E+02  0.18806416352E+02  0.15770074912E+03  0.20318626035E+03  0.12509137560E+03 0.  0.
          5    1    3    3  502    0  0.82616372769E+01 -0.49110421986E+02  0.10496517789E+03  0.11625510383E+03  0.41800000000E+01 0.  1.
         -5    1    3    3    0  502  0.12075436652E+02  0.67916838337E+02  0.52735571230E+02  0.86931156515E+02  0.41800000000E+01 0.  1.
        -11    1    1    2    0    0 -0.16679911461E+01 -0.31835237823E+02 -0.89091147694E+01  0.33100406156E+02  0.00000000000E+00 0. -1.
         11    1    1    2    0    0 -0.18669082783E+02  0.13028821472E+02  0.84835099124E+02  0.87836660252E+02  0.00000000000E+00 0.  1.
</event>
<event>
 7    1  0.6473813E-006  0.7932963E+02  0.7561462E-02  0.1330965E+00
         -2   -1    0    0    0  501 -0.00000000000E+00  0.00000000000E+00  0.26672910446E+02  0.26672910446E+02  0.00000000000E+00 0.  1.
          2   -1    0    0  501    0  0.00000000000E+00 -0.00000000000E+00 -0.48750651881E+03  0.48750651881E+03  0.00000000000E+00 0. -1.
         23    2    1    2    0    0 -0.16530492126E+01 -0.35336677848E+02 -0.24849412165E+03  0.28045325016E+03  0.12511308348E+03 0.  0.
          5    1    3    3  502    0 -0.44201467422E+02 -0.23256821052E+02 -0.22436787214E+03  0.22989794235E+03  0.41800000000E+01 0. -1.
         -5    1    3    3    0  502  0.42548418210E+02 -0.12079856797E+02 -0.24126249509E+02  0.50555307810E+02  0.41800000000E+01 0. -1.
        -11    1    1    2    0    0  0.19175791429E+02 -0.52685116463E+01 -0.34214232726E+01  0.20178561126E+02  0.00000000000E+00 0.  1.
         11    1    1    2    0    0 -0.17522742217E+02  0.40605189495E+02 -0.20891806344E+03  0.21354761797E+03  0.00000000000E+00 0. -1.
</event>
<event>
 7    1  0.6473813E-006  0.1066726E+03  0.7561462E-02  0.1266859E+00
         -3   -1    0    0    0  501 -0.00000000000E+00  0.00000000000E+00  0.71525549478E+02  0.71525549478E+02  0.00000000000E+00 0.  1.
          3   -1    0    0  501    0  0.00000000000E+00 -0.00000000000E+00 -0.19402912894E+03  0.19402912894E+03  0.00000000000E+00 0. -1.
         23    2    1    2    0    0 -0.22835021473E+02 -0.37024227096E+02 -0.93680311493E+02  0.16222055458E+03  0.12508907214E+03 0.  0.
          5    1    3    3  502    0 -0.26172393348E+02 -0.74154635566E+02 -0.22730445637E+02  0.81963709704E+02  0.41800000000E+01 0.  1.
         -5    1    3    3    0  502  0.33373718744E+01  0.37130408470E+02 -0.70949865856E+02  0.80256844875E+02  0.41800000000E+01 0.  1.
        -11    1    1    2    0    0  0.10695781135E+02  0.65374003856E+02 -0.29435331000E+02  0.72488611694E+02  0.00000000000E+00 0. -1.
         11    1    1    2    0    0  0.12139240338E+02 -0.28349776759E+02  0.61206303166E+00  0.30845512144E+02  0.00000000000E+00 0.  1.
</event>
<event>
 6    1  0.6473813E-006  0.9891969E+02  0.7561462E-02  0.1282584E+00
          2   -1    0    0  501    0  0.00000000000E+00  0.00000000000E+00  0.21538814892E+03  0.21538814892E+03  0.00000000000E+00 0. -1.
         -2   -1    0    0    0  501 -0.00000000000E+00 -0.00000000000E+00 -0.94138623255E+02  0.94138623255E+02  0.00000000000E+00 0.  1.
          5    1    1    2  502    0 -0.71495411804E+02 -0.33094484949E+02  0.30994335598E+02  0.84764143848E+02  0.41800000000E+01 0. -1.
         -5    1    1    2    0  502  0.35541212379E+02 -0.23945436446E+02 -0.48002038671E+02  0.64484337792E+02  0.41800000000E+01 0.  1.
        -11    1    1    2    0    0  0.23274118499E+02  0.58655212724E+02  0.13141255823E+03  0.14577852734E+03  0.00000000000E+00 0. -1.
         11    1    1    2    0    0  0.12680080927E+02 -0.16152913290E+01  0.68446705037E+01  0.14499763194E+02  0.00000000000E+00 0.  1.
</event>
<event>
 7    1  0.6473813E-006  0.1079223E+03  0.7561462E-02  0.1264466E+00
          1   -1    0    0  501    0  0.00000000000E+00  0.00000000000E+00  0.84616649100E+03  0.84616649100E+03  0.00000000000E+00 0. -1.
         -1   -1    0    0    0  501 -0.00000000000E+00 -0.00000000000E+00 -0.14398327123E+02  0.14398327123E+02  0.00000000000E+00 0.  1.
         23    2    1    2    0    0 -0.52922183510E+00 -0.18185622000E+02  0.44147597027E+03  0.45921574946E+03  0.12508827003E+03 0.  0.
          5    1    3    3  502    0 -0.60251438788E+02  0.69631251549E+01  0.23718165366E+03  0.24484960735E+03  0.41800000000E+01 0.  1.
         -5    1    3    3    0  502  0.59722216953E+02 -0.25148747155E+02  0.20429431661E+03  0.21436614211E+03  0.41800000000E+01 0.  1.
        -11    1    1    2    0    0 -0.66892482458E+01  0.53576719614E+02  0.28401722534E+03  0.28910377932E+03  0.00000000000E+00 0.  1.
         11    1    1    2    0    0  0.72184700809E+01 -0.35391097615E+02  0.10627496826E+03  0.11224528934E+03  0.00000000000E+00 0. -1.
</event>
<event>
 7    1  0.6473813E-006  0.2027679E+03  0.7561462E-02  0.1147425E+00
         -2   -1    0    0    0  501 -0.00000000000E+00  0.00000000000E+00  0.14428973503E+03  0.14428973503E+03  0.00000000000E+00 0.  1.
          2   -1    0    0  501    0  0.00000000000E+00 -0.00000000000E+00 -0.36053878255E+03  0.36053878255E+03  0.00000000000E+00 0. -1.
         23    2    1    2    0    0 -0.19778913819E+02  0.18261189000E+03 -0.24703519775E+02  0.22359713491E+03  0.12508839693E+03 0.  0.
          5    1    3    3  502    0 -0.66367168644E+02  0.14903255520E+03 -0.69562227845E+01  0.16334370211E+03  0.41800000000E+01 0.  1.
         -5    1    3    3    0  502  0.46588254825E+02  0.33579334806E+02 -0.17747296991E+02  0.60253432800E+02  0.41800000000E+01 0.  1.
        -11    1    1    2    0    0  0.73209183771E+01 -0.14404019238E+03 -0.85408906431E+02  0.16761817969E+03  0.00000000000E+00 0.  1.
         11    1    1    2    0    0  0.12457995442E+02 -0.38571697629E+02 -0.10613662131E+03  0.11361320298E+03  0.00000000000E+00 0. -1.
</event>
<event>
 7    1  0.6473813E-006  0.1376730E+03  0.7561462E-02  0.1216495E+00
          1   -1    0    0  501    0  0.00000000000E+00  0.00000000000E+00  0.98519795217E+02  0.98519795217E+02  0.00000000000E+00 0. -1.
         -1   -1    0    0    0  501 -0.00000000000E+00 -0.00000000000E+00 -0.24728459573E+03  0.24728459573E+03  0.00000000000E+00 0.  1.
         23    2    1    2    0    0  0.65279170784E+01 -0.10978627858E+03 -0.10537189536E+03  0.19709213997E+03  0.12508570917E+03 0.  0.
          5    1    3    3  502    0 -0.57523824149E+02 -0.52702480313E+02 -0.33165465329E+02  0.84876158410E+02  0.41800000000E+01 0. -1.
         -5    1    3    3    0  502  0.64051741227E+02 -0.57083798269E+02 -0.72206430029E+02  0.11221598156E+03  0.41800000000E+01 0. -1.
        -11    1    1    2    0    0 -0.12348403821E+02  0.82455367093E+02 -0.70941820611E+02  0.10947197153E+03  0.00000000000E+00 0.  1.
         11    1    1    2    0    0  0.58204867424E+01  0.27330911488E+02  0.27548915454E+02  0.39240279451E+02  0.00000000000E+00 0. -1.
</event>
<event>
 7    1  0.6473813E-006  0.1119641E+03  0.7561462E-02  0.1256975E+00
          1   -1    0    0  501    0  0.00000000000E+00  0.00000000000E+00  0.28260998331E+03  0.28260998331E+03  0.00000000000E+00 0. -1.
         -1   -1    0    0    0  501 -0.00000000000E+00 -0.00000000000E+00 -0.64878704507E+02  0.64878704507E+02  0.00000000000E+00 0.  1.
         23    2    1    2    0    0  0.46156776518E+02  0.38355744357E+02  0.54684229783E+02  0.14913880238E+03  0.12510158370E+03 0.  0.
          5    1    3    3  502    0  0.88640533291E+02  0.15459063338E+02  0.31399518651E+02  0.95391451153E+02  0.41800000000E+01 0.  1.
         -5    1    3    3    0  502 -0.42483756774E+02  0.22896681019E+02  0.23284711132E+02  0.53747351226E+02  0.41800000000E+01 0.  1.
        -11    1    1    2    0    0 -0.24607450295E+02  0.14338845348E+02  0.31906273311E+01  0.28658492611E+02  0.00000000000E+00 0.  1.
         11    1    1    2    0    0 -0.21549326223E+02 -0.52694589705E+02  0.15985642169E+03  0.16969139283E+03  0.00000000000E+00 0. -1.
</event>
<event>
 7    1  0.6473813E-006  0.1734362E+03  0.7561462E-02  0.1174311E+00
          2   -1    0    0  501    0  0.00000000000E+00  0.00000000000E+00  0.27068152619E+02  0.27068152619E+02  0.00000000000E+00 0. -1.
         -2   -1    0    0    0  501 -0.00000000000E+00 -0.00000000000E+00 -0.14390204772E+04  0.14390204772E+04  0.00000000000E+00 0.  1.
         23    2    1    2    0    0  0.13559601561E+03  0.56850040975E+02 -0.10140985468E+04  0.10323092582E+04  0.12509330588E+03 0.  0.
          5    1    3    3  502    0 -0.69335951760E+01  0.47105361428E+02 -0.19068982621E+03  0.19658858572E+03  0.41800000000E+01 0.  1.
         -5    1    3    3    0  502  0.14252961079E+03  0.97446795473E+01 -0.82340872063E+03  0.83572067244E+03  0.41800000000E+01 0.  1.
        -11    1    1    2    0    0 -0.19063598421E+02 -0.31617582810E+02 -0.19512395039E+03  0.19858612324E+03  0.00000000000E+00 0.  1.
         11    1    1    2    0    0 -0.11653241719E+03 -0.25232458165E+02 -0.20272982732E+03  0.23519324838E+03  0.00000000000E+00 0. -1.
</event>
<event>
 7    1  0.6473813E-006  0.7837381E+02  0.7561462E-02  0.1333731E+00
         -2   -1    0    0    0  501 -0.00000000000E+00  0.00000000000E+00  0.67355187858E+02  0.67355187858E+02  0.00000000000E+00 0.  1.
          2   -1    0    0  501    0  0.00000000000E+00 -0.00000000000E+00 -0.27561984888E+03  0.27561984888E+03  0.00000000000E+00 0. -1.
         23    2    1    2    0    0 -0.63135033191E+02  0.25131295308E+02 -0.12666577741E+03  0.19055068451E+03  0.12509088609E+03 0.  0.
          5    1    3    3  502    0 -0.36870558689E+02  0.42965856950E+02 -0.14353733425E+03  0.15435654079E+03  0.41800000000E+01 0. -1.
         -5    1    3    3    0  502 -0.26264474502E+02 -0.17834561643E+02  0.16871556841E+02  0.36194143726E+02  0.41800000000E+01 0. -1.
        -11    1    1    2    0    0  0.52675903935E+02 -0.20759870090E+02 -0.10896849521E+03  0.12280006519E+03  0.00000000000E+00 0. -1.
         11    1    1    2    0    0  0.10459129256E+02 -0.43714252177E+01  0.27369611597E+02  0.29624287032E+02  0.00000000000E+00 0.  1.
</event>
<event>
 7    1  0.6473813E-006  0.1051900E+03  0.7561462E-02  0.1269746E+00
         -1   -1    0    0    0  501 -0.00000000000E+00  0.00000000000E+00  0.22982345232E+03  0.22982345232E+03  0.00000000000E+00 0.  1.
          1   -1    0    0  501    0  0.00000000000E+00 -0.00000000000E+00 -0.65629430112E+02  0.65629430112E+02  0.00000000000E+00 0. -1.
         23    2    1    2    0    0 -0.48953526905E+02  0.33095914126E+01  0.13084584490E+03  0.18755054858E+03  0.12508865637E+03 0.  0.
          5    1    3    3  502    0  0.59854149778E+01  0.49097412044E+02  0.15926072261E+02  0.52129581233E+02  0.41800000000E+01 0. -1.
         -5    1    3    3    0  502 -0.54938941883E+02 -0.45787820632E+02  0.11491977264E+03  0.13542096735E+03  0.41800000000E+01 0. -1.
        -11    1    1    2    0    0  0.74300917751E+00 -0.32654917326E+02 -0.12715760016E+02  0.35051194572E+02  0.00000000000E+00 0. -1.
         11    1    1    2    0    0  0.48210517728E+02  0.29345325913E+02  0.46063937321E+02  0.72851139277E+02  0.00000000000E+00 0.  1.
</event>
<event>
 7    1  0.6473813E-006  0.1594998E+03  0.7561462E-02  0.1189263E+00
          2   -1    0    0  501    0  0.00000000000E+00  0.00000000000E+00  0.68213243949E+03  0.68213243949E+03  0.00000000000E+00 0. -1.
         -2   -1    0    0    0  501 -0.00000000000E+00 -0.00000000000E+00 -0.63321294316E+02  0.63321294316E+02  0.00000000000E+00 0.  1.
         23    2    1    2    0    0 -0.41180268088E+02  0.10981106398E+03  0.86634855112E+02  0.19211302119E+03  0.12509008968E+03 0.  0.
          5    1    3    3  502    0 -0.36916033739E+02  0.13617450055E+03  0.85564267554E+02  0.16506060835E+03  0.41800000000E+01 0.  1.
         -5    1    3    3    0  502 -0.42642343480E+01 -0.26363436571E+02  0.10705875578E+01  0.27052412834E+02  0.41800000000E+01 0.  1.
        -11    1    1    2    0    0  0.70077010413E+02 -0.95821069227E+02  0.39471851766E+03  0.41218342140E+03  0.00000000000E+00 0.  1.
         11    1    1    2    0    0 -0.28896742325E+02 -0.13989994753E+02  0.13745777241E+03  0.14115729122E+03  0.00000000000E+00 0. -1.
</event>
<event>
 7    1  0.6473813E-006  0.1138957E+03  0.7561462E-02  0.1253521E+00
         -1   -1    0    0    0  501 -0.00000000000E+00  0.00000000000E+00  0.20532698456E+02  0.20532698456E+02  0.00000000000E+00 0.  1.
          1   -1    0    0  501    0  0.00000000000E+00 -0.00000000000E+00 -0.71086412224E+03  0.71086412224E+03  0.00000000000E+00 0. -1.
         23    2    1    2    0    0  0.79310378315E+01  0.46760011580E+02 -0.31322757148E+03  0.34059989012E+03  0.12508946225E+03 0.  0.
          5    1    3    3  502    0  0.63820642369E+02  0.18018436093E+02 -0.20357534256E+03  0.21414511652E+03  0.41800000000E+01 0. -1.
         -5    1    3    3    0  502 -0.55889604537E+02  0.28741575487E+02 -0.10965222892E+03  0.12645477359E+03  0.41800000000E+01 0. -1.
        -11    1    1    2    0    0  0.29669928446E+02  0.90895264342E+01 -0.17620178272E+03  0.17891336557E+03  0.00000000000E+00 0. -1.
         11    1    1    2    0    0 -0.37600966277E+02 -0.55849538014E+02 -0.20090206958E+03  0.21188356501E+03  0.00000000000E+00 0.  1.
</event>
<event>
 7    1  0.6473813E-006  0.1035984E+03  0.7561462E-02  0.1272906E+00
          2   -1    0    0  501    0  0.00000000000E+00  0.00000000000E+00  0.54303610057E+02  0.54303610057E+02  0.00000000000E+00 0. -1.
         -2   -1    0    0    0  501 -0.00000000000E+00 -0.00000000000E+00 -0.98014881497E+03  0.98014881497E+03  0.00000000000E+00 0.  1.
         23    2    1    2    0    0 -0.46045986585E+02  0.53722401937E+02 -0.90827881719E+03  0.91957836161E+03  0.12509046338E+03 0.  0.
          5    1    3    3  502    0  0.25236862906E+02  0.29463192069E+02 -0.63165711746E+03  0.63286109485E+03  0.41800000000E+01 0. -1.
         -5    1    3    3    0  502 -0.71282849491E+02  0.24259209868E+02 -0.27662169973E+03  0.28671726676E+03  0.41800000000E+01 0. -1.
        -11    1    1    2    0    0  0.61541590226E+01  0.13364365264E+02 -0.32255404373E+02  0.35452659188E+02  0.00000000000E+00 0.  1.
         11    1    1    2    0    0  0.39891827563E+02 -0.67086767201E+02  0.14689016653E+02  0.79421404231E+02  0.00000000000E+00 0. -1.
</event>
<event>
 7    1  0.6473813E-006  0.2070629E+03  0.7561462E-02  0.1143913E+00
          2   -1    0    0  501    0  0.00000000000E+00  0.00000000000E+00  0.10003279763E+04  0.10003279763E+04  0.00000000000E+00 0. -1.
         -2   -1    0    0    0  501 -0.00000000000E+00 -0.00000000000E+00 -0.50375517235E+02  0.50375517235E+02  0.00000000000E+00 0.  1.
         23    2    1    2    0    0  0.15116324444E+03 -0.89690494370E+02  0.30185989767E+03  0.37102933635E+03  0.12509460167E+03 0.  0.
          5    1    3    3  502    0  0.17013675208E+03 -0.92314474002E+02  0.28795957750E+03  0.34699663859E+03  0.41800000000E+01 0. -1.
         -5    1    3    3    0  502 -0.18973507639E+02  0.26239796321E+01  0.13900320169E+02  0.24032697768E+02  0.41800000000E+01 0. -1.
        -11    1    1    2    0    0 -0.32862835850E+02 -0.20916567933E+02  0.80527839187E+02  0.89455026009E+02  0.00000000000E+00 0. -1.
         11    1    1    2    0    0 -0.11830040859E+03  0.11060706230E+03  0.56756472222E+03  0.59021913118E+03  0.00000000000E+00 0.  1.
</event>
<event>
 7    1  0.6473813E-006  0.1187286E+03  0.7561462E-02  0.1245209E+00
         -2   -1    0    0    0  501 -0.00000000000E+00  0.00000000000E+00  0.58374230633E+02  0.58374230633E+02  0.00000000000E+00 0.  1.
          2   -1    0    0  501    0  0.00000000000E+00 -0.00000000000E+00 -0.31790478697E+03  0.31790478697E+03  0.00000000000E+00 0. -1.
         23    2    1    2    0    0  0.52158360163E+02 -0.59286797816E+02 -0.12607570616E+03  0.19436750389E+03  0.12509286134E+03 0.  0.
          5    1    3    3  502    0  0.24831056997E+01 -0.80605370610E+02 -0.11249003178E+03  0.13847335930E+03  0.41800000000E+01 0. -1.
         -5    1    3    3    0  502  0.49675254463E+02  0.21318572794E+02 -0.13585674373E+02  0.55894144596E+02  0.41800000000E+01 0. -1.
        -11    1    1    2    0    0 -0.32909521300E+01  0.53132189751E+02 -0.17676453277E+02  0.56092040025E+02  0.00000000000E+00 0.  1.
         11    1    1    2    0    0 -0.48867408033E+02  0.61546080646E+01 -0.11577839691E+03  0.12581947369E+03  0.00000000000E+00 0. -1.
</event>
<event>
 7    1  0.6473813E-006  0.1120800E+03  0.7561462E-02  0.1256766E+00
          2   -1    0    0  501    0  0.00000000000E+00  0.00000000000E+00  0.32008898244E+03  0.32008898244E+03  0.00000000000E+00 0. -1.
         -2   -1    0    0    0  501 -0.00000000000E+00 -0.00000000000E+00 -0.46172249807E+02  0.46172249807E+02  0.00000000000E+00 0.  1.
         23    2    1    2    0    0 -0.35974513776E+02 -0.61768188404E+02  0.13830893148E+03  0.19971449119E+03  0.12508813983E+03 0.  0.
          5    1    3    3  502    0 -0.64581914860E+02 -0.57220338758E+01  0.11575079765E+03  0.13273765463E+03  0.41800000000E+01 0. -1.
         -5    1    3    3    0  502  0.28607401085E+02 -0.56046154528E+02  0.22558133822E+02  0.66976836561E+02  0.41800000000E+01 0. -1.
        -11    1    1    2    0    0  0.11571041156E+02  0.69555222869E+02  0.10703129213E+03  0.12816986977E+03  0.00000000000E+00 0. -1.
         11    1    1    2    0    0  0.24403472620E+02 -0.77870344655E+01  0.28576509029E+02  0.38376871289E+02  0.00000000000E+00 0.  1.
</event>
<event>
 6    1  0.6473813E-006  0.1198826E+03  0.7561462E-02  0.1243291E+00
          3   -1    0    0  501    0  0.00000000000E+00  0.00000000000E+00  0.52373859537E+02  0.52373859537E+02  0.00000000000E+00 0. -1.
         -3   -1    0    0    0  501 -0.00000000000E+00 -0.00000000000E+00 -0.10043411986E+04  0.10043411986E+04  0.00000000000E+00 0.  1.
          5    1    1    2  502    0 -0.46101339134E+01  0.58042478593E+02 -0.37531094029E+03  0.37982358662E+03  0.41800000000E+01 0. -1.
         -5    1    1    2    0  502  0.27241188295E+02 -0.80435904529E+02 -0.57377102350E+03  0.58003678925E+03  0.41800000000E+01 0.  1.
        -11    1    1    2    0    0  0.18226358142E+02  0.45788203607E+02  0.31769317356E+01  0.49384740719E+02  0.00000000000E+00 0. -1.
         11    1    1    2    0    0 -0.40857412523E+02 -0.23394777671E+02 -0.60623069706E+01  0.47469941502E+02  0.00000000000E+00 0.  1.
</event>
<event>
 6    1  0.6473813E-006  0.1775655E+03  0.7561462E-02  0.1170180E+00
         -2   -1    0    0    0  501 -0.00000000000E+00  0.00000000000E+00  0.13653814723E+03  0.13653814723E+03  0.00000000000E+00 0.  1.
          2   -1    0    0  501    0  0.00000000000E+00 -0.00000000000E+00 -0.38528629770E+03  0.38528629770E+03  0.00000000000E+00 0. -1.
          5    1    1    2  502    0  0.22704221230E+02 -0.32067605313E+02 -0.62879105215E+02  0.74263498738E+02  0.41800000000E+01 0. -1.
         -5    1    1    2    0  502  0.59370551522E+02 -0.11674596499E+03  0.52150934943E+02  0.14103785004E+03  0.41800000000E+01 0.  1.
        -11    1    1    2    0    0 -0.93987155095E+02  0.11381405493E+03 -0.22115092893E+03  0.26588523425E+03  0.00000000000E+00 0. -1.
         11    1    1    2    0    0  0.11912382344E+02  0.34999515369E+02 -0.16869051263E+02  0.40637861898E+02  0.00000000000E+00 0.  1.
</event>
<event>
 7    1  0.6473813E-006  0.9144990E+02  0.7561462E-02  0.1299378E+00
          3   -1    0    0  501    0  0.00000000000E+00  0.00000000000E+00  0.53861718727E+02  0.53861718727E+02  0.00000000000E+00 0. -1.
         -3   -1    0    0    0  501 -0.00000000000E+00 -0.00000000000E+00 -0.32884080401E+03  0.32884080401E+03  0.00000000000E+00 0.  1.
         23    2    1    2    0    0 -0.44017779234E+02  0.56296740317E+02 -0.19076679545E+03  0.23905358074E+03  0.12509099232E+03 0.  0.
          5    1    3    3  502    0 -0.45145074789E+02  0.27728917955E+02 -0.20137797131E+03  0.20827273080E+03  0.41800000000E+01 0. -1.
         -5    1    3    3    0  502  0.11272955547E+01  0.28567822362E+02  0.10611175856E+02  0.30780849937E+02  0.41800000000E+01 0. -1.
        -11    1    1    2    0    0  0.14287861681E+02  0.16737694333E+02  0.69848152172E+01  0.23088547954E+02  0.00000000000E+00 0. -1.
         11    1    1    2    0    0  0.29729917552E+02 -0.73034434650E+02 -0.91197105054E+02  0.12056039405E+03  0.00000000000E+00 0.  1.
</event>
<event>
 7    1  0.6473813E-006  0.8114624E+02  0.7561462E-02  0.1325830E+00
          1   -1    0    0  501    0  0.00000000000E+00  0.00000000000E+00  0.29730502553E+03  0.29730502553E+03  0.00000000000E+00 0.  1.
         -1   -1    0    0    0  501 -0.00000000000E+00 -0.00000000000E+00 -0.57583440860E+02  0.57583440860E+02  0.00000000000E+00 0. -1.
         23    2    1    2    0    0 -0.33322033537E+02  0.40197274021E+02  0.63198777241E+02  0.14955811982E+03  0.12508943601E+03 0.  0.
          5    1    3    3  502    0 -0.17543743030E+02 -0.10105589439E+02  0.88535613214E+02  0.90917176950E+02  0.41800000000E+01 0.  1.
         -5    1    3    3    0  502 -0.15778290507E+02  0.50302863461E+02 -0.25336835973E+02  0.58640942871E+02  0.41800000000E+01 0.  1.
        -11    1    1    2    0    0 -0.11506532739E+02  0.14179981208E+02  0.98556688696E+02  0.10023419102E+03  0.00000000000E+00 0.  1.
         11    1    1    2    0    0  0.44828566276E+02 -0.54377255230E+02  0.77966118733E+02  0.10509615555E+03  0.00000000000E+00 0. -1.
</event>
<event>
 7    1  0.6473813E-006  0.9530769E+02  0.7561462E-02  0.1290485E+00
          2   -1    0    0  501    0  0.00000000000E+00  0.00000000000E+00  0.40740147069E+03  0.40740147069E+03  0.00000000000E+00 0.  1.
         -2   -1    0    0    0  501 -0.00000000000E+00 -0.00000000000E+00 -0.51514237599E+02  0.51514237599E+02  0.00000000000E+00 0. -1.
         23    2    1    2    0    0  0.85588860936E+01 -0.33022403284E+02  0.51989732008E+02  0.13969549335E+03  0.12509262560E+03 0.  0.
          5    1    3    3  502    0 -0.43287081458E+02 -0.37860589918E+01 -0.18440502082E+02  0.47388080578E+02  0.41800000000E+01 0. -1.
         -5    1    3    3    0  502  0.51845967551E+02 -0.29236344292E+02  0.70430234091E+02  0.92307412774E+02  0.41800000000E+01 0. -1.
        -11    1    1    2    0    0  0.35232569331E+02  0.57322504798E+01  0.20061324037E+03  0.20376423840E+03  0.00000000000E+00 0.  1.
         11    1    1    2    0    0 -0.43791455425E+02  0.27290152804E+02  0.10328426071E+03  0.11545597654E+03  0.00000000000E+00 0. -1.
</event>
<event>
 7    1  0.6473813E-006  0.8250771E+02  0.7561462E-02  0.1322082E+00
         -1   -1    0    0    0  501 -0.00000000000E+00  0.00000000000E+00  0.15919904458E+03  0.15919904458E+03  0.00000000000E+00 0.  1.
          1   -1    0    0  501    0  0.00000000000E+00 -0.00000000000E+00 -0.89606383379E+02  0.89606383379E+02  0.00000000000E+00 0. -1.
         23    2    1    2    0    0 -0.82807915806E+01 -0.31394504466E+02  0.79397311980E+02  0.15167584810E+03  0.12508974110E+03 0.  0.
          5    1    3    3  502    0  0.68396158947E+01 -0.71410064630E+02  0.81485908799E+02  0.10864438968E+03  0.41800000000E+01 0. -1.
         -5    1    3    3    0  502 -0.15120407475E+02  0.40015560164E+02 -0.20885968190E+01  0.43031458424E+02  0.41800000000E+01 0. -1.
        -11    1    1    2    0    0 -0.12804891263E+02  0.55447850837E+00 -0.44399738133E+02  0.46212654468E+02  0.00000000000E+00 0. -1.
         11    1    1    2    0    0  0.21085682843E+02  0.30840025958E+02  0.34595087358E+02  0.50916925392E+02  0.00000000000E+00 0.  1.
</event>
<event>
 7    1  0.6473813E-006  0.1334097E+03  0.7561462E-02  0.1222482E+00
         -2   -1    0    0    0  501 -0.00000000000E+00  0.00000000000E+00  0.29613136145E+02  0.29613136145E+02  0.00000000000E+00 0.  1.
          2   -1    0    0  501    0  0.00000000000E+00 -0.00000000000E+00 -0.65928750655E+03  0.65928750655E+03  0.00000000000E+00 0. -1.
         23    2    1    2    0    0  0.89084010517E+02 -0.11212951395E+02 -0.31217655212E+03  0.34663118531E+03  0.12098465906E+03 0.  0.
          5    1    3    3  502    0  0.11323364350E+03 -0.22777923868E+02 -0.28795492134E+03  0.31028406494E+03  0.41800000000E+01 0. -1.
         -5    1    3    3    0  502 -0.24149632979E+02  0.11564972473E+02 -0.24221630782E+02  0.36347120368E+02  0.41800000000E+01 0.  1.
        -11    1    1    2    0    0 -0.33242039004E+02  0.47183257448E+02 -0.18903001934E+03  0.19764524065E+03  0.00000000000E+00 0.  1.
         11    1    1    2    0    0 -0.55841971513E+02 -0.35970306053E+02 -0.12846779896E+03  0.14462421674E+03  0.00000000000E+00 0. -1.
</event>
<event>
 7    1  0.6473813E-006  0.7207974E+02  0.7561462E-02  0.1353160E+00
         -2   -1    0    0    0  501 -0.00000000000E+00  0.00000000000E+00  0.34039752921E+02  0.34039752921E+02  0.00000000000E+00 0.  1.
          2   -1    0    0  501    0  0.00000000000E+00 -0.00000000000E+00 -0.37487373396E+03  0.37487373396E+03  0.00000000000E+00 0. -1.
         23    2    1    2    0    0 -0.39197360733E+01 -0.24321695526E+02 -0.16516583235E+03  0.20863817835E+03  0.12507289110E+03 0.  0.
          5    1    3    3  502    0  0.52557200291E+01 -0.34006708634E+02 -0.18284347707E+03  0.18610021046E+03  0.41800000000E+01 0. -1.
         -5    1    3    3    0  502 -0.91754561024E+01  0.96850131077E+01  0.17677644728E+02  0.22537967892E+02  0.41800000000E+01 0. -1.
        -11    1    1    2    0    0 -0.40279865505E+02 -0.76041642726E+01 -0.87210678819E+02  0.96363859301E+02  0.00000000000E+00 0. -1.
         11    1    1    2    0    0  0.44199601579E+02  0.31925859799E+02 -0.88457469870E+02  0.10391144922E+03  0.00000000000E+00 0.  1.
</event>
<event>
 6    1  0.6473813E-006  0.1400389E+03  0.7561462E-02  0.1213277E+00
          1   -1    0    0  501    0  0.00000000000E+00  0.00000000000E+00  0.25230794832E+03  0.25230794832E+03  0.00000000000E+00 0. -1.
         -1   -1    0    0    0  501 -0.00000000000E+00 -0.00000000000E+00 -0.79500995512E+02  0.79500995512E+02  0.00000000000E+00 0.  1.
          5    1    1    2  502    0  0.51979215897E+02  0.22638545120E+02  0.29173511069E+02  0.63897642825E+02  0.41800000000E+01 0. -1.
         -5    1    1    2    0  502 -0.10298368182E+03 -0.31214107151E+02  0.67879407725E+02  0.12729904006E+03  0.41800000000E+01 0.  1.
        -11    1    1    2    0    0  0.22078709372E+02  0.55883553682E+02  0.54835827846E+02  0.81347458443E+02  0.00000000000E+00 0. -1.
         11    1    1    2    0    0  0.28925756555E+02 -0.47307991651E+02  0.20918206165E+02  0.59264802501E+02  0.00000000000E+00 0.  1.
</event>
<event>
 7    1  0.6473813E-006  0.1657865E+03  0.7561462E-02  0.1182314E+00
          2   -1    0    0  501    0  0.00000000000E+00  0.00000000000E+00  0.68568497548E+02  0.68568497548E+02  0.00000000000E+00 0. -1.
         -2   -1    0    0    0  501 -0.00000000000E+00 -0.00000000000E+00 -0.45740641511E+03  0.45740641511E+03  0.00000000000E+00 0.  1.
         23    2    1    2    0    0  0.13051647479E+03  0.48143058901E+02 -0.22741410434E+03  0.29447596599E+03  0.12508643165E+03 0.  0.
          5    1    3    3  502    0  0.12812354642E+02 -0.29413399619E+02 -0.97527837526E+02  0.10275434785E+03  0.41800000000E+01 0. -1.
         -5    1    3    3    0  502  0.11770412015E+03  0.77556458520E+02 -0.12988626681E+03  0.19172161815E+03  0.41800000000E+01 0. -1.
        -11    1    1    2    0    0 -0.26798196528E+01  0.15266401059E+02 -0.44155568690E+02  0.46796994358E+02  0.00000000000E+00 0.  1.
         11    1    1    2    0    0 -0.12783665514E+03 -0.63409459960E+02 -0.11726824453E+03  0.18470195231E+03  0.00000000000E+00 0. -1.
</event>
<event>
 7    1  0.6473813E-006  0.9872403E+02  0.7561462E-02  0.1283002E+00
         -2   -1    0    0    0  501 -0.00000000000E+00  0.00000000000E+00  0.60429992485E+02  0.60429992485E+02  0.00000000000E+00 0.  1.
          2   -1    0    0  501    0  0.00000000000E+00 -0.00000000000E+00 -0.23760476300E+03  0.23760476300E+03  0.00000000000E+00 0. -1.
         23    2    1    2    0    0  0.32774991728E+02 -0.37418889397E+02 -0.94234730276E+02  0.16432276037E+03  0.12508961515E+03 0.  0.
          5    1    3    3  502    0 -0.10886756715E+02  0.35330670026E+02  0.32799091181E+00  0.37206957606E+02  0.41800000000E+01 0.  1.
         -5    1    3    3    0  502  0.43661748443E+02 -0.72749559423E+02 -0.94562721188E+02  0.12711580276E+03  0.41800000000E+01 0.  1.
        -11    1    1    2    0    0 -0.26474180672E+01  0.44309157505E+02  0.85803062157E+00  0.44396469204E+02  0.00000000000E+00 0.  1.
         11    1    1    2    0    0 -0.30127573661E+02 -0.68902681080E+01 -0.83798070860E+02  0.89315525914E+02  0.00000000000E+00 0. -1.
</event>
<event>
 7    1  0.6473813E-006  0.1320804E+03  0.7561462E-02  0.1224401E+00
         -2   -1    0    0    0  501 -0.00000000000E+00  0.00000000000E+00  0.35555053794E+02  0.35555053794E+02  0.00000000000E+00 0.  1.
          2   -1    0    0  501    0  0.00000000000E+00 -0.00000000000E+00 -0.78982666470E+03  0.78982666470E+03  0.00000000000E+00 0. -1.
         23    2    1    2    0    0 -0.49339822076E+01 -0.10150789520E+03 -0.21604923847E+03  0.26954795247E+03  0.12510247107E+03 0.  0.
          5    1    3    3  502    0 -0.37001903397E+02 -0.29789413503E+02 -0.96363754985E+01  0.48650612993E+02  0.41800000000E+01 0.  1.
         -5    1    3    3    0  502  0.32067921190E+02 -0.71718481699E+02 -0.20641286297E+03  0.22089733947E+03  0.41800000000E+01 0.  1.
        -11    1    1    2    0    0 -0.44113404922E+02  0.49946095224E+02 -0.29380121391E+03  0.30126360254E+03  0.00000000000E+00 0. -1.
         11    1    1    2    0    0  0.49047387129E+02  0.51561799977E+02 -0.24442115853E+03  0.25457016349E+03  0.00000000000E+00 0.  1.
</event>
<event>
 7    1  0.6473813E-006  0.8554816E+02  0.7561462E-02  0.1314005E+00
         -4   -1    0    0    0  501 -0.00000000000E+00  0.00000000000E+00  0.67069882606E+03  0.67069882606E+03  0.00000000000E+00 0. -1.
          4   -1    0    0  501    0  0.00000000000E+00 -0.00000000000E+00 -0.24319118445E+02  0.24319118445E+02  0.00000000000E+00 0.  1.
         23    2    1    2    0    0  0.45485661116E+02 -0.24845308619E+02  0.47879367845E+03  0.49756965520E+03  0.12508373406E+03 0.  0.
          5    1    3    3  502    0  0.36914780440E+02  0.22067987509E+02  0.49885010435E+02  0.65997604151E+02  0.41800000000E+01 0.  1.
         -5    1    3    3    0  502  0.85708806765E+01 -0.46913296128E+02  0.42890866802E+03  0.43157205105E+03  0.41800000000E+01 0.  1.
        -11    1    1    2    0    0 -0.11878389708E+02  0.41027637314E+02  0.15045823216E+03  0.15640346157E+03  0.00000000000E+00 0. -1.
         11    1    1    2    0    0 -0.33607271408E+02 -0.16182328695E+02  0.17127797000E+02  0.41044827733E+02  0.00000000000E+00 0.  1.
</event>
<event>
 7    1  0.6473813E-006  0.1714477E+03  0.7561462E-02  0.1176347E+00
          1   -1    0    0  501    0  0.00000000000E+00  0.00000000000E+00  0.15859428106E+03  0.15859428106E+03  0.00000000000E+00 0. -1.
         -1   -1    0    0    0  501 -0.00000000000E+00 -0.00000000000E+00 -0.20425820010E+03  0.20425820010E+03  0.00000000000E+00 0.  1.
         23    2    1    2    0    0 -0.83644776358E+01  0.13638334942E+03  0.17314600739E+02  0.18605719526E+03  0.12508837686E+03 0.  0.
          5    1    3    3  502    0 -0.25825564635E+02  0.15411390778E+03  0.27728869627E+02  0.15875899650E+03  0.41800000000E+01 0. -1.
         -5    1    3    3    0  502  0.17461086999E+02 -0.17730558361E+02 -0.10414268888E+02  0.27298198759E+02  0.41800000000E+01 0. -1.
        -11    1    1    2    0    0  0.45062683324E+02 -0.99912356966E+02 -0.24480413963E+02  0.11230500955E+03  0.00000000000E+00 0. -1.
         11    1    1    2    0    0 -0.36698205688E+02 -0.36470992451E+02 -0.38498105816E+02  0.64490276341E+02  0.00000000000E+00 0.  1.
</event>
<event>
 7    1  0.6473813E-006  0.1041153E+03  0.7561462E-02  0.1271873E+00
         -2   -1    0    0    0  501 -0.00000000000E+00  0.00000000000E+00  0.18607798272E+02  0.18607798272E+02  0.00000000000E+00 0.  1.
          2   -1    0    0  501    0  0.00000000000E+00 -0.00000000000E+00 -0.67419559535E+03  0.67419559535E+03  0.00000000000E+00 0. -1.
         23    2    1    2    0    0 -0.15030133837E+02  0.91246583922E+01 -0.41820662336E+03  0.43686767611E+03  0.12508965702E+03 0.  0.
          5    1    3    3  502    0 -0.13685249995E+02  0.59937537941E+02 -0.12620764716E+03  0.14044798725E+03  0.41800000000E+01 0.  1.
         -5    1    3    3    0  502 -0.13448838418E+01 -0.50812879548E+02 -0.29199897619E+03  0.29641968885E+03  0.41800000000E+01 0.  1.
        -11    1    1    2    0    0 -0.40050714190E+02 -0.25029472839E+01 -0.10436864976E+03  0.11181743828E+03  0.00000000000E+00 0.  1.
         11    1    1    2    0    0  0.55080848027E+02 -0.66217111083E+01 -0.13301252397E+03  0.14411827923E+03  0.00000000000E+00 0. -1.
</event>
<event>
 7    1  0.6473813E-006  0.1034282E+03  0.7561462E-02  0.1273248E+00
          1   -1    0    0  501    0  0.00000000000E+00  0.00000000000E+00  0.83364956260E+02  0.83364956260E+02  0.00000000000E+00 0. -1.
         -1   -1    0    0    0  501 -0.00000000000E+00 -0.00000000000E+00 -0.20916117569E+03  0.20916117569E+03  0.00000000000E+00 0.  1.
         23    2    1    2    0    0 -0.61075382541E+02  0.29831943834E+02 -0.10902997887E+03  0.17931911502E+03  0.12509061313E+03 0.  0.
          5    1    3    3  502    0  0.32793896203E+02  0.78844032823E+01 -0.35407734249E+00  0.33988251118E+02  0.41800000000E+01 0.  1.
         -5    1    3    3    0  502 -0.93869278744E+02  0.21947540552E+02 -0.10867590153E+03  0.14533086390E+03  0.41800000000E+01 0.  1.
        -11    1    1    2    0    0  0.14402495023E+02 -0.25779774006E+02 -0.48386666410E+02  0.56685960317E+02  0.00000000000E+00 0.  1.
         11    1    1    2    0    0  0.46672887518E+02 -0.40521698279E+01  0.31620425855E+02  0.56521056615E+02  0.00000000000E+00 0. -1.
</event>
<event>
 7    1  0.6473813E-006  0.1363937E+03  0.7561462E-02  0.1218266E+00
         -1   -1    0    0    0  501 -0.00000000000E+00  0.00000000000E+00  0.51589592458E+03  0.51589592458E+03  0.00000000000E+00 0.  1.
          1   -1    0    0  501    0  0.00000000000E+00 -0.00000000000E+00 -0.36799123371E+02  0.36799123371E+02  0.00000000000E+00 0. -1.
         23    2    1    2    0    0 -0.71122931548E+02  0.42483413426E+02  0.28669943061E+03  0.32358625698E+03  0.12509272715E+03 0.  0.
          5    1    3    3  502    0 -0.44092197230E+02 -0.41236644025E+02  0.95226168977E+02  0.11282764876E+03  0.41800000000E+01 0.  1.
         -5    1    3    3    0  502 -0.27030734318E+02  0.83720057452E+02  0.19147326164E+03  0.21075860822E+03  0.41800000000E+01 0.  1.
        -11    1    1    2    0    0  0.85159071072E+02 -0.63053582566E+01  0.13814765264E+03  0.16240874009E+03  0.00000000000E+00 0.  1.
         11    1    1    2    0    0 -0.14036139524E+02 -0.36178055170E+02  0.54249717956E+02  0.66700050877E+02  0.00000000000E+00 0. -1.
</event>
<event>
 7    1  0.6473813E-006  0.1189511E+03  0.7561462E-02  0.1244837E+00
         -1   -1    0    0    0  501 -0.00000000000E+00  0.00000000000E+00  0.27566122137E+02  0.27566122137E+02  0.00000000000E+00 0.  1.
          1   -1    0    0  501    0  0.00000000000E+00 -0.00000000000E+00 -0.83883285483E+03  0.83883285483E+03  0.00000000000E+00 0. -1.
         23    2    1    2    0    0 -0.89092203533E+02 -0.35674492557E+02 -0.29252224297E+03  0.33109086995E+03  0.12182697311E+03 0.  0.
          5    1    3    3  502    0 -0.33317867006E+02 -0.38925856644E+02 -0.26258273677E+03  0.26756768981E+03  0.41800000000E+01 0. -1.
         -5    1    3    3    0  502 -0.55774336527E+02  0.32513640863E+01 -0.29939506199E+02  0.63523180139E+02  0.41800000000E+01 0.  1.
        -11    1    1    2    0    0  0.92450022733E+02 -0.21704450552E+01 -0.40353919765E+03  0.41399951881E+03  0.00000000000E+00 0. -1.
         11    1    1    2    0    0 -0.33578192002E+01  0.37844937612E+02 -0.11520529208E+03  0.12130858822E+03  0.00000000000E+00 0.  1.
</event>
<event>
 7    1  0.6473813E-006  0.1185926E+03  0.7561462E-02  0.1245437E+00
          2   -1    0    0  501    0  0.00000000000E+00  0.00000000000E+00  0.11019717891E+04  0.11019717891E+04  0.00000000000E+00 0. -1.
         -2   -1    0    0    0  501 -0.00000000000E+00 -0.00000000000E+00 -0.13875887437E+02  0.13875887437E+02  0.00000000000E+00 0.  1.
         23    2    1    2    0    0 -0.47020329112E+02 -0.30889628063E+02  0.60266889687E+03  0.61807951364E+03  0.12508958970E+03 0.  0.
          5    1    3    3  502    0 -0.17981554880E+02 -0.74972232745E+02  0.25602256185E+03  0.26741203521E+03  0.41800000000E+01 0. -1.
         -5    1    3    3    0  502 -0.29038774233E+02  0.44082604682E+02  0.34664633502E+03  0.35066747843E+03  0.41800000000E+01 0. -1.
        -11    1    1    2    0    0  0.34450420504E+02 -0.29488752196E+02  0.26604804050E+03  0.26988511969E+03  0.00000000000E+00 0. -1.
         11    1    1    2    0    0  0.12569908608E+02  0.60378380260E+02  0.21937896425E+03  0.22788304317E+03  0.00000000000E+00 0.  1.
</event>
<event>
 7    1  0.6473813E-006  0.9905447E+02  0.7561462E-02  0.1282297E+00
          2   -1    0    0  501    0  0.00000000000E+00  0.00000000000E+00  0.13224582960E+03  0.13224582960E+03  0.00000000000E+00 0. -1.
         -2   -1    0    0    0  501 -0.00000000000E+00 -0.00000000000E+00 -0.10905534295E+03  0.10905534295E+03  0.00000000000E+00 0.  1.
         23    2    1    2    0    0 -0.17679014170E+02 -0.56273075042E+00 -0.44303715893E+02  0.12586269504E+03  0.11647203335E+03 0.  0.
          5    1    3    3  502    0 -0.47512129621E+02  0.42874938710E+02 -0.31600959591E+02  0.71496544515E+02  0.41800000000E+01 0. -1.
         -5    1    3    3    0  502  0.29833115451E+02 -0.43437669460E+02 -0.12702756302E+02  0.54366150529E+02  0.41800000000E+01 0.  1.
        -11    1    1    2    0    0 -0.28866122933E+02 -0.14352522714E+02  0.56944435346E+02  0.65436355937E+02  0.00000000000E+00 0. -1.
         11    1    1    2    0    0  0.46545137103E+02  0.14915253464E+02  0.10549767200E+02  0.50002121573E+02  0.00000000000E+00 0.  1.
</event>
<event>
 7    1  0.6473813E-006  0.9510616E+02  0.7561462E-02  0.1290937E+00
          2   -1    0    0  501    0  0.00000000000E+00  0.00000000000E+00  0.52092197822E+02  0.52092197822E+02  0.00000000000E+00 0. -1.
         -2   -1    0    0    0  501 -0.00000000000E+00 -0.00000000000E+00 -0.28473199440E+03  0.28473199440E+03  0.00000000000E+00 0.  1.
         23    2    1    2    0    0  0.36864786102E+01 -0.25780507315E+02 -0.16240596528E+03  0.20665402820E+03  0.12510781403E+03 0.  0.
          5    1    3    3  502    0  0.40567790162E+02 -0.61507019036E+02 -0.75170000646E+02  0.10534163653E+03  0.41800000000E+01 0. -1.
         -5    1    3    3    0  502 -0.36881311552E+02  0.35726511721E+02 -0.87235964632E+02  0.10131239167E+03  0.41800000000E+01 0. -1.
        -11    1    1    2    0    0  0.27557877178E+02  0.69707914783E+01  0.18716222069E+02  0.34034181303E+02  0.00000000000E+00 0. -1.
         11    1    1    2    0    0 -0.31244355789E+02  0.18809715837E+02 -0.88950053372E+02  0.96135982720E+02  0.00000000000E+00 0.  1.
</event>
<event>
 6    1  0.6473813E-006  0.1999964E+03  0.7561462E-02  0.1149742E+00
          2   -1    0    0  501    0  0.00000000000E+00  0.00000000000E+00  0.71275334196E+03  0.71275334196E+03  0.00000000000E+00 0. -1.
         -2   -1    0    0    0  501 -0.00000000000E+00 -0.00000000000E+00 -0.69017180182E+02  0.69017180182E+02  0.00000000000E+00 0.  1.
          5    1    1    2  502    0  0.10749008463E+03 -0.11665640661E+03  0.20975927317E+03  0.26301950608E+03  0.41800000000E+01 0. -1.
         -5    1    1    2    0  502 -0.19780301185E+02 -0.39566696403E+02  0.47068380012E+01  0.44681209733E+02  0.41800000000E+01 0.  1.
        -11    1    1    2    0    0 -0.59696894626E+02  0.28560464768E+02  0.10112848177E+03  0.12085689554E+03  0.00000000000E+00 0.  1.
         11    1    1    2    0    0 -0.28012888823E+02  0.12766263825E+03  0.32814156883E+03  0.35321291078E+03  0.00000000000E+00 0. -1.
</event>
<event>
 7    1  0.6473813E-006  0.1271796E+03  0.7561462E-02  0.1231702E+00
         -1   -1    0    0    0  501 -0.00000000000E+00  0.00000000000E+00  0.14310282538E+03  0.14310282538E+03  0.00000000000E+00 0.  1.
          1   -1    0    0  501    0  0.00000000000E+00 -0.00000000000E+00 -0.13927766322E+03  0.13927766322E+03  0.00000000000E+00 0. -1.
         23    2    1    2    0    0 -0.71473489117E+02 -0.72479740783E+01  0.54280004487E+02  0.15412665458E+03  0.12509082296E+03 0.  0.
          5    1    3    3  502    0  0.52923679971E+01 -0.53860756939E+02  0.18213146152E+02  0.57255404896E+02  0.41800000000E+01 0. -1.
         -5    1    3    3    0  502 -0.76765857114E+02  0.46612782861E+02  0.36066858335E+02  0.96871249681E+02  0.41800000000E+01 0. -1.
        -11    1    1    2    0    0  0.16833138372E+02 -0.36487294121E+02  0.28411450230E+01  0.40283362381E+02  0.00000000000E+00 0. -1.
         11    1    1    2    0    0  0.54640350746E+02  0.43735268199E+02 -0.53295987353E+02  0.87970471648E+02  0.00000000000E+00 0.  1.
</event>
<event>
 7    1  0.6473813E-006  0.1016716E+03  0.7561462E-02  0.1276820E+00
         -1   -1    0    0    0  501 -0.00000000000E+00  0.00000000000E+00  0.10689103286E+04  0.10689103286E+04  0.00000000000E+00 0.  1.
          1   -1    0    0  501    0  0.00000000000E+00 -0.00000000000E+00 -0.13897710953E+02  0.13897710953E+02  0.00000000000E+00 0. -1.
         23    2    1    2    0    0  0.20019245234E+02 -0.26363230302E+02  0.79700442902E+03  0.80744006926E+03  0.12509042919E+03 0.  0.
          5    1    3    3  502    0 -0.85196636519E+01  0.44836543313E+02  0.43294844994E+03  0.43536735407E+03  0.41800000000E+01 0. -1.
         -5    1    3    3    0  502  0.28538908885E+02 -0.71199773616E+02  0.36405597908E+03  0.37207271519E+03  0.41800000000E+01 0. -1.
        -11    1    1    2    0    0 -0.48136439367E+02  0.17317494513E+02  0.22639875760E+03  0.23210646233E+03  0.00000000000E+00 0.  1.
         11    1    1    2    0    0  0.28117194133E+02  0.90457357889E+01  0.31609431029E+02  0.43261507970E+02  0.00000000000E+00 0. -1.
</event>
<event>
 7    1  0.6473813E-006  0.1621161E+03  0.7561462E-02  0.1186328E+00
         -1   -1    0    0    0  501 -0.00000000000E+00  0.00000000000E+00  0.18292396992E+03  0.18292396992E+03  0.00000000000E+00 0.  1.
          1   -1    0    0  501    0  0.00000000000E+00 -0.00000000000E+00 -0.28677573039E+03  0.28677573039E+03  0.00000000000E+00 0. -1.
         23    2    1    2    0    0 -0.33442526356E+02 -0.14254992947E+03  0.88295641624E+02  0.21185582400E+03  0.12509150599E+03 0.  0.
          5    1    3    3  502    0  0.16982023364E+02 -0.36743265563E+02 -0.25839470649E+02  0.48203810277E+02  0.41800000000E+01 0. -1.
         -5    1    3    3    0  502 -0.50424549720E+02 -0.10580666391E+03  0.11413511227E+03  0.16365201372E+03  0.41800000000E+01 0. -1.
        -11    1    1    2    0    0  0.57941545257E+02  0.77639711214E+02 -0.14337618006E+03  0.17303721112E+03  0.00000000000E+00 0. -1.
         11    1    1    2    0    0 -0.24499018902E+02  0.64910218260E+02 -0.48771222036E+02  0.84806665190E+02  0.00000000000E+00 0.  1.
</event>
<event>
 7    1  0.6473813E-006  0.2510777E+03  0.7561462E-02  0.1112626E+00
          2   -1    0    0  501    0  0.00000000000E+00  0.00000000000E+00  0.52650903547E+03  0.52650903547E+03  0.00000000000E+00 0.  1.
         -2   -1    0    0    0  501 -0.00000000000E+00 -0.00000000000E+00 -0.49813705137E+03  0.49813705137E+03  0.00000000000E+00 0. -1.
         23    2    1    2    0    0  0.13362431505E+03  0.19409916087E+03 -0.42719588246E+03  0.50365981096E+03  0.12508773467E+03 0.  0.
          5    1    3    3  502    0  0.63087465885E+02  0.17832275426E+03 -0.26084904858E+03  0.32224017686E+03  0.41800000000E+01 0.  1.
         -5    1    3    3    0  502  0.70536849161E+02  0.15776406612E+02 -0.16634683387E+03  0.18141963410E+03  0.41800000000E+01 0.  1.
        -11    1    1    2    0    0 -0.24399494279E+01 -0.31684172200E+02  0.13304261651E+03  0.13678515245E+03  0.00000000000E+00 0.  1.
         11    1    1    2    0    0 -0.13118436562E+03 -0.16241498867E+03  0.32252525004E+03  0.38420112343E+03  0.00000000000E+00 0. -1.
</event>
<event>
 7    1  0.6473813E-006  0.1292094E+03  0.7561462E-02  0.1228634E+00
         -2   -1    0    0    0  501 -0.00000000000E+00  0.00000000000E+00  0.24268984566E+02  0.24268984566E+02  0.00000000000E+00 0.  1.
          2   -1    0    0  501    0  0.00000000000E+00 -0.00000000000E+00 -0.86399436048E+03  0.86399436048E+03  0.00000000000E+00 0. -1.
         23    2    1    2    0    0 -0.73278103150E+02  0.53617570279E+02 -0.36990096437E+03  0.40089688349E+03  0.12508822290E+03 0.  0.
          5    1    3    3  502    0 -0.76378208450E+02 -0.15218625890E+02 -0.13339107709E+03  0.15451824859E+03  0.41800000000E+01 0. -1.
         -5    1    3    3    0  502  0.31001052993E+01  0.68836196169E+02 -0.23650988727E+03  0.24637863490E+03  0.41800000000E+01 0. -1.
        -11    1    1    2    0    0  0.51478421699E+02 -0.67992422007E+02 -0.43787970264E+03  0.44610719713E+03  0.00000000000E+00 0. -1.
         11    1    1    2    0    0  0.21799681451E+02  0.14374851728E+02 -0.31944708912E+02  0.41259264427E+02  0.00000000000E+00 0.  1.
</event>
<event>
 7    1  0.6473813E-006  0.1414635E+03  0.7561462E-02  0.1211373E+00
         -2   -1    0    0    0  501 -0.00000000000E+00  0.00000000000E+00  0.28985596525E+02  0.28985596525E+02  0.00000000000E+00 0.  1.
          2   -1    0    0  501    0  0.00000000000E+00 -0.00000000000E+00 -0.93876074107E+03  0.93876074107E+03  0.00000000000E+00 0. -1.
         23    2    1    2    0    0 -0.46074220136E+02  0.84585276121E+02 -0.26791733788E+03  0.31097468771E+03  0.12509218104E+03 0.  0.
          5    1    3    3  502    0 -0.74259147030E+02  0.88813097049E+02 -0.14963861138E+03  0.18923893241E+03  0.41800000000E+01 0.  1.
         -5    1    3    3    0  502  0.28184926895E+02 -0.42278209280E+01 -0.11827872650E+03  0.12173575529E+03  0.41800000000E+01 0.  1.
        -11    1    1    2    0    0  0.68862225981E+02 -0.91451378029E+02 -0.55681286369E+03  0.56845925613E+03  0.00000000000E+00 0.  1.
         11    1    1    2    0    0 -0.22788005845E+02  0.68661019081E+01 -0.85044942978E+02  0.88312393762E+02  0.00000000000E+00 0. -1.
</event>
<event>
 7    1  0.6473813E-006  0.1248486E+03  0.7561462E-02  0.1235306E+00
          1   -1    0    0  501    0  0.00000000000E+00  0.00000000000E+00  0.17879372110E+03  0.17879372110E+03  0.00000000000E+00 0. -1.
         -1   -1    0    0    0  501 -0.00000000000E+00 -0.00000000000E+00 -0.10668477946E+03  0.10668477946E+03  0.00000000000E+00 0.  1.
         23    2    1    2    0    0  0.24488857439E+02 -0.72110462729E+02 -0.65827154149E+01  0.14659658089E+03  0.12509037698E+03 0.  0.
          5    1    3    3  502    0  0.58607280112E+01 -0.10653004480E+03 -0.90755793547E+01  0.10715800072E+03  0.41800000000E+01 0.  1.
         -5    1    3    3    0  502  0.18628129428E+02  0.34419582067E+02  0.24928639398E+01  0.39438580175E+02  0.41800000000E+01 0.  1.
        -11    1    1    2    0    0 -0.17959606853E+02 -0.10428381063E+02  0.44871209207E+02  0.49444150570E+02  0.00000000000E+00 0. -1.
         11    1    1    2    0    0 -0.65292505866E+01  0.82538843792E+02  0.33820447848E+02  0.89437769093E+02  0.00000000000E+00 0.  1.
</event>
<event>
 7    1  0.6473813E-006  0.1372775E+03  0.7561462E-02  0.1217040E+00
          2   -1    0    0  501    0  0.00000000000E+00  0.00000000000E+00  0.60817661616E+03  0.60817661616E+03  0.00000000000E+00 0. -1.
         -2   -1    0    0    0  501 -0.00000000000E+00 -0.00000000000E+00 -0.44814603524E+02  0.44814603524E+02  0.00000000000E+00 0.  1.
         23    2    1    2    0    0 -0.11460022929E+03  0.32519577642E+02  0.36853217049E+03  0.40700653716E+03  0.12509046773E+03 0.  0.
          5    1    3    3  502    0 -0.82866910541E+02 -0.39835730813E-01  0.81285450324E+02  0.11615387761E+03  0.41800000000E+01 0.  1.
         -5    1    3    3    0  502 -0.31733318752E+02  0.32559413372E+02  0.28724672017E+03  0.29085265955E+03  0.41800000000E+01 0.  1.
        -11    1    1    2    0    0  0.91623031188E+02  0.15281554511E+02  0.15051863034E+03  0.17687329881E+03  0.00000000000E+00 0.  1.
         11    1    1    2    0    0  0.22977198105E+02 -0.47801132153E+02  0.44311211802E+02  0.69111383717E+02  0.00000000000E+00 0. -1.
</event>
<event>
 7    1  0.6473813E-006  0.9799267E+02  0.7561462E-02  0.1284575E+00
         -2   -1    0    0    0  501 -0.00000000000E+00  0.00000000000E+00  0.19726165720E+02  0.19726165720E+02  0.00000000000E+00 0. -1.
          2   -1    0    0  501    0  0.00000000000E+00 -0.00000000000E+00 -0.88459952355E+03  0.88459952355E+03  0.00000000000E+00 0.  1.
         23    2    1    2    0    0  0.13983557456E+02 -0.45440336821E+02 -0.28910647937E+03  0.31857532058E+03  0.12508922566E+03 0.  0.
          5    1    3    3  502    0  0.40122080766E+01  0.20817104765E+02 -0.22405512739E+03  0.22509469602E+03  0.41800000000E+01 0.  1.
         -5    1    3    3    0  502  0.99713493799E+01 -0.66257441586E+02 -0.65051351983E+02  0.93480624564E+02  0.41800000000E+01 0.  1.
        -11    1    1    2    0    0  0.31174665063E+02  0.52968676279E+02 -0.35584397999E+03  0.36111283348E+03  0.00000000000E+00 0.  1.
         11    1    1    2    0    0 -0.45158222520E+02 -0.75283394585E+01 -0.21992289847E+03  0.22463753522E+03  0.00000000000E+00 0. -1.
</event>
<event>
 7    1  0.6473813E-006  0.1318863E+03  0.7561462E-02  0.1224683E+00
          3   -1    0    0  501    0  0.00000000000E+00  0.00000000000E+00  0.30710628253E+02  0.30710628253E+02  0.00000000000E+00 0. -1.
         -3   -1    0    0    0  501 -0.00000000000E+00 -0.00000000000E+00 -0.58087473258E+03  0.58087473258E+03  0.00000000000E+00 0.  1.
         23    2    1    2    0    0 -0.75307063760E+02 -0.14219020434E+02 -0.33529525838E+03  0.36598333163E+03  0.12509018485E+03 0.  0.
          5    1    3    3  502    0 -0.20091138239E+02 -0.66752227113E+02 -0.17587196784E+03  0.18922984736E+03  0.41800000000E+01 0. -1.
         -5    1    3    3    0  502 -0.55215925521E+02  0.52533206680E+02 -0.15942329055E+03  0.17675348428E+03  0.41800000000E+01 0. -1.
        -11    1    1    2    0    0  0.58150998940E+02 -0.33353619572E+02 -0.14042041325E+03  0.15560171938E+03  0.00000000000E+00 0.  1.
         11    1    1    2    0    0  0.17156064821E+02  0.47572640006E+02 -0.74448432700E+02  0.90000309826E+02  0.00000000000E+00 0. -1.
</event>
<event>
 7    1  0.6473813E-006  0.9820263E+02  0.7561462E-02  0.1284122E+00
          2   -1    0    0  501    0  0.00000000000E+00  0.00000000000E+00  0.54808289059E+02  0.54808289059E+02  0.00000000000E+00 0. -1.
         -2   -1    0    0    0  501 -0.00000000000E+00 -0.00000000000E+00 -0.29919278407E+03  0.29919278407E+03  0.00000000000E+00 0.  1.
         23    2    1    2    0    0 -0.20231747987E+02  0.35965302103E+02 -0.20836402816E+03  0.24650843709E+03  0.12509202510E+03 0.  0.
          5    1    3    3  502    0 -0.22453839893E+02 -0.44820870487E+02 -0.90418548650E+02  0.10347014882E+03  0.41800000000E+01 0.  1.
         -5    1    3    3    0  502  0.22220919056E+01  0.80786172591E+02 -0.11794547951E+03  0.14303828827E+03  0.41800000000E+01 0.  1.
        -11    1    1    2    0    0  0.13870369106E+02 -0.48863644410E+02 -0.60564800271E+02  0.79045163774E+02  0.00000000000E+00 0.  1.
         11    1    1    2    0    0  0.63613788812E+01  0.12898342307E+02  0.24544333417E+02  0.28447472267E+02  0.00000000000E+00 0. -1.
</event>
<event>
 7    1  0.6473813E-006  0.1218935E+03  0.7561462E-02  0.1240006E+00
         -3   -1    0    0    0  501 -0.00000000000E+00  0.00000000000E+00  0.40328298133E+02  0.40328298133E+02  0.00000000000E+00 0.  1.
          3   -1    0    0  501    0  0.00000000000E+00 -0.00000000000E+00 -0.45941636920E+03  0.45941636920E+03  0.00000000000E+00 0. -1.
         23    2    1    2    0    0  0.69212442833E+02 -0.15220080775E+02 -0.15423871262E+03  0.21085427313E+03  0.12509169006E+03 0.  0.
          5    1    3    3  502    0 -0.32646907451E+02  0.73131712020E+01 -0.66171021308E+02  0.74265601055E+02  0.41800000000E+01 0.  1.
         -5    1    3    3    0  502  0.10185935028E+03 -0.22533251977E+02 -0.88067691311E+02  0.13658867207E+03  0.41800000000E+01 0.  1.
        -11    1    1    2    0    0 -0.25690557372E+02  0.45772919183E+02 -0.73691798001E+02  0.90474559746E+02  0.00000000000E+00 0.  1.
         11    1    1    2    0    0 -0.43521885461E+02 -0.30552838408E+02 -0.19115756045E+03  0.19841583446E+03  0.00000000000E+00 0. -1.
</event>
<event>
 7    1  0.6473813E-006  0.1209010E+03  0.7561462E-02  0.1241618E+00
         -2   -1    0    0    0  501 -0.00000000000E+00  0.00000000000E+00  0.20880657831E+02  0.20880657831E+02  0.00000000000E+00 0.  1.
          2   -1    0    0  501    0  0.00000000000E+00 -0.00000000000E+00 -0.77625660856E+03  0.77625660856E+03  0.00000000000E+00 0. -1.
         23    2    1    2    0    0  0.31417631762E+02 -0.36381846462E+02 -0.29445971803E+03  0.32351917322E+03  0.12508966209E+03 0.  0.
          5    1    3    3  502    0 -0.32053701094E+02 -0.58199789468E+02 -0.15503741385E+03  0.16872678312E+03  0.41800000000E+01 0. -1.
         -5    1    3    3    0  502  0.63471332856E+02  0.21817943006E+02 -0.13942230418E+03  0.15479239010E+03  0.41800000000E+01 0. -1.
        -11    1    1    2    0    0  0.16866644299E+02  0.54007788076E+02 -0.27280903741E+03  0.27861460075E+03  0.00000000000E+00 0. -1.
         11    1    1    2    0    0 -0.48284276061E+02 -0.17625941614E+02 -0.18810719529E+03  0.19500349241E+03  0.00000000000E+00 0.  1.
</event>
<event>
 7    1  0.6473813E-006  0.1225341E+03  0.7561462E-02  0.1238974E+00
         -2   -1    0    0    0  501 -0.00000000000E+00  0.00000000000E+00  0.44165086957E+02  0.44165086957E+02  0.00000000000E+00 0.  1.
          2   -1    0    0  501    0  0.00000000000E+00 -0.00000000000E+00 -0.34846712300E+03  0.34846712300E+03  0.00000000000E+00 0. -1.
         23    2    1    2    0    0 -0.33368754064E+02  0.49869681743E+02 -0.17537438521E+03  0.22361607851E+03  0.12509003427E+03 0.  0.
          5    1    3    3  502    0 -0.20223570608E+02 -0.40648932325E+02 -0.43089733344E+02  0.62733771024E+02  0.41800000000E+01 0. -1.
         -5    1    3    3    0  502 -0.13145183456E+02  0.90518614068E+02 -0.13228465187E+03  0.16088230748E+03  0.41800000000E+01 0. -1.
        -11    1    1    2    0    0  0.37279924268E+02 -0.74321939498E+02 -0.87157533087E+02  0.12045737428E+03  0.00000000000E+00 0.  1.
         11    1    1    2    0    0 -0.39111702038E+01  0.24452257755E+02 -0.41770117746E+02  0.48558757173E+02  0.00000000000E+00 0. -1.
</event>
<event>
 7    1  0.6473813E-006  0.1119025E+03  0.7561462E-02  0.1257087E+00
         -2   -1    0    0    0  501 -0.00000000000E+00  0.00000000000E+00  0.28858951988E+02  0.28858951988E+02  0.00000000000E+00 0.  1.
          2   -1    0    0  501    0  0.00000000000E+00 -0.00000000000E+00 -0.64305488800E+03  0.64305488800E+03  0.00000000000E+00 0. -1.
         23    2    1    2    0    0 -0.47179667510E+02  0.30895399909E+02 -0.20080774240E+03  0.24321330474E+03  0.12509402637E+03 0.  0.
          5    1    3    3  502    0 -0.62672252369E+02 -0.12510163811E+02 -0.18256105543E+03  0.19346918818E+03  0.41800000000E+01 0. -1.
         -5    1    3    3    0  502  0.15492584859E+02  0.43405563720E+02 -0.18246686976E+02  0.49744116567E+02  0.41800000000E+01 0. -1.
        -11    1    1    2    0    0  0.11927708669E+02 -0.64013120516E+02 -0.24461089193E+03  0.25312929164E+03  0.00000000000E+00 0.  1.
         11    1    1    2    0    0  0.35251958841E+02  0.33117720607E+02 -0.16877730168E+03  0.17557124361E+03  0.00000000000E+00 0. -1.
</event>
<event>
 7    1  0.6473813E-006  0.2621988E+03  0.7561462E-02  0.1105829E+00
          1   -1    0    0  501    0  0.00000000000E+00  0.00000000000E+00  0.22168170905E+04  0.22168170905E+04  0.00000000000E+00 0. -1.
         -1   -1    0    0    0  501 -0.00000000000E+00 -0.00000000000E+00 -0.34347405365E+02  0.34347405365E+02  0.00000000000E+00 0.  1.
         23    2    1    2    0    0 -0.24748743641E+03 -0.10278853016E+02  0.90736033552E+03  0.94884343726E+03  0.12508158926E+03 0.  0.
          5    1    3    3  502    0 -0.12223760152E+03 -0.65840662364E+02  0.40735026001E+03  0.43038207534E+03  0.41800000000E+01 0.  1.
         -5    1    3    3    0  502 -0.12524983489E+03  0.55561809348E+02  0.50001007550E+03  0.51846136192E+03  0.41800000000E+01 0.  1.
        -11    1    1    2    0    0  0.34056307023E+02  0.79173308877E+01  0.67753909736E+02  0.76243743750E+02  0.00000000000E+00 0. -1.
         11    1    1    2    0    0  0.21343112939E+03  0.23615221286E+01  0.12073554398E+04  0.12260773148E+04  0.00000000000E+00 0.  1.
</event>
<event>
 7    1  0.6473813E-006  0.1073719E+03  0.7561462E-02  0.1265516E+00
          1   -1    0    0  501    0  0.00000000000E+00  0.00000000000E+00  0.17018731929E+03  0.17018731929E+03  0.00000000000E+00 0. -1.
         -1   -1    0    0    0  501 -0.00000000000E+00 -0.00000000000E+00 -0.79655072895E+02  0.79655072895E+02  0.00000000000E+00 0.  1.
         23    2    1    2    0    0 -0.41959303205E+02  0.50511509679E+02  0.23180862914E+02  0.14318207537E+03  0.12510698847E+03 0.  0.
          5    1    3    3  502    0 -0.91915590316E+01 -0.40334607278E+02 -0.64512723423E+01  0.42076794276E+02  0.41800000000E+01 0.  1.
         -5    1    3    3    0  502 -0.32767744174E+02  0.90846116957E+02  0.29632135256E+02  0.10110528109E+03  0.41800000000E+01 0.  1.
        -11    1    1    2    0    0  0.28017683139E+02 -0.44437565733E+01  0.65502733219E+01  0.29114319871E+02  0.00000000000E+00 0.  1.
         11    1    1    2    0    0  0.13941620066E+02 -0.46067753106E+02  0.60801110159E+02  0.77545996949E+02  0.00000000000E+00 0. -1.
</event>
<event>
 7    1  0.6473813E-006  0.9440603E+02  0.7561462E-02  0.1292519E+00
         -2   -1    0    0    0  501 -0.00000000000E+00  0.00000000000E+00  0.52084002663E+02  0.52084002663E+02  0.00000000000E+00 0. -1.
          2   -1    0    0  501    0  0.00000000000E+00 -0.00000000000E+00 -0.54159104003E+03  0.54159104003E+03  0.00000000000E+00 0.  1.
         23    2    1    2    0    0  0.22907007648E+02  0.69394401794E+02 -0.75741334119E+02  0.16347866754E+03  0.12509280973E+03 0.  0.
          5    1    3    3  502    0  0.13699952775E+02  0.34418483913E+02  0.32388251111E+02  0.49384126507E+02  0.41800000000E+01 0. -1.
         -5    1    3    3    0  502  0.92070548726E+01  0.34975917881E+02 -0.10812958523E+03  0.11409454103E+03  0.41800000000E+01 0. -1.
        -11    1    1    2    0    0  0.11482627693E+02 -0.78671406539E+02 -0.32423843238E+03  0.33384367896E+03  0.00000000000E+00 0. -1.
         11    1    1    2    0    0 -0.34389635341E+02  0.92770047447E+01 -0.89527270859E+02  0.96352696192E+02  0.00000000000E+00 0.  1.
</event>
<event>
 7    1  0.6473813E-006  0.1428216E+03  0.7561462E-02  0.1209582E+00
         -2   -1    0    0    0  501 -0.00000000000E+00  0.00000000000E+00  0.11136870182E+04  0.11136870182E+04  0.00000000000E+00 0.  1.
          2   -1    0    0  501    0  0.00000000000E+00 -0.00000000000E+00 -0.22689268392E+02  0.22689268392E+02  0.00000000000E+00 0. -1.
         23    2    1    2    0    0 -0.94999162587E+02  0.53113533454E+02  0.73680385448E+03  0.75523073570E+03  0.12509059054E+03 0.  0.
          5    1    3    3  502    0  0.10840426780E+02  0.36826741537E+02  0.70676960141E+02  0.80538368743E+02  0.41800000000E+01 0. -1.
         -5    1    3    3    0  502 -0.10583958937E+03  0.16286791917E+02  0.66612689433E+03  0.67469236695E+03  0.41800000000E+01 0. -1.
        -11    1    1    2    0    0  0.96279332416E+02 -0.10077692196E+02  0.26435928554E+03  0.28152637813E+03  0.00000000000E+00 0. -1.
         11    1    1    2    0    0 -0.12801698290E+01 -0.43035841258E+02  0.89834609840E+02  0.99619172817E+02  0.00000000000E+00 0.  1.
</event>
<event>
 7    1  0.6473813E-006  0.7529149E+02  0.7561462E-02  0.1342971E+00
         -2   -1    0    0    0  501 -0.00000000000E+00  0.00000000000E+00  0.12732514948E+03  0.12732514948E+03  0.00000000000E+00 0.  1.
          2   -1    0    0  501    0  0.00000000000E+00 -0.00000000000E+00 -0.97154977834E+02  0.97154977834E+02  0.00000000000E+00 0. -1.
         23    2    1    2    0    0 -0.12281291176E+02 -0.34253282421E+02  0.10762937417E+02  0.12467304001E+03  0.11875777286E+03 0.  0.
          5    1    3    3  502    0 -0.72449127320E+01  0.11531486659E+02 -0.47898483747E+02  0.49972003065E+02  0.41800000000E+01 0. -1.
         -5    1    3    3    0  502 -0.50363784436E+01 -0.45784769080E+02  0.58661421165E+02  0.74701036945E+02  0.41800000000E+01 0.  1.
        -11    1    1    2    0    0  0.50271400823E+01  0.61594851044E+02 -0.55971069082E+01  0.62052602027E+02  0.00000000000E+00 0.  1.
         11    1    1    2    0    0  0.72541510934E+01 -0.27341568623E+02  0.25004341136E+02  0.37754485277E+02  0.00000000000E+00 0. -1.
</event>
<event>
 7    1  0.6473813E-006  0.1902689E+03  0.7561462E-02  0.1158219E+00
         -2   -1    0    0    0  501 -0.00000000000E+00  0.00000000000E+00  0.47548103263E+02  0.47548103263E+02  0.00000000000E+00 0.  1.
          2   -1    0    0  501    0  0.00000000000E+00 -0.00000000000E+00 -0.10013045142E+04  0.10013045142E+04  0.00000000000E+00 0. -1.
         23    2    1    2    0    0 -0.35572519264E+02 -0.16837062017E+03 -0.30963645559E+03  0.37568070542E+03  0.12508872025E+03 0.  0.
          5    1    3    3  502    0 -0.70236893710E+02 -0.61915119364E+02 -0.94360473636E+02  0.13299652112E+03  0.41800000000E+01 0.  1.
         -5    1    3    3    0  502  0.34664374446E+02 -0.10645550080E+03 -0.21527598195E+03  0.24268418431E+03  0.41800000000E+01 0.  1.
        -11    1    1    2    0    0  0.20479548801E+02  0.34958008061E+02 -0.51466148370E+02  0.65499913548E+02  0.00000000000E+00 0.  1.
         11    1    1    2    0    0  0.15092970463E+02  0.13341261211E+03 -0.59265380697E+03  0.60767199849E+03  0.00000000000E+00 0. -1.
</event>
<event>
 7    1  0.6473813E-006  0.2825743E+03  0.7561462E-02  0.1094291E+00
         -1   -1    0    0    0  501 -0.00000000000E+00  0.00000000000E+00  0.85647208583E+03  0.85647208583E+03  0.00000000000E+00 0.  1.
          1   -1    0    0  501    0  0.00000000000E+00 -0.00000000000E+00 -0.10687209768E+03  0.10687209768E+03  0.00000000000E+00 0. -1.
         23    2    1    2    0    0  0.16177319432E+03  0.22781990072E+03  0.44681442699E+03  0.54162968620E+03  0.12508841374E+03 0.  0.
          5    1    3    3  502    0  0.14074211510E+02  0.52184998240E+02  0.21465642735E+02  0.58306120510E+02  0.41800000000E+01 0.  1.
         -5    1    3    3    0  502  0.14769898281E+03  0.17563490248E+03  0.42534878425E+03  0.48332356569E+03  0.41800000000E+01 0.  1.
        -11    1    1    2    0    0 -0.61189929640E+01 -0.25079065689E+02  0.75087396451E+02  0.79400999468E+02  0.00000000000E+00 0.  1.
         11    1    1    2    0    0 -0.15565420135E+03 -0.20274083503E+03  0.22769816471E+03  0.34231349784E+03  0.00000000000E+00 0. -1.
</event>
<event>
 7    1  0.1065419E-005  0.2447399E+03  0.7561462E-02  0.1116675E+00
         -1   -1    0    0    0  501 -0.00000000000E+00  0.00000000000E+00  0.73358076158E+02  0.73358076158E+02  0.00000000000E+00 0.  1.
          1   -1    0    0  501    0  0.00000000000E+00 -0.00000000000E+00 -0.83194072665E+03  0.83194072665E+03  0.00000000000E+00 0. -1.
         23    2    1    2    0    0 -0.10136726241E+02 -0.22085640708E+03 -0.35010985875E+03  0.43255595826E+03  0.12508972004E+03 0.  0.
          5    1    3    3  502    0 -0.54483170936E+02 -0.40088192233E+02 -0.88786921557E+02  0.11169632452E+03  0.41800000000E+01 0.  1.
         -5    1    3    3    0  502  0.44346444695E+02 -0.18076821485E+03 -0.26132293720E+03  0.32085963374E+03  0.41800000000E+01 0.  1.
        -11    1    1    2    0    0  0.42894269642E+02  0.16765923419E+03 -0.32811585485E+03  0.37095761399E+03  0.00000000000E+00 0. -1.
         11    1    1    2    0    0 -0.32757543401E+02  0.53197172896E+02 -0.80356936892E+02  0.10178523056E+03  0.00000000000E+00 0.  1.
</event>
<event>
 7    1  0.6473813E-006  0.1009222E+03  0.7561462E-02  0.1278369E+00
          1   -1    0    0  501    0  0.00000000000E+00  0.00000000000E+00  0.12266743719E+03  0.12266743719E+03  0.00000000000E+00 0. -1.
         -1   -1    0    0    0  501 -0.00000000000E+00 -0.00000000000E+00 -0.11863626246E+03  0.11863626246E+03  0.00000000000E+00 0.  1.
         23    2    1    2    0    0  0.12078268454E+02 -0.47451209781E+02 -0.15167124906E+02  0.13518518987E+03  0.12508993566E+03 0.  0.
          5    1    3    3  502    0  0.36857694008E+02 -0.73894056879E+02 -0.39197354722E+02  0.91502602514E+02  0.41800000000E+01 0. -1.
         -5    1    3    3    0  502 -0.24779425554E+02  0.26442847098E+02  0.24030229816E+02  0.43682587359E+02  0.41800000000E+01 0. -1.
        -11    1    1    2    0    0  0.51092864212E+01 -0.16077985271E+02 -0.22563902441E+02  0.28173322691E+02  0.00000000000E+00 0.  1.
         11    1    1    2    0    0 -0.17187554875E+02  0.63529195052E+02  0.41762202079E+02  0.77945187080E+02  0.00000000000E+00 0. -1.
</event>
<event>
 7    1  0.6473813E-006  0.6769878E+02  0.7561462E-02  0.1368098E+00
          1   -1    0    0  501    0  0.00000000000E+00  0.00000000000E+00  0.49403460349E+03  0.49403460349E+03  0.00000000000E+00 0. -1.
         -1   -1    0    0    0  501 -0.00000000000E+00 -0.00000000000E+00 -0.98197299810E+01  0.98197299810E+01  0.00000000000E+00 0.  1.
         23    2    1    2    0    0  0.27563643794E+01  0.16991877302E+02  0.39573412619E+03  0.41205420976E+03  0.11352027005E+03 0.  0.
          5    1    3    3  502    0 -0.48681436364E+02  0.31150128996E+02  0.15585305913E+03  0.16627646022E+03  0.41800000000E+01 0. -1.
         -5    1    3    3    0  502  0.51437800744E+02 -0.14158251695E+02  0.23988106706E+03  0.24577774954E+03  0.41800000000E+01 0.  1.
        -11    1    1    2    0    0 -0.91840641137E+01 -0.53215638651E+01  0.30047601951E+02  0.31867294498E+02  0.00000000000E+00 0. -1.
         11    1    1    2    0    0  0.64276997343E+01 -0.11670313436E+02  0.58433145372E+02  0.59932829214E+02  0.00000000000E+00 0.  1.
</event>
<event>
 7    1  0.6473813E-006  0.5878304E+02  0.7561462E-02  0.1403011E+00
         -2   -1    0    0    0  501 -0.00000000000E+00  0.00000000000E+00  0.37957993993E+02  0.37957993993E+02  0.00000000000E+00 0.  1.
          2   -1    0    0  501    0  0.00000000000E+00 -0.00000000000E+00 -0.31529217290E+03  0.31529217290E+03  0.00000000000E+00 0. -1.
         23    2    1    2    0    0  0.10131596400E+02 -0.82601714852E+01 -0.15086249662E+03  0.19644453460E+03  0.12514025175E+03 0.  0.
          5    1    3    3  502    0  0.36908321310E+02 -0.42307295193E+01 -0.16244994859E+03  0.16669607510E+03  0.41800000000E+01 0. -1.
         -5    1    3    3    0  502 -0.26776724910E+02 -0.40294419660E+01  0.11587451975E+02  0.29748459502E+02  0.41800000000E+01 0. -1.
        -11    1    1    2    0    0  0.25104677759E+01 -0.20873725521E+02  0.49517411254E+01  0.21599412162E+02  0.00000000000E+00 0.  1.
         11    1    1    2    0    0 -0.12642064176E+02  0.29133897006E+02 -0.13142342341E+03  0.13520622013E+03  0.00000000000E+00 0. -1.
</event>
<event>
 7    1  0.6473813E-006  0.1393475E+03  0.7561462E-02  0.1214210E+00
         -1   -1    0    0    0  501 -0.00000000000E+00  0.00000000000E+00  0.78289241889E+02  0.78289241889E+02  0.00000000000E+00 0.  1.
          1   -1    0    0  501    0  0.00000000000E+00 -0.00000000000E+00 -0.32742047262E+03  0.32742047262E+03  0.00000000000E+00 0. -1.
         23    2    1    2    0    0 -0.48258091394E+02 -0.10669724723E+03 -0.11455287963E+03  0.20611490277E+03  0.12509134646E+03 0.  0.
          5    1    3    3  502    0  0.19896489758E+02 -0.26854053848E+02 -0.92940621675E+02  0.98855662812E+02  0.41800000000E+01 0. -1.
         -5    1    3    3    0  502 -0.68154581152E+02 -0.79843193381E+02 -0.21612257956E+02  0.10725923995E+03  0.41800000000E+01 0. -1.
        -11    1    1    2    0    0  0.38454482351E+02  0.61663372817E+01 -0.68796043702E+02  0.79054832600E+02  0.00000000000E+00 0. -1.
         11    1    1    2    0    0  0.98036090430E+01  0.10053090995E+03 -0.65782307398E+02  0.12053997914E+03  0.00000000000E+00 0.  1.
</event>
<event>
 7    1  0.6473813E-006  0.1076018E+03  0.7561462E-02  0.1265076E+00
          1   -1    0    0  501    0  0.00000000000E+00  0.00000000000E+00  0.50922651592E+02  0.50922651592E+02  0.00000000000E+00 0. -1.
         -1   -1    0    0    0  501 -0.00000000000E+00 -0.00000000000E+00 -0.32797611526E+03  0.32797611526E+03  0.00000000000E+00 0.  1.
         23    2    1    2    0    0 -0.30343912837E+02 -0.57758211413E+02 -0.17335934557E+03  0.22351328349E+03  0.12509181094E+03 0.  0.
          5    1    3    3  502    0 -0.56744912162E+02  0.18072441393E+02 -0.87057990154E+02  0.10556118720E+03  0.41800000000E+01 0.  1.
         -5    1    3    3    0  502  0.26400999324E+02 -0.75830652805E+02 -0.86301355418E+02  0.11795209628E+03  0.41800000000E+01 0.  1.
        -11    1    1    2    0    0  0.21031489434E+02  0.61550887364E+02 -0.11984601704E+03  0.13635946276E+03  0.00000000000E+00 0.  1.
         11    1    1    2    0    0  0.93124234029E+01 -0.37926759512E+01  0.16151898948E+02  0.19026020607E+02  0.00000000000E+00 0. -1.
</event>
<event>
 6    1  0.6473813E-006  0.1021858E+03  0.7561462E-02  0.1275765E+00
          3   -1    0    0  501    0  0.00000000000E+00  0.00000000000E+00  0.16126773391E+03  0.16126773391E+03  0.00000000000E+00 0. -1.
         -3   -1    0    0    0  501 -0.00000000000E+00 -0.00000000000E+00 -0.11416688429E+03  0.11416688429E+03  0.00000000000E+00 0.  1.
          5    1    1    2  502    0 -0.42344665638E+01 -0.59074591902E+02  0.25084200654E+02  0.64454849608E+02  0.41800000000E+01 0. -1.
         -5    1    1    2    0  502  0.39684829067E+02  0.34402184514E+02 -0.58572725256E+02  0.78782183908E+02  0.41800000000E+01 0.  1.
        -11    1    1    2    0    0  0.26444293177E+02  0.24864783895E+01  0.56035384538E+02  0.62011672585E+02  0.00000000000E+00 0.  1.
         11    1    1    2    0    0 -0.61894655680E+02  0.22185928999E+02  0.24553989684E+02  0.70185912096E+02  0.00000000000E+00 0. -1.
</event>
<event>
 7    1  0.6473813E-006  0.1372183E+03  0.7561462E-02  0.1217122E+00
          1   -1    0    0  501    0  0.00000000000E+00  0.00000000000E+00  0.12079785279E+03  0.12079785279E+03  0.00000000000E+00 0. -1.
         -1   -1    0    0    0  501 -0.00000000000E+00 -0.00000000000E+00 -0.15733027517E+03  0.15733027517E+03  0.00000000000E+00 0.  1.
         23    2    1    2    0    0  0.59932650490E+02  0.60131173591E+02 -0.14644202101E+02  0.15188910687E+03  0.12509263566E+03 0.  0.
          5    1    3    3  502    0  0.72949556413E+02 -0.14281445284E+02  0.17618732200E+01  0.74472639657E+02  0.41800000000E+01 0. -1.
         -5    1    3    3    0  502 -0.13016905922E+02  0.74412618875E+02 -0.16406075321E+02  0.77416467208E+02  0.41800000000E+01 0. -1.
        -11    1    1    2    0    0 -0.76345182344E+02 -0.17051012361E+02 -0.13662975695E+02  0.79410331787E+02  0.00000000000E+00 0. -1.
         11    1    1    2    0    0  0.16412531854E+02 -0.43080161230E+02 -0.82252445802E+01  0.46828689303E+02  0.00000000000E+00 0.  1.
</event>
<event>
 7    1  0.6473813E-006  0.1258435E+03  0.7561462E-02  0.1233757E+00
          2   -1    0    0  501    0  0.00000000000E+00  0.00000000000E+00  0.22981103897E+03  0.22981103897E+03  0.00000000000E+00 0. -1.
         -2   -1    0    0    0  501 -0.00000000000E+00 -0.00000000000E+00 -0.12973911223E+03  0.12973911223E+03  0.00000000000E+00 0.  1.
         23    2    1    2    0    0 -0.89364924422E+02  0.59339626940E+02 -0.30809305490E+02  0.16764552837E+03  0.12509407993E+03 0.  0.
          5    1    3    3  502    0  0.16956266387E+02  0.28787023162E+02 -0.44821555869E+02  0.56059360884E+02  0.41800000000E+01 0. -1.
         -5    1    3    3    0  502 -0.10632119081E+03  0.30552603779E+02  0.14012250379E+02  0.11158616748E+03  0.41800000000E+01 0. -1.
        -11    1    1    2    0    0  0.22106260797E+02 -0.16250428683E+02  0.10410345533E+03  0.10765822128E+03  0.00000000000E+00 0. -1.
         11    1    1    2    0    0  0.67258663625E+02 -0.43089198257E+02  0.26777776908E+02  0.84246401556E+02  0.00000000000E+00 0.  1.
</event>
<event>
 7    1  0.6473813E-006  0.8984539E+02  0.7561462E-02  0.1303227E+00
         -1   -1    0    0    0  501 -0.00000000000E+00  0.00000000000E+00  0.46331473199E+02  0.46331473199E+02  0.00000000000E+00 0.  1.
          1   -1    0    0  501    0  0.00000000000E+00 -0.00000000000E+00 -0.53350529763E+03  0.53350529763E+03  0.00000000000E+00 0. -1.
         23    2    1    2    0    0 -0.37868225057E+02 -0.58526002713E+01 -0.69446082626E+02  0.14922427669E+03  0.12639964779E+03 0.  0.
          5    1    3    3  502    0  0.49374884992E+01  0.22865618536E+02 -0.90365353249E+02  0.93437598276E+02  0.41800000000E+01 0. -1.
         -5    1    3    3    0  502 -0.42805713556E+02 -0.28718218808E+02  0.20919270623E+02  0.55786678409E+02  0.41800000000E+01 0.  1.
        -11    1    1    2    0    0 -0.21272965592E+02  0.32900507226E+02 -0.14061764849E+03  0.14597364662E+03  0.00000000000E+00 0. -1.
         11    1    1    2    0    0  0.59141190649E+02 -0.27047906955E+02 -0.27711009331E+03  0.28463884752E+03  0.00000000000E+00 0.  1.
</event>
<event>
 7    1  0.6473813E-006  0.1048395E+03  0.7561462E-02  0.1270436E+00
          1   -1    0    0  501    0  0.00000000000E+00  0.00000000000E+00  0.27389097393E+03  0.27389097393E+03  0.00000000000E+00 0. -1.
         -1   -1    0    0    0  501 -0.00000000000E+00 -0.00000000000E+00 -0.53545621580E+02  0.53545621580E+02  0.00000000000E+00 0.  1.
         23    2    1    2    0    0 -0.11054424116E+02 -0.39632908446E+02  0.79209221914E+02  0.15367073059E+03  0.12509046678E+03 0.  0.
          5    1    3    3  502    0 -0.16568935227E+02  0.42485943096E+02  0.12027382372E+02  0.47346755982E+02  0.41800000000E+01 0. -1.
         -5    1    3    3    0  502  0.55145111107E+01 -0.82118851542E+02  0.67181839542E+02  0.10632397460E+03  0.41800000000E+01 0. -1.
        -11    1    1    2    0    0  0.23812798506E+02  0.55924154636E+02  0.45525406463E+02  0.75941576742E+02  0.00000000000E+00 0.  1.
         11    1    1    2    0    0 -0.12758374389E+02 -0.16291246190E+02  0.95610723974E+02  0.97824288182E+02  0.00000000000E+00 0. -1.
</event>
<event>
 7    1  0.6473813E-006  0.9973051E+02  0.7561462E-02  0.1280864E+00
         -2   -1    0    0    0  501 -0.00000000000E+00  0.00000000000E+00  0.15535773343E+03  0.15535773343E+03  0.00000000000E+00 0. -1.
          2   -1    0    0  501    0  0.00000000000E+00 -0.00000000000E+00 -0.10886083649E+03  0.10886083649E+03  0.00000000000E+00 0.  1.
         23    2    1    2    0    0  0.10899357377E+02 -0.56704212371E+02  0.68920936758E+02  0.15404218345E+03  0.12507891536E+03 0.  0.
          5    1    3    3  502    0 -0.38461070647E+02  0.66921617687E+01 -0.10860851748E+02  0.40736586567E+02  0.41800000000E+01 0.  1.
         -5    1    3    3    0  502  0.49360428023E+02 -0.63396374140E+02  0.79781788506E+02  0.11330559689E+03  0.41800000000E+01 0.  1.
        -11    1    1    2    0    0  0.21911218668E+02  0.31494613068E+02  0.26102529264E+02  0.46404247540E+02  0.00000000000E+00 0. -1.
         11    1    1    2    0    0 -0.32810576044E+02  0.25209599303E+02 -0.48526569081E+02  0.63772138933E+02  0.00000000000E+00 0.  1.
</event>
<event>
 7    1  0.6473813E-006  0.8519172E+02  0.7561462E-02  0.1314932E+00
         -2   -1    0    0    0  501 -0.00000000000E+00  0.00000000000E+00  0.74857517527E+02  0.74857517527E+02  0.00000000000E+00 0.  1.
          2   -1    0    0  501    0  0.00000000000E+00 -0.00000000000E+00 -0.22370703777E+03  0.22370703777E+03  0.00000000000E+00 0. -1.
         23    2    1    2    0    0  0.82789786562E+01  0.32658718720E+02 -0.41516894755E+01  0.13049185224E+03  0.12599902214E+03 0.  0.
          5    1    3    3  502    0 -0.28476034512E+02  0.46707064463E+02 -0.46946157373E+02  0.72206983764E+02  0.41800000000E+01 0. -1.
         -5    1    3    3    0  502  0.36755013168E+02 -0.14048345742E+02  0.42794467898E+02  0.58284868480E+02  0.41800000000E+01 0.  1.
        -11    1    1    2    0    0  0.19174089005E+02  0.12652297435E+02 -0.13651569636E+02  0.26722493766E+02  0.00000000000E+00 0.  1.
         11    1    1    2    0    0 -0.27453067661E+02 -0.45311016155E+02 -0.13104626113E+03  0.14135020928E+03  0.00000000000E+00 0. -1.
</event>
<event>
 7    1  0.6473813E-006  0.2944315E+03  0.7561462E-02  0.1088058E+00
         -1   -1    0    0    0  501 -0.00000000000E+00  0.00000000000E+00  0.33667430324E+02  0.33667430324E+02  0.00000000000E+00 0.  1.
          1   -1    0    0  501    0  0.00000000000E+00 -0.00000000000E+00 -0.26701416621E+04  0.26701416621E+04  0.00000000000E+00 0. -1.
         23    2    1    2    0    0  0.12015764852E+03  0.24940344269E+03 -0.11164174187E+04  0.11557700474E+04  0.11303367613E+03 0.  0.
          5    1    3    3  502    0 -0.13153450040E+02  0.77641280075E+02 -0.37047136109E+03  0.37877128112E+03  0.41800000000E+01 0.  1.
         -5    1    3    3    0  502  0.13331109856E+03  0.17176216262E+03 -0.74594605763E+03  0.77699876628E+03  0.41800000000E+01 0.  1.
        -11    1    1    2    0    0  0.35241094568E+01 -0.93345741343E+02 -0.52700010122E+03  0.53521486663E+03  0.00000000000E+00 0.  1.
         11    1    1    2    0    0 -0.12368175797E+03 -0.15605770135E+03 -0.99305671187E+03  0.10128241784E+04  0.00000000000E+00 0. -1.
</event>
<event>
 7    1  0.6473813E-006  0.1335081E+03  0.7561462E-02  0.1222341E+00
          3   -1    0    0  501    0  0.00000000000E+00  0.00000000000E+00  0.59228430946E+03  0.59228430946E+03  0.00000000000E+00 0. -1.
         -3   -1    0    0    0  501 -0.00000000000E+00 -0.00000000000E+00 -0.34432373603E+02  0.34432373603E+02  0.00000000000E+00 0.  1.
         23    2    1    2    0    0 -0.53786979855E+01  0.92202904598E+02  0.28002854375E+03  0.32030246406E+03  0.12508947662E+03 0.  0.
          5    1    3    3  502    0  0.44325203937E+02  0.94608894531E+01  0.15930161689E+03  0.16567652120E+03  0.41800000000E+01 0. -1.
         -5    1    3    3    0  502 -0.49703901923E+02  0.82742015145E+02  0.12072692686E+03  0.15462594286E+03  0.41800000000E+01 0. -1.
        -11    1    1    2    0    0  0.40246303467E+02 -0.76927980800E+02  0.15301525214E+03  0.17592994788E+03  0.00000000000E+00 0.  1.
         11    1    1    2    0    0 -0.34867605481E+02 -0.15274923799E+02  0.12480813996E+03  0.13048427112E+03  0.00000000000E+00 0. -1.
</event>
<event>
 7    1  0.6473813E-006  0.1422983E+03  0.7561462E-02  0.1210269E+00
          2   -1    0    0  501    0  0.00000000000E+00  0.00000000000E+00  0.85040483241E+03  0.85040483241E+03  0.00000000000E+00 0. -1.
         -2   -1    0    0    0  501 -0.00000000000E+00 -0.00000000000E+00 -0.42016881772E+02  0.42016881772E+02  0.00000000000E+00 0.  1.
         23    2    1    2    0    0 -0.70310565164E+02 -0.71213836854E+02  0.14536686984E+03  0.21632163254E+03  0.12509410748E+03 0.  0.
          5    1    3    3  502    0  0.29795442346E+02 -0.35217504579E+02  0.16511519997E+02  0.49174624614E+02  0.41800000000E+01 0. -1.
         -5    1    3    3    0  502 -0.10010600751E+03 -0.35996332276E+02  0.12885534984E+03  0.16714700793E+03  0.41800000000E+01 0. -1.
        -11    1    1    2    0    0  0.73928722232E+02  0.14939496970E+02  0.40885545696E+03  0.41575404896E+03  0.00000000000E+00 0. -1.
         11    1    1    2    0    0 -0.36181570679E+01  0.56274339884E+02  0.25416562384E+03  0.26034603268E+03  0.00000000000E+00 0.  1.
</event>
<event>
 7    1  0.6473813E-006  0.1000717E+03  0.7561462E-02  0.1280145E+00
          1   -1    0    0  501    0  0.00000000000E+00  0.00000000000E+00  0.50586951242E+03  0.50586951242E+03  0.00000000000E+00 0. -1.
         -1   -1    0    0    0  501 -0.00000000000E+00 -0.00000000000E+00 -0.25189366389E+02  0.25189366389E+02  0.00000000000E+00 0.  1.
         23    2    1    2    0    0  0.15241936748E+02 -0.20246232070E+02  0.22320302753E+03  0.25711685419E+03  0.12508900296E+03 0.  0.
          5    1    3    3  502    0 -0.27219155217E+02  0.37918701649E+02  0.13655018481E+03  0.14436805643E+03  0.41800000000E+01 0.  1.
         -5    1    3    3    0  502  0.42461091965E+02 -0.58164933719E+02  0.86652842724E+02  0.11274879776E+03  0.41800000000E+01 0.  1.
        -11    1    1    2    0    0  0.53084318804E+01 -0.28107656160E+02  0.34291428160E+02  0.44655591241E+02  0.00000000000E+00 0.  1.
         11    1    1    2    0    0 -0.20550368628E+02  0.48353888230E+02  0.22318569033E+03  0.22928643337E+03  0.00000000000E+00 0. -1.
</event>
<event>
 7    1  0.6473813E-006  0.1120617E+03  0.7561462E-02  0.1256799E+00
         -1   -1    0    0    0  501 -0.00000000000E+00  0.00000000000E+00  0.17500516829E+03  0.17500516829E+03  0.00000000000E+00 0.  1.
          1   -1    0    0  501    0  0.00000000000E+00 -0.00000000000E+00 -0.87923491015E+02  0.87923491015E+02  0.00000000000E+00 0. -1.
         23    2    1    2    0    0  0.46727109879E+02 -0.36930771015E+02  0.62533741487E+02  0.15201061077E+03  0.12509777103E+03 0.  0.
          5    1    3    3  502    0  0.98145631529E+01  0.41494824833E+02  0.47449873202E+02  0.63930501364E+02  0.41800000000E+01 0.  1.
         -5    1    3    3    0  502  0.36912546726E+02 -0.78425595848E+02  0.15083868286E+02  0.88080109402E+02  0.41800000000E+01 0.  1.
        -11    1    1    2    0    0 -0.73297187394E+01 -0.22238238339E+02 -0.16674020227E+02  0.28745207805E+02  0.00000000000E+00 0. -1.
         11    1    1    2    0    0 -0.39397391139E+02  0.59169009355E+02  0.41221956012E+02  0.82172840732E+02  0.00000000000E+00 0.  1.
</event>
<event>
 6    1  0.6473813E-006  0.2817029E+03  0.7561462E-02  0.1094762E+00
         -2   -1    0    0    0  501 -0.00000000000E+00  0.00000000000E+00  0.34690614803E+02  0.34690614803E+02  0.00000000000E+00 0.  1.
          2   -1    0    0  501    0  0.00000000000E+00 -0.00000000000E+00 -0.25183114107E+04  0.25183114107E+04  0.00000000000E+00 0. -1.
          5    1    1    2  502    0  0.30174949465E+01 -0.88970781915E+01 -0.46642709463E+01  0.11291195666E+02  0.41800000000E+01 0. -1.
         -5    1    1    2    0  502 -0.26808971328E+03 -0.57135387960E+02 -0.13367889326E+04  0.13646093469E+04  0.41800000000E+01 0.  1.
        -11    1    1    2    0    0  0.12741764036E+03  0.60917967223E+02 -0.69471968368E+03  0.70892996318E+03  0.00000000000E+00 0. -1.
         11    1    1    2    0    0  0.13765457797E+03  0.51144989287E+01 -0.44744790869E+03  0.46817151977E+03  0.00000000000E+00 0.  1.
</event>
<event>
 7    1  0.6473813E-006  0.9106577E+02  0.7561462E-02  0.1300291E+00
          2   -1    0    0  501    0  0.00000000000E+00  0.00000000000E+00  0.17797918183E+03  0.17797918183E+03  0.00000000000E+00 0. -1.
         -2   -1    0    0    0  501 -0.00000000000E+00 -0.00000000000E+00 -0.72008738154E+02  0.72008738154E+02  0.00000000000E+00 0.  1.
         23    2    1    2    0    0  0.23340397762E+02 -0.14062784327E+02  0.64859663955E+02  0.14351592544E+03  0.12509000270E+03 0.  0.
          5    1    3    3  502    0  0.64636181451E+02  0.15606142212E+02  0.64153709104E+02  0.92490855868E+02  0.41800000000E+01 0. -1.
         -5    1    3    3    0  502 -0.41295783689E+02 -0.29668926539E+02  0.70595485051E+00  0.51025069571E+02  0.41800000000E+01 0. -1.
        -11    1    1    2    0    0 -0.53365847258E+01  0.35837584066E+02 -0.18368780761E+02  0.40622945177E+02  0.00000000000E+00 0.  1.
         11    1    1    2    0    0 -0.18003813036E+02 -0.21774799739E+02  0.59479560483E+02  0.65849049368E+02  0.00000000000E+00 0. -1.
</event>
<event>
 7    1  0.6473813E-006  0.1326428E+03  0.7561462E-02  0.1223586E+00
         -1   -1    0    0    0  501 -0.00000000000E+00  0.00000000000E+00  0.15995587192E+03  0.15995587192E+03  0.00000000000E+00 0.  1.
          1   -1    0    0  501    0  0.00000000000E+00 -0.00000000000E+00 -0.18141826967E+03  0.18141826967E+03  0.00000000000E+00 0. -1.
         23    2    1    2    0    0  0.75066878004E+02 -0.70208186167E+02  0.69571667949E+02  0.17621432153E+03  0.12508814713E+03 0.  0.
          5    1    3    3  502    0  0.78702721625E+02 -0.86016763635E+02  0.91750450058E+02  0.14842041471E+03  0.41800000000E+01 0.  1.
         -5    1    3    3    0  502 -0.36358436214E+01  0.15808577468E+02 -0.22178782109E+02  0.27793906819E+02  0.41800000000E+01 0.  1.
        -11    1    1    2    0    0 -0.74648795183E+02  0.14356027958E+02 -0.28172435094E+02  0.81069255949E+02  0.00000000000E+00 0.  1.
         11    1    1    2    0    0 -0.41808282142E+00  0.55852158209E+02 -0.62861630608E+02  0.84090564111E+02  0.00000000000E+00 0. -1.
</event>
<event>
 7    1  0.6473813E-006  0.6293156E+02  0.7561462E-02  0.1385925E+00
          1   -1    0    0  501    0  0.00000000000E+00  0.00000000000E+00  0.38334203594E+03  0.38334203594E+03  0.00000000000E+00 0. -1.
         -1   -1    0    0    0  501 -0.00000000000E+00 -0.00000000000E+00 -0.25957226358E+02  0.25957226358E+02  0.00000000000E+00 0.  1.
         23    2    1    2    0    0  0.61640932417E+01 -0.13378844544E+02  0.20408524849E+03  0.23982392124E+03  0.12509090702E+03 0.  0.
          5    1    3    3  502    0 -0.93487898981E+00  0.31292636742E+02  0.87289951258E+00  0.31596478705E+02  0.41800000000E+01 0.  1.
         -5    1    3    3    0  502  0.70989722315E+01 -0.44671481286E+02  0.20321234898E+03  0.20822744253E+03  0.41800000000E+01 0.  1.
        -11    1    1    2    0    0  0.72908187161E+01  0.28029579019E+02  0.14509620862E+03  0.14795851815E+03  0.00000000000E+00 0. -1.
         11    1    1    2    0    0 -0.13454911958E+02 -0.14650734475E+02  0.82033524751E+01  0.21516822913E+02  0.00000000000E+00 0.  1.
</event>
<event>
 7    1  0.6473813E-006  0.1144549E+03  0.7561462E-02  0.1252536E+00
         -1   -1    0    0    0  501 -0.00000000000E+00  0.00000000000E+00  0.71116679611E+02  0.71116679611E+02  0.00000000000E+00 0.  1.
          1   -1    0    0  501    0  0.00000000000E+00 -0.00000000000E+00 -0.21521686690E+03  0.21521686690E+03  0.00000000000E+00 0. -1.
         23    2    1    2    0    0  0.44968542803E+02  0.30675674738E+02 -0.45190803384E+02  0.14371576261E+03  0.12509534303E+03 0.  0.
          5    1    3    3  502    0  0.54624100183E+02 -0.38177028953E+02 -0.22132056545E+02  0.70346131289E+02  0.41800000000E+01 0.  1.
         -5    1    3    3    0  502 -0.96555573795E+01  0.68852703691E+02 -0.23058746838E+02  0.73369631317E+02  0.41800000000E+01 0.  1.
        -11    1    1    2    0    0 -0.64317020353E+02 -0.11679053089E+02 -0.37196656932E+02  0.75210841473E+02  0.00000000000E+00 0.  1.
         11    1    1    2    0    0  0.19348477550E+02 -0.18996621649E+02 -0.61712726974E+02  0.67406942433E+02  0.00000000000E+00 0. -1.
</event>
<event>
 7    1  0.6473813E-006  0.1550281E+03  0.7561462E-02  0.1194427E+00
         -1   -1    0    0    0  501 -0.00000000000E+00  0.00000000000E+00  0.80326243473E+03  0.80326243473E+03  0.00000000000E+00 0. -1.
          1   -1    0    0  501    0  0.00000000000E+00 -0.00000000000E+00 -0.34837521958E+02  0.34837521958E+02  0.00000000000E+00 0.  1.
         23    2    1    2    0    0 -0.49865516073E+02  0.11567154640E+03  0.46611503779E+03  0.49877477402E+03  0.12508625183E+03 0.  0.
          5    1    3    3  502    0 -0.67041950766E+02  0.84451449119E+01  0.20712086214E+03  0.21790472130E+03  0.41800000000E+01 0. -1.
         -5    1    3    3    0  502  0.17176434692E+02  0.10722640149E+03  0.25899417566E+03  0.28087005271E+03  0.41800000000E+01 0. -1.
        -11    1    1    2    0    0 -0.41442503999E+01 -0.42678777203E+02  0.19061366345E+03  0.19537712642E+03  0.00000000000E+00 0. -1.
         11    1    1    2    0    0  0.54009766473E+02 -0.72992769194E+02  0.11169621153E+03  0.14394805626E+03  0.00000000000E+00 0.  1.
</event>
<event>
 7    1  0.6473813E-006  0.7037612E+02  0.7561462E-02  0.1358819E+00
         -1   -1    0    0    0  501 -0.00000000000E+00  0.00000000000E+00  0.10351139976E+03  0.10351139976E+03  0.00000000000E+00 0.  1.
          1   -1    0    0  501    0  0.00000000000E+00 -0.00000000000E+00 -0.15536647414E+03  0.15536647414E+03  0.00000000000E+00 0. -1.
         23    2    1    2    0    0 -0.56034842370E+02 -0.42789709529E+01  0.11891946279E+02  0.13764068174E+03  0.12508127650E+03 0.  0.
          5    1    3    3  502    0 -0.63665055114E+02 -0.81974531330E+01  0.60378597634E+02  0.88224060963E+02  0.41800000000E+01 0. -1.
         -5    1    3    3    0  502  0.76302127441E+01  0.39184821800E+01 -0.48486651356E+02  0.49416620775E+02  0.41800000000E+01 0. -1.
        -11    1    1    2    0    0  0.30052549268E+02 -0.15887429737E+02  0.14042811332E+02  0.36779976771E+02  0.00000000000E+00 0.  1.
         11    1    1    2    0    0  0.25982293102E+02  0.20166400689E+02 -0.77789831991E+02  0.84457215398E+02  0.00000000000E+00 0. -1.
</event>
<event>
 7    1  0.6473813E-006  0.9722511E+02  0.7561462E-02  0.1286242E+00
         -1   -1    0    0    0  501 -0.00000000000E+00  0.00000000000E+00  0.63801018328E+02  0.63801018328E+02  0.00000000000E+00 0.  1.
          1   -1    0    0  501    0  0.00000000000E+00 -0.00000000000E+00 -0.31748028621E+03  0.31748028621E+03  0.00000000000E+00 0. -1.
         23    2    1    2    0    0  0.44753195588E+02  0.50783724290E+02 -0.57419149576E+02  0.15338143260E+03  0.12508824869E+03 0.  0.
          5    1    3    3  502    0  0.35055777228E+02 -0.40286979892E+01 -0.84257982338E+02  0.91444069858E+02  0.41800000000E+01 0.  1.
         -5    1    3    3    0  502  0.96974183602E+01  0.54812422280E+02  0.26838832762E+02  0.61937362739E+02  0.41800000000E+01 0.  1.
        -11    1    1    2    0    0  0.22237847963E+02 -0.81211156931E+01 -0.10548724089E+02  0.25918140019E+02  0.00000000000E+00 0.  1.
         11    1    1    2    0    0 -0.66991043552E+02 -0.42662608597E+02 -0.18571139422E+03  0.20198173192E+03  0.00000000000E+00 0. -1.
</event>
<event>
 7    1  0.6473813E-006  0.1063293E+03  0.7561462E-02  0.1267522E+00
         -1   -1    0    0    0  501 -0.00000000000E+00  0.00000000000E+00  0.81571346908E+03  0.81571346908E+03  0.00000000000E+00 0.  1.
          1   -1    0    0  501    0  0.00000000000E+00 -0.00000000000E+00 -0.14349144510E+02  0.14349144510E+02  0.00000000000E+00 0. -1.
         23    2    1    2    0    0  0.48838273098E+02 -0.11777953676E+02  0.48975755267E+03  0.50796679557E+03  0.12507560873E+03 0.  0.
          5    1    3    3  502    0  0.54321174064E+01 -0.65143792992E+02  0.21994210974E+03  0.22948905355E+03  0.41800000000E+01 0.  1.
         -5    1    3    3    0  502  0.43406155691E+02  0.53365839316E+02  0.26981544293E+03  0.27847774202E+03  0.41800000000E+01 0.  1.
        -11    1    1    2    0    0 -0.34564561803E+02 -0.22408022314E+02  0.20863709255E+03  0.21266467686E+03  0.00000000000E+00 0.  1.
         11    1    1    2    0    0 -0.14273711295E+02  0.34185975990E+02  0.10296967935E+03  0.10943114116E+03  0.00000000000E+00 0. -1.
</event>
<event>
 7    1  0.6473813E-006  0.5505172E+02  0.7561462E-02  0.1419854E+00
          2   -1    0    0  501    0  0.00000000000E+00  0.00000000000E+00  0.27611643033E+03  0.27611643033E+03  0.00000000000E+00 0. -1.
         -2   -1    0    0    0  501 -0.00000000000E+00 -0.00000000000E+00 -0.10496304933E+03  0.10496304933E+03  0.00000000000E+00 0.  1.
         23    2    1    2    0    0  0.24655475369E+02 -0.15916280763E+01 -0.52397534867E+02  0.13785330219E+03  0.12509038940E+03 0.  0.
          5    1    3    3  502    0 -0.15551519178E+02  0.80107614359E+01  0.35964079945E+02  0.40210813146E+02  0.41800000000E+01 0.  1.
         -5    1    3    3    0  502  0.40206994546E+02 -0.96023895123E+01 -0.88361614812E+02  0.97642489046E+02  0.41800000000E+01 0.  1.
        -11    1    1    2    0    0  0.12886862964E+02 -0.10775983101E+01 -0.32415410223E+01  0.13331918218E+02  0.00000000000E+00 0.  1.
         11    1    1    2    0    0 -0.37542338333E+02  0.26692263865E+01  0.22679245688E+03  0.22989425925E+03  0.00000000000E+00 0. -1.
</event>
<event>
 7    1  0.6473813E-006  0.1366874E+03  0.7561462E-02  0.1217857E+00
          2   -1    0    0  501    0  0.00000000000E+00  0.00000000000E+00  0.11769273613E+04  0.11769273613E+04  0.00000000000E+00 0. -1.
         -2   -1    0    0    0  501 -0.00000000000E+00 -0.00000000000E+00 -0.19507715898E+02  0.19507715898E+02  0.00000000000E+00 0.  1.
         23    2    1    2    0    0  0.10136350656E+03 -0.31732412016E+02  0.61946397756E+03  0.64082986687E+03  0.12508314175E+03 0.  0.
          5    1    3    3  502    0  0.23919545588E+02 -0.72296780892E+02  0.26902491662E+03  0.27962626370E+03  0.41800000000E+01 0. -1.
         -5    1    3    3    0  502  0.77443960975E+02  0.40564368876E+02  0.35043906093E+03  0.36120360317E+03  0.41800000000E+01 0. -1.
        -11    1    1    2    0    0 -0.90195054140E+02  0.18154721797E+02  0.52682200156E+03  0.53479544037E+03  0.00000000000E+00 0. -1.
         11    1    1    2    0    0 -0.11168452422E+02  0.13577690219E+02  0.11133666317E+02  0.20809769986E+02  0.00000000000E+00 0.  1.
</event>
<event>
 7    1  0.6473813E-006  0.9985790E+02  0.7561462E-02  0.1280595E+00
         -2   -1    0    0    0  501 -0.00000000000E+00  0.00000000000E+00  0.29047164146E+02  0.29047164146E+02  0.00000000000E+00 0.  1.
          2   -1    0    0  501    0  0.00000000000E+00 -0.00000000000E+00 -0.54978820589E+03  0.54978820589E+03  0.00000000000E+00 0. -1.
         23    2    1    2    0    0  0.13466856612E+02 -0.61616689672E+02 -0.32415580981E+03  0.35313175682E+03  0.12508827272E+03 0.  0.
          5    1    3    3  502    0  0.59767267617E+02 -0.24649032179E+02 -0.85944336265E+02  0.10762714528E+03  0.41800000000E+01 0. -1.
         -5    1    3    3    0  502 -0.46300411005E+02 -0.36967657493E+02 -0.23821147354E+03  0.24550461154E+03  0.41800000000E+01 0. -1.
        -11    1    1    2    0    0 -0.20090236651E+02  0.81839852843E+01  0.19123747321E+00  0.21694049774E+02  0.00000000000E+00 0.  1.
         11    1    1    2    0    0  0.66233800389E+01  0.53432704388E+02 -0.19677646941E+03  0.20400956344E+03  0.00000000000E+00 0. -1.
</event>
<event>
 7    1  0.6473813E-006  0.1302458E+03  0.7561462E-02  0.1227091E+00
          1   -1    0    0  501    0  0.00000000000E+00  0.00000000000E+00  0.52600357492E+03  0.52600357492E+03  0.00000000000E+00 0. -1.
         -1   -1    0    0    0  501 -0.00000000000E+00 -0.00000000000E+00 -0.45194222102E+02  0.45194222102E+02  0.00000000000E+00 0.  1.
         23    2    1    2    0    0 -0.40100693853E+02  0.95622916698E+02  0.20621463146E+03  0.26253449241E+03  0.12509227647E+03 0.  0.
          5    1    3    3  502    0  0.34467953629E+02  0.41678959072E+02  0.13685723656E+03  0.14721600136E+03  0.41800000000E+01 0. -1.
         -5    1    3    3    0  502 -0.74568647481E+02  0.53943957626E+02  0.69357394900E+02  0.11531849105E+03  0.41800000000E+01 0. -1.
        -11    1    1    2    0    0  0.48225833155E+02 -0.57078410105E+02  0.77445622257E+02  0.10761737913E+03  0.00000000000E+00 0. -1.
         11    1    1    2    0    0 -0.81251393019E+01 -0.38544506593E+02  0.19714909910E+03  0.20104592549E+03  0.00000000000E+00 0.  1.
</event>
<event>
 7    1  0.6473813E-006  0.9205110E+02  0.7561462E-02  0.1297959E+00
          1   -1    0    0  501    0  0.00000000000E+00  0.00000000000E+00  0.34981934082E+03  0.34981934082E+03  0.00000000000E+00 0. -1.
         -1   -1    0    0    0  501 -0.00000000000E+00 -0.00000000000E+00 -0.38949094101E+02  0.38949094101E+02  0.00000000000E+00 0.  1.
         23    2    1    2    0    0 -0.23272736345E+02 -0.15458714423E+02  0.12581322862E+03  0.17960244142E+03  0.12508987313E+03 0.  0.
          5    1    3    3  502    0  0.15525657332E+02  0.43298358962E+02  0.15599612789E+02  0.48750530700E+02  0.41800000000E+01 0. -1.
         -5    1    3    3    0  502 -0.38798393677E+02 -0.58757073384E+02  0.11021361583E+03  0.13085191072E+03  0.41800000000E+01 0. -1.
        -11    1    1    2    0    0 -0.11167811425E+02  0.28455628193E+02  0.16386203475E+03  0.16668895950E+03  0.00000000000E+00 0. -1.
         11    1    1    2    0    0  0.34440547770E+02 -0.12996913770E+02  0.21194983355E+02  0.42477034002E+02  0.00000000000E+00 0.  1.
</event>
<event>
 7    1  0.6473813E-006  0.1339702E+03  0.7561462E-02  0.1221681E+00
          1   -1    0    0  501    0  0.00000000000E+00  0.00000000000E+00  0.33400061543E+02  0.33400061543E+02  0.00000000000E+00 0. -1.
         -1   -1    0    0    0  501 -0.00000000000E+00 -0.00000000000E+00 -0.62003281982E+03  0.62003281982E+03  0.00000000000E+00 0.  1.
         23    2    1    2    0    0 -0.84971541307E+02  0.79707974386E+01 -0.40344179663E+03  0.43092290376E+03  0.12508225003E+03 0.  0.
          5    1    3    3  502    0 -0.36643517935E+01  0.55408731779E+02 -0.18024884521E+03  0.18865490620E+03  0.41800000000E+01 0. -1.
         -5    1    3    3    0  502 -0.81307189513E+02 -0.47437934340E+02 -0.22319295142E+03  0.24226799757E+03  0.41800000000E+01 0. -1.
        -11    1    1    2    0    0  0.12985458941E+02  0.32813934295E+02 -0.22736268871E+02  0.41979927942E+02  0.00000000000E+00 0.  1.
         11    1    1    2    0    0  0.71986082365E+02 -0.40784731733E+02 -0.16045469277E+03  0.18053004966E+03  0.00000000000E+00 0. -1.
</event>
<event>
 7    1  0.6473813E-006  0.1292863E+03  0.7561462E-02  0.1228519E+00
         -1   -1    0    0    0  501 -0.00000000000E+00  0.00000000000E+00  0.46919580264E+03  0.46919580264E+03  0.00000000000E+00 0.  1.
          1   -1    0    0  501    0  0.00000000000E+00 -0.00000000000E+00 -0.49263145835E+02  0.49263145835E+02  0.00000000000E+00 0. -1.
         23    2    1    2    0    0  0.86637543593E+02  0.45104174517E+02  0.15962433918E+03  0.22509470020E+03  0.12508894387E+03 0.  0.
          5    1    3    3  502    0  0.11028549977E+03  0.27958772537E+02  0.15902874143E+03  0.19558168990E+03  0.41800000000E+01 0. -1.
         -5    1    3    3    0  502 -0.23647956176E+02  0.17145401979E+02  0.59559775174E+00  0.29513010301E+02  0.41800000000E+01 0. -1.
        -11    1    1    2    0    0 -0.34526370472E+02 -0.52238387677E+02  0.21503288794E+03  0.22396442195E+03  0.00000000000E+00 0.  1.
         11    1    1    2    0    0 -0.52111173120E+02  0.71342131604E+01  0.45275429687E+02  0.69399826331E+02  0.00000000000E+00 0. -1.
</event>
<event>
 7    1  0.6473813E-006  0.3399254E+03  0.7561462E-02  0.1066828E+00
          2   -1    0    0  501    0  0.00000000000E+00  0.00000000000E+00  0.10145146050E+04  0.10145146050E+04  0.00000000000E+00 0. -1.
         -2   -1    0    0    0  501 -0.00000000000E+00 -0.00000000000E+00 -0.11582893289E+03  0.11582893289E+03  0.00000000000E+00 0.  1.
         23    2    1    2    0    0  0.31299201710E+03  0.85650774704E+02  0.43138580401E+03  0.55411197003E+03  0.12508519280E+03 0.  0.
          5    1    3    3  502    0  0.24955094326E+03  0.15639852612E+02  0.34442568632E+03  0.42563693926E+03  0.41800000000E+01 0.  1.
         -5    1    3    3    0  502  0.63441073838E+02  0.70010922092E+02  0.86960117694E+02  0.12847503077E+03  0.41800000000E+01 0.  1.
        -11    1    1    2    0    0 -0.12486455628E+03 -0.77374223022E+02  0.23583535973E+03  0.27784212190E+03  0.00000000000E+00 0. -1.
         11    1    1    2    0    0 -0.18812746081E+03 -0.82765516821E+01  0.23146450838E+03  0.29838944596E+03  0.00000000000E+00 0.  1.
</event>
<event>
 7    1  0.6473813E-006  0.1147311E+03  0.7561462E-02  0.1252051E+00
          1   -1    0    0  501    0  0.00000000000E+00  0.00000000000E+00  0.81596016536E+02  0.81596016536E+02  0.00000000000E+00 0. -1.
         -1   -1    0    0    0  501 -0.00000000000E+00 -0.00000000000E+00 -0.30456555819E+03  0.30456555819E+03  0.00000000000E+00 0.  1.
         23    2    1    2    0    0 -0.71174233892E+02 -0.39640105897E+02 -0.21477972856E+03  0.26156369187E+03  0.12509245997E+03 0.  0.
          5    1    3    3  502    0 -0.55537314573E+02 -0.75694185976E+02 -0.87922080879E+02  0.12869253205E+03  0.41800000000E+01 0.  1.
         -5    1    3    3    0  502 -0.15636919319E+02  0.36054080079E+02 -0.12685764768E+03  0.13287115982E+03  0.41800000000E+01 0.  1.
        -11    1    1    2    0    0  0.25394379570E+02 -0.11022242639E+02 -0.40499839119E+02  0.49057122981E+02  0.00000000000E+00 0.  1.
         11    1    1    2    0    0  0.45779854323E+02  0.50662348535E+02  0.32310026022E+02  0.75540759875E+02  0.00000000000E+00 0. -1.
</event>
<event>
 6    1  0.6473813E-006  0.1187017E+03  0.7561462E-02  0.1245254E+00
         -1   -1    0    0    0  501 -0.00000000000E+00  0.00000000000E+00  0.78099191080E+02  0.78099191080E+02  0.00000000000E+00 0.  1.
          1   -1    0    0  501    0  0.00000000000E+00 -0.00000000000E+00 -0.26035179882E+03  0.26035179882E+03  0.00000000000E+00 0. -1.
          5    1    1    2  502    0 -0.55216681805E+02  0.75339143322E+02 -0.42029367069E+02  0.10251248003E+03  0.41800000000E+01 0. -1.
         -5    1    1    2    0  502  0.48535652744E+02 -0.95900270898E+01  0.68869492222E+01  0.50125648888E+02  0.41800000000E+01 0.  1.
        -11    1    1    2    0    0  0.14482991905E+02 -0.78216014404E+02 -0.65944757884E+02  0.10332576182E+03  0.00000000000E+00 0. -1.
         11    1    1    2    0    0 -0.78019628439E+01  0.12466898172E+02 -0.81165432004E+02  0.82487099153E+02  0.00000000000E+00 0.  1.
</event>
<event>
 7    1  0.6473813E-006  0.1580950E+03  0.7561462E-02  0.1190864E+00
          1   -1    0    0  501    0  0.00000000000E+00  0.00000000000E+00  0.84826780497E+03  0.84826780497E+03  0.00000000000E+00 0. -1.
         -1   -1    0    0    0  501 -0.00000000000E+00 -0.00000000000E+00 -0.39325966450E+02  0.39325966450E+02  0.00000000000E+00 0.  1.
         23    2    1    2    0    0 -0.95456805787E+02 -0.91026771811E+02  0.47640256792E+03  0.50990412198E+03  0.12507970233E+03 0.  0.
          5    1    3    3  502    0 -0.98786534547E+02 -0.32897917407E+02  0.40227063824E+03  0.41554806120E+03  0.41800000000E+01 0. -1.
         -5    1    3    3    0  502  0.33297287597E+01 -0.58128854403E+02  0.74131929682E+02  0.94356060782E+02  0.41800000000E+01 0. -1.
        -11    1    1    2    0    0  0.84438458504E+02  0.27009338557E+02  0.88937307527E+02  0.12557548453E+03  0.00000000000E+00 0.  1.
         11    1    1    2    0    0  0.11018347283E+02  0.64017433254E+02  0.24360196307E+03  0.25211416491E+03  0.00000000000E+00 0. -1.
</event>
<event>
 6    1  0.6473813E-006  0.1111446E+03  0.7561462E-02  0.1258465E+00
         -1   -1    0    0    0  501 -0.00000000000E+00  0.00000000000E+00  0.46436811705E+02  0.46436811705E+02  0.00000000000E+00 0.  1.
          1   -1    0    0  501    0  0.00000000000E+00 -0.00000000000E+00 -0.64231427032E+03  0.64231427032E+03  0.00000000000E+00 0. -1.
          5    1    1    2  502    0 -0.17346636638E+02  0.75752818814E+02 -0.29228104470E+03  0.30246500103E+03  0.41800000000E+01 0. -1.
         -5    1    1    2    0  502  0.21607479884E+02  0.31169572924E+01  0.26267813487E+02  0.34410304199E+02  0.41800000000E+01 0.  1.
        -11    1    1    2    0    0  0.11160647409E+02 -0.97451236878E+02 -0.25506575126E+03  0.27327612608E+03  0.00000000000E+00 0. -1.
         11    1    1    2    0    0 -0.15421490656E+02  0.18581460771E+02 -0.74798476142E+02  0.78599650709E+02  0.00000000000E+00 0.  1.
</event>
<event>
 7    1  0.6473813E-006  0.5524721E+02  0.7561462E-02  0.1418933E+00
          3   -1    0    0  501    0  0.00000000000E+00  0.00000000000E+00  0.37485641039E+02  0.37485641039E+02  0.00000000000E+00 0. -1.
         -3   -1    0    0    0  501 -0.00000000000E+00 -0.00000000000E+00 -0.36260892920E+03  0.36260892920E+03  0.00000000000E+00 0.  1.
         23    2    1    2    0    0 -0.93765030220E+00 -0.23936802745E+02 -0.24884191037E+03  0.27954098277E+03  0.12508802891E+03 0.  0.
          5    1    3    3  502    0  0.12187150744E+02 -0.38434720965E+01  0.11723946413E+02  0.17838784726E+02  0.41800000000E+01 0. -1.
         -5    1    3    3    0  502 -0.13124801046E+02 -0.20093330649E+02 -0.26056585679E+03  0.26170219805E+03  0.41800000000E+01 0. -1.
        -11    1    1    2    0    0  0.77830571150E+01 -0.23502298510E+02 -0.67405385434E+02  0.71808216791E+02  0.00000000000E+00 0.  1.
         11    1    1    2    0    0 -0.68454068128E+01  0.47439101255E+02 -0.88759923557E+01  0.48745370679E+02  0.00000000000E+00 0. -1.
</event>
<event>
 7    1  0.6473813E-006  0.1080819E+03  0.7561462E-02  0.1264164E+00
          1   -1    0    0  501    0  0.00000000000E+00  0.00000000000E+00  0.97409441394E+02  0.97409441394E+02  0.00000000000E+00 0. -1.
         -1   -1    0    0    0  501 -0.00000000000E+00 -0.00000000000E+00 -0.15563954184E+03  0.15563954184E+03  0.00000000000E+00 0.  1.
         23    2    1    2    0    0 -0.70033828493E+02 -0.57402616680E+01 -0.28225237282E+02  0.13360841808E+03  0.11007659890E+03 0.  0.
          5    1    3    3  502    0 -0.63581311529E+02 -0.33444217976E+02 -0.57845508047E+02  0.92329161661E+02  0.41800000000E+01 0. -1.
         -5    1    3    3    0  502 -0.64525169637E+01  0.27703956308E+02  0.29620270765E+02  0.41279256418E+02  0.41800000000E+01 0.  1.
        -11    1    1    2    0    0  0.64615935705E+02 -0.35588426435E+02 -0.16144663556E+02  0.75514272852E+02  0.00000000000E+00 0.  1.
         11    1    1    2    0    0  0.54178927885E+01  0.41328688103E+02 -0.13860199613E+02  0.43926292307E+02  0.00000000000E+00 0. -1.
</event>
<event>
 7    1  0.6473813E-006  0.8715452E+02  0.7561462E-02  0.1309892E+00
         -2   -1    0    0    0  501 -0.00000000000E+00  0.00000000000E+00  0.13174578966E+03  0.13174578966E+03  0.00000000000E+00 0.  1.
          2   -1    0    0  501    0  0.00000000000E+00 -0.00000000000E+00 -0.12392676340E+03  0.12392676340E+03  0.00000000000E+00 0. -1.
         23    2    1    2    0    0  0.61834483280E+02 -0.19033553460E+02  0.50451983253E+01  0.14092281655E+03  0.12509199303E+03 0.  0.
          5    1    3    3  502    0  0.63742919821E+02 -0.50914560604E+01 -0.51682563054E+02  0.82326438499E+02  0.41800000000E+01 0. -1.
         -5    1    3    3    0  502 -0.19084365409E+01 -0.13942097399E+02  0.56727761379E+02  0.58596378054E+02  0.41800000000E+01 0. -1.
        -11    1    1    2    0    0 -0.13790618203E+02 -0.26169443065E+02  0.31133835314E+02  0.42945740209E+02  0.00000000000E+00 0.  1.
         11    1    1    2    0    0 -0.48043865077E+02  0.45202996525E+02 -0.28360007383E+02  0.71803996303E+02  0.00000000000E+00 0. -1.
</event>
<event>
 7    1  0.6473813E-006  0.1039951E+03  0.7561462E-02  0.1272112E+00
          1   -1    0    0  501    0  0.00000000000E+00  0.00000000000E+00  0.27047631940E+02  0.27047631940E+02  0.00000000000E+00 0. -1.
         -1   -1    0    0    0  501 -0.00000000000E+00 -0.00000000000E+00 -0.55015206365E+03  0.55015206365E+03  0.00000000000E+00 0.  1.
         23    2    1    2    0    0  0.22723095437E+02 -0.15832107847E+02 -0.40581525862E+03  0.42556029227E+03  0.12509413863E+03 0.  0.
          5    1    3    3  502    0 -0.39468159680E+02 -0.32231270598E+02 -0.92551187120E+02  0.10573450274E+03  0.41800000000E+01 0. -1.
         -5    1    3    3    0  502  0.62191255117E+02  0.16399162751E+02 -0.31326407150E+03  0.31982578953E+03  0.41800000000E+01 0. -1.
        -11    1    1    2    0    0 -0.39147706972E+02 -0.26318440688E+02 -0.80619918703E+02  0.93406501771E+02  0.00000000000E+00 0.  1.
         11    1    1    2    0    0  0.16424611535E+02  0.42150548536E+02 -0.36669254387E+02  0.58232901553E+02  0.00000000000E+00 0. -1.
</event>
<event>
 6    1  0.6473813E-006  0.2559924E+03  0.7561462E-02  0.1109575E+00
         -1   -1    0    0    0  501 -0.00000000000E+00  0.00000000000E+00  0.50010025449E+03  0.50010025449E+03  0.00000000000E+00 0.  1.
          1   -1    0    0  501    0  0.00000000000E+00 -0.00000000000E+00 -0.19491433334E+03  0.19491433334E+03  0.00000000000E+00 0. -1.
          5    1    1    2  502    0 -0.15073319658E+03 -0.87250628939E+02  0.25495562132E+02  0.17607005677E+03  0.41800000000E+01 0. -1.
         -5    1    1    2    0  502  0.20129370829E+03  0.12114881876E+03  0.32456000651E+03  0.40069048343E+03  0.41800000000E+01 0.  1.
        -11    1    1    2    0    0 -0.69540581260E+02 -0.70250890883E+01 -0.48618685316E+02  0.85141182048E+02  0.00000000000E+00 0. -1.
         11    1    1    2    0    0  0.18980069549E+02 -0.26873100733E+02  0.37490378215E+01  0.33112865592E+02  0.00000000000E+00 0.  1.
</event>
<event>
 7    1  0.6473813E-006  0.9114833E+02  0.7561462E-02  0.1300094E+00
          1   -1    0    0  501    0  0.00000000000E+00  0.00000000000E+00  0.10304785161E+03  0.10304785161E+03  0.00000000000E+00 0. -1.
         -1   -1    0    0    0  501 -0.00000000000E+00 -0.00000000000E+00 -0.17542612730E+03  0.17542612730E+03  0.00000000000E+00 0.  1.
         23    2    1    2    0    0 -0.23332224098E+02  0.26571089763E+02 -0.11654349032E+03  0.17169318594E+03  0.12101962432E+03 0.  0.
          5    1    3    3  502    0  0.41187054440E+01 -0.45173827096E+02 -0.63898706730E+02  0.78473916118E+02  0.41800000000E+01 0. -1.
         -5    1    3    3    0  502 -0.27450929542E+02  0.71744916859E+02 -0.52644783585E+02  0.93219269825E+02  0.41800000000E+01 0.  1.
        -11    1    1    2    0    0 -0.15088856506E+02 -0.60715243997E+01  0.58668573742E+02  0.60881348081E+02  0.00000000000E+00 0. -1.
         11    1    1    2    0    0  0.38421080605E+02 -0.20499565363E+02 -0.14503359120E+02  0.45899444884E+02  0.00000000000E+00 0.  1.
</event>
<event>
 7    1  0.6473813E-006  0.1151098E+03  0.7561462E-02  0.1251390E+00
          1   -1    0    0  501    0  0.00000000000E+00  0.00000000000E+00  0.17564464656E+03  0.17564464656E+03  0.00000000000E+00 0. -1.
         -1   -1    0    0    0  501 -0.00000000000E+00 -0.00000000000E+00 -0.16630076461E+03  0.16630076461E+03  0.00000000000E+00 0.  1.
         23    2    1    2    0    0  0.10031598585E+03 -0.20894386212E+02 -0.77933675654E+02  0.17950164966E+03  0.12508921631E+03 0.  0.
          5    1    3    3  502    0  0.18763422720E+02 -0.18845973858E+02  0.32461296909E+02  0.42171613199E+02  0.41800000000E+01 0. -1.
         -5    1    3    3    0  502  0.81552563132E+02 -0.20484123537E+01 -0.11039497256E+03  0.13733003646E+03  0.41800000000E+01 0. -1.
        -11    1    1    2    0    0 -0.67019392264E+02  0.44808920719E+02  0.19036872204E+02  0.82836228902E+02  0.00000000000E+00 0. -1.
         11    1    1    2    0    0 -0.33296593589E+02 -0.23914534508E+02  0.68240685401E+02  0.79607532617E+02  0.00000000000E+00 0.  1.
</event>
<event>
 7    1  0.6473813E-006  0.1098090E+03  0.7561462E-02  0.1260924E+00
          1   -1    0    0  501    0  0.00000000000E+00  0.00000000000E+00  0.18975279222E+03  0.18975279222E+03  0.00000000000E+00 0. -1.
         -1   -1    0    0    0  501 -0.00000000000E+00 -0.00000000000E+00 -0.18078813836E+03  0.18078813836E+03  0.00000000000E+00 0.  1.
         23    2    1    2    0    0 -0.62905327580E+02 -0.34777572824E+02 -0.12666806128E+03  0.19199071307E+03  0.12509626832E+03 0.  0.
          5    1    3    3  502    0 -0.64927045265E+02  0.16793244556E+02 -0.12290625732E+03  0.14007481843E+03  0.41800000000E+01 0.  1.
         -5    1    3    3    0  502  0.20217176855E+01 -0.51570817379E+02 -0.37618039578E+01  0.51915894643E+02  0.41800000000E+01 0.  1.
        -11    1    1    2    0    0  0.33477103462E+02  0.55386515285E+02  0.12552823768E+03  0.14122932056E+03  0.00000000000E+00 0. -1.
         11    1    1    2    0    0  0.29428224118E+02 -0.20608942462E+02  0.10104477468E+02  0.37320896948E+02  0.00000000000E+00 0.  1.
</event>
<event>
 7    1  0.6473813E-006  0.1697749E+03  0.7561462E-02  0.1178083E+00
          1   -1    0    0  501    0  0.00000000000E+00  0.00000000000E+00  0.11008251952E+04  0.11008251952E+04  0.00000000000E+00 0. -1.
         -1   -1    0    0    0  501 -0.00000000000E+00 -0.00000000000E+00 -0.33316259859E+02  0.33316259859E+02  0.00000000000E+00 0.  1.
         23    2    1    2    0    0  0.79708964703E+02 -0.13400682808E+03  0.62015725683E+03  0.65157886650E+03  0.12509455241E+03 0.  0.
          5    1    3    3  502    0  0.17411111840E+02 -0.65116912155E+02  0.47100052166E+03  0.47581753107E+03  0.41800000000E+01 0.  1.
         -5    1    3    3    0  502  0.62297852863E+02 -0.68889915920E+02  0.14915673517E+03  0.17576133543E+03  0.41800000000E+01 0.  1.
        -11    1    1    2    0    0 -0.18824563523E+02  0.11311696816E+03  0.31878360602E+03  0.33878134563E+03  0.00000000000E+00 0.  1.
         11    1    1    2    0    0 -0.60884401180E+02  0.20889859917E+02  0.12856807244E+03  0.14378124289E+03  0.00000000000E+00 0. -1.
</event>
<event>
 7    1  0.6473813E-006  0.8532574E+02  0.7561462E-02  0.1314583E+00
          1   -1    0    0  501    0  0.00000000000E+00  0.00000000000E+00  0.58864199746E+02  0.58864199746E+02  0.00000000000E+00 0. -1.
         -1   -1    0    0    0  501 -0.00000000000E+00 -0.00000000000E+00 -0.32892892962E+03  0.32892892962E+03  0.00000000000E+00 0.  1.
         23    2    1    2    0    0  0.53977095578E+02 -0.51386883690E+01 -0.24221719947E+03  0.27795109592E+03  0.12509079517E+03 0.  0.
          5    1    3    3  502    0 -0.48076414779E+01  0.80906470363E+01 -0.20854569792E+03  0.20879979049E+03  0.41800000000E+01 0.  1.
         -5    1    3    3    0  502  0.58784737056E+02 -0.13229335405E+02 -0.33671501552E+02  0.69151305430E+02  0.41800000000E+01 0.  1.
        -11    1    1    2    0    0 -0.64960254297E+02  0.30910374488E+02 -0.36301642349E+02  0.80579743898E+02  0.00000000000E+00 0.  1.
         11    1    1    2    0    0  0.10983158720E+02 -0.25771686119E+02  0.84541119489E+01  0.29262289550E+02  0.00000000000E+00 0. -1.
</event>
<event>
 7    1  0.6473813E-006  0.1114491E+03  0.7561462E-02  0.1257910E+00
         -2   -1    0    0    0  501 -0.00000000000E+00  0.00000000000E+00  0.44619774383E+02  0.44619774383E+02  0.00000000000E+00 0.  1.
          2   -1    0    0  501    0  0.00000000000E+00 -0.00000000000E+00 -0.33859361480E+03  0.33859361480E+03  0.00000000000E+00 0. -1.
         23    2    1    2    0    0 -0.13660355200E+02 -0.49311201969E+02 -0.12537688818E+03  0.18432601051E+03  0.12505404479E+03 0.  0.
          5    1    3    3  502    0 -0.30114614724E+02 -0.80649139026E+02 -0.12079508332E+03  0.14839170529E+03  0.41800000000E+01 0.  1.
         -5    1    3    3    0  502  0.16454259524E+02  0.31337937058E+02 -0.45818048561E+01  0.35934305214E+02  0.41800000000E+01 0.  1.
        -11    1    1    2    0    0  0.50728270820E+02  0.23558158043E+02 -0.12094807887E+03  0.13325457610E+03  0.00000000000E+00 0.  1.
         11    1    1    2    0    0 -0.37067915620E+02  0.25753043926E+02 -0.47648873376E+02  0.65632802575E+02  0.00000000000E+00 0. -1.
</event>
<event>
 7    1  0.6473813E-006  0.1224034E+03  0.7561462E-02  0.1239184E+00
         -1   -1    0    0    0  501 -0.00000000000E+00  0.00000000000E+00  0.11223393210E+03  0.11223393210E+03  0.00000000000E+00 0.  1.
          1   -1    0    0  501    0  0.00000000000E+00 -0.00000000000E+00 -0.15557005999E+03  0.15557005999E+03  0.00000000000E+00 0. -1.
         23    2    1    2    0    0  0.29226133535E+02 -0.69581334328E+02 -0.24944274855E+02  0.14820807906E+03  0.12509072261E+03 0.  0.
          5    1    3    3  502    0  0.37654882779E+02  0.17470358134E+02 -0.41782206711E+02  0.59045142121E+02  0.41800000000E+01 0.  1.
         -5    1    3    3    0  502 -0.84287492439E+01 -0.87051692462E+02  0.16837931856E+02  0.89162936939E+02  0.41800000000E+01 0.  1.
        -11    1    1    2    0    0  0.23221086511E+02 -0.55749014804E+01  0.62668854038E+01  0.24689516762E+02  0.00000000000E+00 0.  1.
         11    1    1    2    0    0 -0.52447220046E+02  0.75156235808E+02 -0.24658738440E+02  0.94906396270E+02  0.00000000000E+00 0. -1.
</event>
<event>
 7    1  0.6473813E-006  0.8683208E+02  0.7561462E-02  0.1310710E+00
          1   -1    0    0  501    0  0.00000000000E+00  0.00000000000E+00  0.65556971150E+02  0.65556971150E+02  0.00000000000E+00 0. -1.
         -1   -1    0    0    0  501 -0.00000000000E+00 -0.00000000000E+00 -0.21185675343E+03  0.21185675343E+03  0.00000000000E+00 0.  1.
         23    2    1    2    0    0  0.15848793400E+02 -0.41327915987E+02 -0.84129160946E+02  0.15711176056E+03  0.12508880322E+03 0.  0.
          5    1    3    3  502    0 -0.95787649647E+01 -0.46536965709E+02 -0.11020477093E+03  0.12008332878E+03  0.41800000000E+01 0. -1.
         -5    1    3    3    0  502  0.25427558365E+02  0.52090497228E+01  0.26075609985E+02  0.37028431773E+02  0.41800000000E+01 0. -1.
        -11    1    1    2    0    0 -0.51208330956E+02  0.94555578472E+01 -0.17269129616E+02  0.54862770357E+02  0.00000000000E+00 0. -1.
         11    1    1    2    0    0  0.35359537556E+02  0.31872358139E+02 -0.44901491721E+02  0.65439193671E+02  0.00000000000E+00 0.  1.
</event>
<event>
 7    1  0.6473813E-006  0.1009748E+03  0.7561462E-02  0.1278259E+00
         -1   -1    0    0    0  501 -0.00000000000E+00  0.00000000000E+00  0.19583560474E+03  0.19583560474E+03  0.00000000000E+00 0.  1.
          1   -1    0    0  501    0  0.00000000000E+00 -0.00000000000E+00 -0.11705269240E+03  0.11705269240E+03  0.00000000000E+00 0. -1.
         23    2    1    2    0    0 -0.23554816479E+02  0.85464015712E+02  0.75907092140E+02  0.17107813187E+03  0.12508762211E+03 0.  0.
          5    1    3    3  502    0 -0.20528308449E+02  0.75924979035E+02  0.11000642179E+03  0.13529559906E+03  0.41800000000E+01 0. -1.
         -5    1    3    3    0  502 -0.30265080301E+01  0.95390366764E+01 -0.34099329651E+02  0.35782532809E+02  0.41800000000E+01 0. -1.
        -11    1    1    2    0    0 -0.24675424718E+02 -0.28079425810E+02 -0.40572682188E+02  0.55167683283E+02  0.00000000000E+00 0. -1.
         11    1    1    2    0    0  0.48230241198E+02 -0.57384589902E+02  0.43448502392E+02  0.86642481984E+02  0.00000000000E+00 0.  1.
</event>
<event>
 7    1  0.6473813E-006  0.1379124E+03  0.7561462E-02  0.1216166E+00
         -3   -1    0    0    0  501 -0.00000000000E+00  0.00000000000E+00  0.23821695509E+03  0.23821695509E+03  0.00000000000E+00 0.  1.
          3   -1    0    0  501    0  0.00000000000E+00 -0.00000000000E+00 -0.87318381180E+02  0.87318381180E+02  0.00000000000E+00 0. -1.
         23    2    1    2    0    0 -0.18305474739E+02 -0.93520468213E+02  0.10723413169E+03  0.19033594704E+03  0.12508974921E+03 0.  0.
          5    1    3    3  502    0  0.48028587267E+02 -0.29287779258E+02  0.71886537593E+02  0.91376506257E+02  0.41800000000E+01 0.  1.
         -5    1    3    3    0  502 -0.66334062005E+02 -0.64232688955E+02  0.35347594094E+02  0.98959440787E+02  0.41800000000E+01 0.  1.
        -11    1    1    2    0    0  0.40729892395E+02  0.96135968050E+02  0.29303005010E+02  0.10844221775E+03  0.00000000000E+00 0.  1.
         11    1    1    2    0    0 -0.22424417657E+02 -0.26154998374E+01  0.14361437211E+02  0.26757171477E+02  0.00000000000E+00 0. -1.
</event>
<event>
 7    1  0.8165694E-006  0.1781564E+03  0.7561462E-02  0.1169599E+00
          2   -1    0    0  501    0  0.00000000000E+00  0.00000000000E+00  0.74423616594E+03  0.74423616594E+03  0.00000000000E+00 0. -1.
         -2   -1    0    0    0  501 -0.00000000000E+00 -0.00000000000E+00 -0.72729571549E+02  0.72729571549E+02  0.00000000000E+00 0.  1.
         23    2    1    2    0    0 -0.95017709500E+02 -0.13316740806E+03  0.12932991111E+03  0.24317798331E+03  0.12508949585E+03 0.  0.
          5    1    3    3  502    0 -0.55750401901E+02 -0.11451722282E+03  0.24710040077E+02  0.12980893696E+03  0.41800000000E+01 0. -1.
         -5    1    3    3    0  502 -0.39267307599E+02 -0.18650185243E+02  0.10461987104E+03  0.11336904636E+03  0.41800000000E+01 0. -1.
        -11    1    1    2    0    0  0.10458396493E+02  0.89364812961E+02  0.21591394772E+03  0.23391083915E+03  0.00000000000E+00 0.  1.
         11    1    1    2    0    0  0.84559313007E+02  0.43802595097E+02  0.32626273556E+03  0.33987691502E+03  0.00000000000E+00 0. -1.
</event>
<event>
 7    1  0.6473813E-006  0.5338626E+02  0.7561462E-02  0.1427888E+00
          1   -1    0    0  501    0  0.00000000000E+00  0.00000000000E+00  0.12164505987E+03  0.12164505987E+03  0.00000000000E+00 0. -1.
         -1   -1    0    0    0  501 -0.00000000000E+00 -0.00000000000E+00 -0.10266934282E+03  0.10266934282E+03  0.00000000000E+00 0.  1.
         23    2    1    2    0    0 -0.83731456120E+01  0.44446969953E+01 -0.11148718928E+02  0.12594350772E+03  0.12509040053E+03 0.  0.
          5    1    3    3  502    0 -0.16872992887E+02  0.52203106988E+01 -0.66935701720E+02  0.69352794446E+02  0.41800000000E+01 0. -1.
         -5    1    3    3    0  502  0.84998472745E+01 -0.77561370345E+00  0.55786982792E+02  0.56590713278E+02  0.41800000000E+01 0. -1.
        -11    1    1    2    0    0 -0.29923468775E+02 -0.21850654673E+02  0.40654958104E+02  0.55006278838E+02  0.00000000000E+00 0. -1.
         11    1    1    2    0    0  0.38296614387E+02  0.17405957678E+02 -0.10530522126E+02  0.43364616134E+02  0.00000000000E+00 0.  1.
</event>
<event>
 7    1  0.6473813E-006  0.1153497E+03  0.7561462E-02  0.1250972E+00
          1   -1    0    0  501    0  0.00000000000E+00  0.00000000000E+00  0.10281391882E+04  0.10281391882E+04  0.00000000000E+00 0. -1.
         -1   -1    0    0    0  501 -0.00000000000E+00 -0.00000000000E+00 -0.12996389822E+02  0.12996389822E+02  0.00000000000E+00 0.  1.
         23    2    1    2    0    0  0.38895516636E+02 -0.71122247340E+01  0.60197964565E+03  0.61610841178E+03  0.12508651538E+03 0.  0.
          5    1    3    3  502    0 -0.29935947198E+02  0.38142651846E+02  0.23061353882E+03  0.23569280751E+03  0.41800000000E+01 0.  1.
         -5    1    3    3    0  502  0.68831463834E+02 -0.45254876580E+02  0.37136610683E+03  0.38041560427E+03  0.41800000000E+01 0.  1.
        -11    1    1    2    0    0 -0.95601303990E+01  0.48158804750E+02  0.21621279753E+03  0.22171747875E+03  0.00000000000E+00 0. -1.
         11    1    1    2    0    0 -0.29335386237E+02 -0.41046580016E+02  0.19695035521E+03  0.20330968750E+03  0.00000000000E+00 0.  1.
</event>
<event>
 7    1  0.6473813E-006  0.1922983E+03  0.7561462E-02  0.1156405E+00
          1   -1    0    0  501    0  0.00000000000E+00  0.00000000000E+00  0.13134567936E+03  0.13134567936E+03  0.00000000000E+00 0. -1.
         -1   -1    0    0    0  501 -0.00000000000E+00 -0.00000000000E+00 -0.32309314410E+03  0.32309314410E+03  0.00000000000E+00 0.  1.
         23    2    1    2    0    0  0.17212173747E+03  0.21115819214E+02 -0.12315301451E+03  0.24675334553E+03  0.12509507669E+03 0.  0.
          5    1    3    3  502    0  0.18894684381E+03  0.26959669577E+02 -0.12526891592E+03  0.22833639059E+03  0.41800000000E+01 0. -1.
         -5    1    3    3    0  502 -0.16825106338E+02 -0.58438503637E+01  0.21159014117E+01  0.18416954937E+02  0.41800000000E+01 0. -1.
        -11    1    1    2    0    0 -0.88037821742E+01  0.48103388755E+01  0.18309262797E+02  0.20877620670E+02  0.00000000000E+00 0. -1.
         11    1    1    2    0    0 -0.16331795530E+03 -0.25926158089E+02 -0.86903713027E+02  0.18680785726E+03  0.00000000000E+00 0.  1.
</event>
<event>
 7    1  0.6473813E-006  0.7497197E+02  0.7561462E-02  0.1343958E+00
         -3   -1    0    0    0  501 -0.00000000000E+00  0.00000000000E+00  0.15450763833E+03  0.15450763833E+03  0.00000000000E+00 0.  1.
          3   -1    0    0  501    0  0.00000000000E+00 -0.00000000000E+00 -0.98461672994E+02  0.98461672994E+02  0.00000000000E+00 0. -1.
         23    2    1    2    0    0  0.39790020688E+02 -0.38386366446E+02  0.48973120509E+02  0.14526687418E+03  0.12508932539E+03 0.  0.
          5    1    3    3  502    0 -0.21772215968E+02 -0.19881026278E+02 -0.30726216257E+02  0.42788519015E+02  0.41800000000E+01 0.  1.
         -5    1    3    3    0  502  0.61562236656E+02 -0.18505340168E+02  0.79699336766E+02  0.10247835517E+03  0.41800000000E+01 0.  1.
        -11    1    1    2    0    0 -0.25106045046E+02  0.28816469382E+02  0.49068126816E+02  0.62196330075E+02  0.00000000000E+00 0.  1.
         11    1    1    2    0    0 -0.14683975642E+02  0.95698970646E+01 -0.41995281992E+02  0.45506107064E+02  0.00000000000E+00 0. -1.
</event>
<event>
 7    1  0.6473813E-006  0.1024330E+03  0.7561462E-02  0.1275261E+00
          1   -1    0    0  501    0  0.00000000000E+00  0.00000000000E+00  0.20941851563E+03  0.20941851563E+03  0.00000000000E+00 0. -1.
         -1   -1    0    0    0  501 -0.00000000000E+00 -0.00000000000E+00 -0.94082442766E+02  0.94082442766E+02  0.00000000000E+00 0.  1.
         23    2    1    2    0    0 -0.34690203600E+02  0.81834803239E+02  0.53160048949E+02  0.16239988971E+03  0.12508952045E+03 0.  0.
          5    1    3    3  502    0 -0.59942680689E+01 -0.13661799649E+02 -0.29164841377E+02  0.33024784509E+02  0.41800000000E+01 0.  1.
         -5    1    3    3    0  502 -0.28695935531E+02  0.95496602888E+02  0.82324890326E+02  0.12937510520E+03  0.41800000000E+01 0.  1.
        -11    1    1    2    0    0  0.33105581137E+01 -0.19536382445E+02 -0.23422492959E+02  0.30679687261E+02  0.00000000000E+00 0.  1.
         11    1    1    2    0    0  0.31379645486E+02 -0.62298420794E+02  0.85598516876E+02  0.11042138142E+03  0.00000000000E+00 0. -1.
</event>
<event>
 7    1  0.6473813E-006  0.1198659E+03  0.7561462E-02  0.1243318E+00
         -2   -1    0    0    0  501 -0.00000000000E+00  0.00000000000E+00  0.30480084320E+02  0.30480084320E+02  0.00000000000E+00 0.  1.
          2   -1    0    0  501    0  0.00000000000E+00 -0.00000000000E+00 -0.59380324075E+03  0.59380324075E+03  0.00000000000E+00 0. -1.
         23    2    1    2    0    0  0.33505807507E+02  0.67869332482E+02 -0.25553602564E+03  0.29440544676E+03  0.12508805399E+03 0.  0.
          5    1    3    3  502    0 -0.34687257995E+02  0.59998823144E+02 -0.17634173592E+03  0.18951766375E+03  0.41800000000E+01 0. -1.
         -5    1    3    3    0  502  0.68193065502E+02  0.78705093378E+01 -0.79194289726E+02  0.10488778301E+03  0.41800000000E+01 0. -1.
        -11    1    1    2    0    0  0.82071768919E+01 -0.58113568922E+02 -0.86818376395E+02  0.10479491937E+03  0.00000000000E+00 0.  1.
         11    1    1    2    0    0 -0.41712984399E+02 -0.97557635600E+01 -0.22096875439E+03  0.22508295894E+03  0.00000000000E+00 0. -1.
</event>
<event>
 7    1  0.6473813E-006  0.1725065E+03  0.7561462E-02  0.1175259E+00
         -2   -1    0    0    0  501 -0.00000000000E+00  0.00000000000E+00  0.98033039660E+02  0.98033039660E+02  0.00000000000E+00 0.  1.
          2   -1    0    0  501    0  0.00000000000E+00 -0.00000000000E+00 -0.41068528757E+03  0.41068528757E+03  0.00000000000E+00 0. -1.
         23    2    1    2    0    0 -0.31863470145E+02  0.15726095854E+03 -0.99012024287E+02  0.22626696952E+03  0.12508825178E+03 0.  0.
          5    1    3    3  502    0 -0.24805287326E+01  0.42092816214E+02  0.29144637928E+02  0.51428012985E+02  0.41800000000E+01 0.  1.
         -5    1    3    3    0  502 -0.29382941413E+02  0.11516814232E+03 -0.12815666221E+03  0.17483895654E+03  0.41800000000E+01 0.  1.
        -11    1    1    2    0    0 -0.31452311425E+02 -0.57862263451E+02 -0.62494534242E+02  0.90790176979E+02  0.00000000000E+00 0.  1.
         11    1    1    2    0    0  0.63315781571E+02 -0.99398695088E+02 -0.15114568938E+03  0.19166118073E+03  0.00000000000E+00 0. -1.
</event>
<event>
 7    1  0.6473813E-006  0.1116447E+03  0.7561462E-02  0.1257554E+00
         -2   -1    0    0    0  501 -0.00000000000E+00  0.00000000000E+00  0.40406658386E+03  0.40406658386E+03  0.00000000000E+00 0.  1.
          2   -1    0    0  501    0  0.00000000000E+00 -0.00000000000E+00 -0.75891843684E+02  0.75891843684E+02  0.00000000000E+00 0. -1.
         23    2    1    2    0    0  0.58495354237E+02  0.42535058184E+02  0.33335363041E+03  0.36332433873E+03  0.12509594144E+03 0.  0.
          5    1    3    3  502    0  0.30925340971E+02  0.77898851760E+02  0.28564802301E+03  0.29771945397E+03  0.41800000000E+01 0. -1.
         -5    1    3    3    0  502  0.27570013265E+02 -0.35363793577E+02  0.47705607403E+02  0.65604884767E+02  0.41800000000E+01 0. -1.
        -11    1    1    2    0    0 -0.10944492869E+02 -0.45399373743E+02  0.31655171949E+02  0.56417505896E+02  0.00000000000E+00 0.  1.
         11    1    1    2    0    0 -0.47550861367E+02  0.28643155591E+01 -0.36834062189E+02  0.60216582913E+02  0.00000000000E+00 0. -1.
</event>
<event>
 7    1  0.6473813E-006  0.1564818E+03  0.7561462E-02  0.1192727E+00
          1   -1    0    0  501    0  0.00000000000E+00  0.00000000000E+00  0.57079561729E+03  0.57079561729E+03  0.00000000000E+00 0. -1.
         -1   -1    0    0    0  501 -0.00000000000E+00 -0.00000000000E+00 -0.47121928614E+02  0.47121928614E+02  0.00000000000E+00 0.  1.
         23    2    1    2    0    0 -0.58800506254E+02 -0.97982415744E+02  0.19987853010E+03  0.26202451771E+03  0.12508943903E+03 0.  0.
          5    1    3    3  502    0 -0.34565387199E+02  0.25424097287E+02  0.59900265688E+02  0.73801523999E+02  0.41800000000E+01 0.  1.
         -5    1    3    3    0  502 -0.24235119055E+02 -0.12340651303E+03  0.13997826442E+03  0.18822299372E+03  0.41800000000E+01 0.  1.
        -11    1    1    2    0    0 -0.11201241848E+02  0.66198081931E+02  0.11207046162E+03  0.13064242128E+03  0.00000000000E+00 0.  1.
         11    1    1    2    0    0  0.70001748103E+02  0.31784333813E+02  0.21172469695E+03  0.22525060691E+03  0.00000000000E+00 0. -1.
</event>
<event>
 7    1  0.6473813E-006  0.8129065E+02  0.7561462E-02  0.1325428E+00
         -1   -1    0    0    0  501 -0.00000000000E+00  0.00000000000E+00  0.48344936986E+02  0.48344936986E+02  0.00000000000E+00 0.  1.
          1   -1    0    0  501    0  0.00000000000E+00 -0.00000000000E+00 -0.29973051319E+03  0.29973051319E+03  0.00000000000E+00 0. -1.
         23    2    1    2    0    0 -0.50355628210E+01  0.21888741398E+02 -0.73795842840E+02  0.14696007792E+03  0.12508782590E+03 0.  0.
          5    1    3    3  502    0 -0.31775364531E+02  0.39839648428E+02  0.14280081826E+02  0.53087329137E+02  0.41800000000E+01 0.  1.
         -5    1    3    3    0  502  0.26739801710E+02 -0.17950907031E+02 -0.88075924665E+02  0.93872748785E+02  0.41800000000E+01 0.  1.
        -11    1    1    2    0    0 -0.32565659760E+02 -0.25271572012E+02 -0.14656072393E+03  0.15224723428E+03  0.00000000000E+00 0. -1.
         11    1    1    2    0    0  0.37601222581E+02  0.33828306140E+01 -0.31029009436E+02  0.48868137974E+02  0.00000000000E+00 0.  1.
</event>
<event>
 7    1  0.6473813E-006  0.9994100E+02  0.7561462E-02  0.1280420E+00
         -1   -1    0    0    0  501 -0.00000000000E+00  0.00000000000E+00  0.94831984103E+03  0.94831984103E+03  0.00000000000E+00 0.  1.
          1   -1    0    0  501    0  0.00000000000E+00 -0.00000000000E+00 -0.18574044790E+02  0.18574044790E+02  0.00000000000E+00 0. -1.
         23    2    1    2    0    0 -0.91995218638E+01 -0.42757697671E+02  0.74292029812E+03  0.75464630703E+03  0.12509047699E+03 0.  0.
          5    1    3    3  502    0 -0.45777613204E+02 -0.49525186146E+02  0.66254424153E+03  0.66598098946E+03  0.41800000000E+01 0.  1.
         -5    1    3    3    0  502  0.36578091340E+02  0.67674884755E+01  0.80376056594E+02  0.88665317571E+02  0.41800000000E+01 0.  1.
        -11    1    1    2    0    0 -0.27175219947E+02  0.50811988035E+02  0.14609583101E+03  0.15704885401E+03  0.00000000000E+00 0.  1.
         11    1    1    2    0    0  0.36374741810E+02 -0.80542903643E+01  0.40729667107E+02  0.55198724783E+02  0.00000000000E+00 0. -1.
</event>
<event>
 7    1  0.6473813E-006  0.1692173E+03  0.7561462E-02  0.1178667E+00
          1   -1    0    0  501    0  0.00000000000E+00  0.00000000000E+00  0.11066128183E+04  0.11066128183E+04  0.00000000000E+00 0. -1.
         -1   -1    0    0    0  501 -0.00000000000E+00 -0.00000000000E+00 -0.33280367255E+02  0.33280367255E+02  0.00000000000E+00 0.  1.
         23    2    1    2    0    0 -0.14062796104E+03 -0.64339278564E+02  0.49794538503E+03  0.53620245045E+03  0.12509074788E+03 0.  0.
          5    1    3    3  502    0 -0.62240545397E-01  0.48297474294E+01  0.19514870748E+03  0.19525322216E+03  0.41800000000E+01 0. -1.
         -5    1    3    3    0  502 -0.14056572049E+03 -0.69169025993E+02  0.30279667755E+03  0.34094922829E+03  0.41800000000E+01 0. -1.
        -11    1    1    2    0    0  0.69432702155E+02  0.76270081624E+02  0.25093415176E+03  0.27130420933E+03  0.00000000000E+00 0. -1.
         11    1    1    2    0    0  0.71195258885E+02 -0.11930803060E+02  0.32445291424E+03  0.33238652576E+03  0.00000000000E+00 0.  1.
</event>
<event>
 7    1  0.6473813E-006  0.1063481E+03  0.7561462E-02  0.1267486E+00
          1   -1    0    0  501    0  0.00000000000E+00  0.00000000000E+00  0.15642852803E+02  0.15642852803E+02  0.00000000000E+00 0. -1.
         -1   -1    0    0    0  501 -0.00000000000E+00 -0.00000000000E+00 -0.77741924416E+03  0.77741924416E+03  0.00000000000E+00 0.  1.
         23    2    1    2    0    0 -0.37994895051E+01 -0.86250880283E+01 -0.38519578829E+03  0.40510801636E+03  0.12509149187E+03 0.  0.
          5    1    3    3  502    0 -0.53199039786E+02 -0.34994049830E+02 -0.26294812768E+03  0.27058069334E+03  0.41800000000E+01 0.  1.
         -5    1    3    3    0  502  0.49399550281E+02  0.26368961801E+02 -0.12224766060E+03  0.13452732302E+03  0.41800000000E+01 0.  1.
        -11    1    1    2    0    0 -0.32443578921E+02  0.35137320895E+02 -0.21458777815E+03  0.21985252254E+03  0.00000000000E+00 0.  1.
         11    1    1    2    0    0  0.36243068426E+02 -0.26512232867E+02 -0.16199282491E+03  0.16810155807E+03  0.00000000000E+00 0. -1.
</event>
<event>
 7    1  0.6473813E-006  0.1451081E+03  0.7561462E-02  0.1206616E+00
         -1   -1    0    0    0  501 -0.00000000000E+00  0.00000000000E+00  0.22311830776E+02  0.22311830776E+02  0.00000000000E+00 0.  1.
          1   -1    0    0  501    0  0.00000000000E+00 -0.00000000000E+00 -0.11281075972E+04  0.11281075972E+04  0.00000000000E+00 0. -1.
         23    2    1    2    0    0 -0.12197074285E+02  0.10698779440E+03 -0.43976447747E+03  0.46971935322E+03  0.12509323871E+03 0.  0.
          5    1    3    3  502    0 -0.54699995061E+02  0.31405307835E+02 -0.28821465418E+03  0.29506531837E+03  0.41800000000E+01 0.  1.
         -5    1    3    3    0  502  0.42502920776E+02  0.75582486567E+02 -0.15154982329E+03  0.17465403485E+03  0.41800000000E+01 0.  1.
        -11    1    1    2    0    0  0.47571278451E+02 -0.32161911283E+02 -0.24908523382E+03  0.25561860022E+03  0.00000000000E+00 0. -1.
         11    1    1    2    0    0 -0.35374204166E+02 -0.74825883119E+02 -0.41694605514E+03  0.42508147454E+03  0.00000000000E+00 0.  1.
</event>
<event>
 7    1  0.6473813E-006  0.9286205E+02  0.7561462E-02  0.1296065E+00
         -2   -1    0    0    0  501 -0.00000000000E+00  0.00000000000E+00  0.20269205980E+02  0.20269205980E+02  0.00000000000E+00 0.  1.
          2   -1    0    0  501    0  0.00000000000E+00 -0.00000000000E+00 -0.83795116182E+03  0.83795116182E+03  0.00000000000E+00 0. -1.
         23    2    1    2    0    0 -0.71259505879E+02 -0.10323764563E+02 -0.44931862293E+03  0.47192905872E+03  0.12508123065E+03 0.  0.
          5    1    3    3  502    0 -0.21593737801E+02  0.61636415836E+01 -0.35933096092E+01  0.23122808301E+02  0.41800000000E+01 0.  1.
         -5    1    3    3    0  502 -0.49665768078E+02 -0.16487406147E+02 -0.44572531332E+03  0.44880625042E+03  0.41800000000E+01 0.  1.
        -11    1    1    2    0    0  0.90271954844E+02  0.12934005345E+02 -0.34020317910E+03  0.35221373823E+03  0.00000000000E+00 0.  1.
         11    1    1    2    0    0 -0.19012448965E+02 -0.26102407813E+01 -0.28160153809E+02  0.34077570852E+02  0.00000000000E+00 0. -1.
</event>
<event>
 7    1  0.6473813E-006  0.1446321E+03  0.7561462E-02  0.1207229E+00
          2   -1    0    0  501    0  0.00000000000E+00  0.00000000000E+00  0.28923612262E+03  0.28923612262E+03  0.00000000000E+00 0. -1.
         -2   -1    0    0    0  501 -0.00000000000E+00 -0.00000000000E+00 -0.83601268957E+02  0.83601268957E+02  0.00000000000E+00 0.  1.
         23    2    1    2    0    0 -0.99126145147E+02  0.42744432945E+02  0.85833343575E+02  0.18619720642E+03  0.12509579374E+03 0.  0.
          5    1    3    3  502    0  0.26173145882E+02 -0.89199695788E+01  0.52245401306E+01  0.28449387379E+02  0.41800000000E+01 0. -1.
         -5    1    3    3    0  502 -0.12529929103E+03  0.51664402524E+02  0.80608803445E+02  0.15774781904E+03  0.41800000000E+01 0. -1.
        -11    1    1    2    0    0  0.95055545657E+02 -0.13305322490E+02  0.12380414145E+03  0.15665265337E+03  0.00000000000E+00 0. -1.
         11    1    1    2    0    0  0.40705994903E+01 -0.29439110456E+02 -0.40026313653E+01  0.29987531784E+02  0.00000000000E+00 0.  1.
</event>
<event>
 7    1  0.6473813E-006  0.9185322E+02  0.7561462E-02  0.1298425E+00
         -2   -1    0    0    0  501 -0.00000000000E+00  0.00000000000E+00  0.14446466869E+03  0.14446466869E+03  0.00000000000E+00 0.  1.
          2   -1    0    0  501    0  0.00000000000E+00 -0.00000000000E+00 -0.88142687375E+02  0.88142687375E+02  0.00000000000E+00 0. -1.
         23    2    1    2    0    0 -0.47719585740E+00  0.14021350285E+02  0.31261207864E+02  0.12969619091E+03  0.12508802037E+03 0.  0.
          5    1    3    3  502    0 -0.60082364008E+02  0.17502809884E+02  0.12292083519E+01  0.62731349195E+02  0.41800000000E+01 0.  1.
         -5    1    3    3    0  502  0.59605168151E+02 -0.34814595988E+01  0.30031999512E+02  0.66964841715E+02  0.41800000000E+01 0.  1.
        -11    1    1    2    0    0 -0.29122956287E+02 -0.11892723621E+02  0.53335508888E+02  0.61921401521E+02  0.00000000000E+00 0.  1.
         11    1    1    2    0    0  0.29600152144E+02 -0.21286266647E+01 -0.28274735439E+02  0.40989763632E+02  0.00000000000E+00 0. -1.
</event>
<event>
 7    1  0.6473813E-006  0.1941048E+03  0.7561462E-02  0.1154810E+00
          2   -1    0    0  501    0  0.00000000000E+00  0.00000000000E+00  0.53649674964E+03  0.53649674964E+03  0.00000000000E+00 0. -1.
         -2   -1    0    0    0  501 -0.00000000000E+00 -0.00000000000E+00 -0.83485585946E+02  0.83485585946E+02  0.00000000000E+00 0.  1.
         23    2    1    2    0    0  0.78645679239E+02  0.14514755857E+03  0.12515078867E+03  0.24199823854E+03  0.12508985144E+03 0.  0.
          5    1    3    3  502    0  0.92852576784E+02  0.51809643039E+02  0.95417304015E+02  0.14292576546E+03  0.41800000000E+01 0.  1.
         -5    1    3    3    0  502 -0.14206897544E+02  0.93337915527E+02  0.29733484653E+02  0.99072473081E+02  0.41800000000E+01 0.  1.
        -11    1    1    2    0    0  0.18786203275E+02 -0.11952358851E+02  0.28693024693E+02  0.36319003037E+02  0.00000000000E+00 0.  1.
         11    1    1    2    0    0 -0.97431882514E+02 -0.13319519972E+03  0.29916735033E+03  0.34166509401E+03  0.00000000000E+00 0. -1.
</event>
<event>
 7    1  0.6473813E-006  0.1521678E+03  0.7561462E-02  0.1197834E+00
          2   -1    0    0  501    0  0.00000000000E+00  0.00000000000E+00  0.20442674001E+03  0.20442674001E+03  0.00000000000E+00 0. -1.
         -2   -1    0    0    0  501 -0.00000000000E+00 -0.00000000000E+00 -0.15298391705E+03  0.15298391705E+03  0.00000000000E+00 0.  1.
         23    2    1    2    0    0  0.81442219170E+02  0.93374998149E+02 -0.33718003955E+02  0.17928847445E+03  0.12512285137E+03 0.  0.
          5    1    3    3  502    0  0.81571498543E+02  0.12128929040E+03 -0.37100784449E+02  0.15086067065E+03  0.41800000000E+01 0. -1.
         -5    1    3    3    0  502 -0.12927937295E+00 -0.27914292253E+02  0.33827804943E+01  0.28427803802E+02  0.41800000000E+01 0. -1.
        -11    1    1    2    0    0 -0.71126346405E+02 -0.54343816325E+02  0.65494223424E+01  0.89750222611E+02  0.00000000000E+00 0.  1.
         11    1    1    2    0    0 -0.10315872765E+02 -0.39031181824E+02  0.78611404572E+02  0.88371960000E+02  0.00000000000E+00 0. -1.
</event>
<event>
 7    1  0.6473813E-006  0.1255712E+03  0.7561462E-02  0.1234179E+00
         -1   -1    0    0    0  501 -0.00000000000E+00  0.00000000000E+00  0.21666948936E+03  0.21666948936E+03  0.00000000000E+00 0.  1.
          1   -1    0    0  501    0  0.00000000000E+00 -0.00000000000E+00 -0.11735951921E+03  0.11735951921E+03  0.00000000000E+00 0. -1.
         23    2    1    2    0    0 -0.13343076632E+02 -0.11472133494E+03  0.57287334033E+02  0.17963304328E+03  0.12508864542E+03 0.  0.
          5    1    3    3  502    0  0.14808917336E+01  0.45397967890E+01 -0.30240891510E+02  0.30899623211E+02  0.41800000000E+01 0. -1.
         -5    1    3    3    0  502 -0.14823968366E+02 -0.11926113173E+03  0.87528225544E+02  0.14873342007E+03  0.41800000000E+01 0. -1.
        -11    1    1    2    0    0  0.28845722637E+02  0.47617474255E+02  0.61368730751E+02  0.82859041044E+02  0.00000000000E+00 0.  1.
         11    1    1    2    0    0 -0.15502646005E+02  0.67103860685E+02 -0.19346094640E+02  0.71536924240E+02  0.00000000000E+00 0. -1.
</event>
<event>
 7    1  0.6473813E-006  0.1696873E+03  0.7561462E-02  0.1178174E+00
          1   -1    0    0  501    0  0.00000000000E+00  0.00000000000E+00  0.11858029231E+03  0.11858029231E+03  0.00000000000E+00 0. -1.
         -1   -1    0    0    0  501 -0.00000000000E+00 -0.00000000000E+00 -0.27490616134E+03  0.27490616134E+03  0.00000000000E+00 0.  1.
         23    2    1    2    0    0  0.90566220101E+02  0.97689951657E+02 -0.14214692614E+03  0.23151458850E+03  0.12509072387E+03 0.  0.
          5    1    3    3  502    0 -0.16304048237E+02  0.65947758715E+02 -0.75108165366E+02  0.10135895507E+03  0.41800000000E+01 0.  1.
         -5    1    3    3    0  502  0.10687026834E+03  0.31742192942E+02 -0.67038760778E+02  0.13015563343E+03  0.41800000000E+01 0.  1.
        -11    1    1    2    0    0 -0.84049960205E+02 -0.11431787499E+03 -0.19762199736E+02  0.14326031164E+03  0.00000000000E+00 0.  1.
         11    1    1    2    0    0 -0.65162598961E+01  0.16627923337E+02  0.55832568432E+01  0.18711553504E+02  0.00000000000E+00 0. -1.
</event>
<event>
 7    1  0.6473813E-006  0.1318478E+03  0.7561462E-02  0.1224739E+00
         -2   -1    0    0    0  501 -0.00000000000E+00  0.00000000000E+00  0.48824792912E+02  0.48824792912E+02  0.00000000000E+00 0.  1.
          2   -1    0    0  501    0  0.00000000000E+00 -0.00000000000E+00 -0.42969928439E+03  0.42969928439E+03  0.00000000000E+00 0. -1.
         23    2    1    2    0    0  0.39343079393E+02 -0.55172598748E+02 -0.17510494040E+03  0.22561286392E+03  0.12509009019E+03 0.  0.
          5    1    3    3  502    0  0.38643485415E+02 -0.94409415631E+02 -0.13596139313E+03  0.17002773170E+03  0.41800000000E+01 0. -1.
         -5    1    3    3    0  502  0.69959397833E+00  0.39236816882E+02 -0.39143547273E+02  0.55585132220E+02  0.41800000000E+01 0. -1.
        -11    1    1    2    0    0  0.21412261216E+02 -0.17325201963E+02 -0.12660202359E+03  0.12956357486E+03  0.00000000000E+00 0. -1.
         11    1    1    2    0    0 -0.60755340609E+02  0.72497800711E+02 -0.79167527475E+02  0.12334763851E+03  0.00000000000E+00 0.  1.
</event>
<event>
 7    1  0.6473813E-006  0.1090119E+03  0.7561462E-02  0.1262411E+00
          1   -1    0    0  501    0  0.00000000000E+00  0.00000000000E+00  0.63146585398E+02  0.63146585398E+02  0.00000000000E+00 0. -1.
         -1   -1    0    0    0  501 -0.00000000000E+00 -0.00000000000E+00 -0.22124872973E+03  0.22124872973E+03  0.00000000000E+00 0.  1.
         23    2    1    2    0    0  0.34136715348E+01  0.40877285009E+02 -0.11859825078E+03  0.17718613464E+03  0.12508707223E+03 0.  0.
          5    1    3    3  502    0 -0.30788255268E+02  0.74513082632E+02 -0.56190393536E+02  0.98361317963E+02  0.41800000000E+01 0.  1.
         -5    1    3    3    0  502  0.34201926803E+02 -0.33635797623E+02 -0.62407857246E+02  0.78824816681E+02  0.41800000000E+01 0.  1.
        -11    1    1    2    0    0  0.49643697473E+01  0.23602231015E+02 -0.34366089370E+02  0.41984977962E+02  0.00000000000E+00 0.  1.
         11    1    1    2    0    0 -0.83780412821E+01 -0.64479516024E+02 -0.51378041780E+01  0.65224202519E+02  0.00000000000E+00 0. -1.
</event>
<event>
 7    1  0.6473813E-006  0.7906700E+02  0.7561462E-02  0.1331720E+00
         -2   -1    0    0    0  501 -0.00000000000E+00  0.00000000000E+00  0.15079655117E+04  0.15079655117E+04  0.00000000000E+00 0.  1.
          2   -1    0    0  501    0  0.00000000000E+00 -0.00000000000E+00 -0.12168521618E+02  0.12168521618E+02  0.00000000000E+00 0. -1.
         23    2    1    2    0    0 -0.31482797721E+02 -0.23239920348E+02  0.12217417343E+04  0.12287520746E+04  0.12509010752E+03 0.  0.
          5    1    3    3  502    0 -0.55883565115E+02  0.84459413658E+01  0.10780955040E+04  0.10795840379E+04  0.41800000000E+01 0.  1.
         -5    1    3    3    0  502  0.24400767394E+02 -0.31685861714E+02  0.14364623025E+03  0.14916803661E+03  0.41800000000E+01 0.  1.
        -11    1    1    2    0    0  0.44066561948E+02  0.17383334481E+02  0.27341387786E+03  0.27748728044E+03  0.00000000000E+00 0.  1.
         11    1    1    2    0    0 -0.12583764227E+02  0.58565858672E+01  0.64137794864E+00  0.13894678327E+02  0.00000000000E+00 0. -1.
</event>
<event>
 7    1  0.6473813E-006  0.1242303E+03  0.7561462E-02  0.1236277E+00
         -1   -1    0    0    0  501 -0.00000000000E+00  0.00000000000E+00  0.82285502428E+03  0.82285502428E+03  0.00000000000E+00 0.  1.
          1   -1    0    0  501    0  0.00000000000E+00 -0.00000000000E+00 -0.28552453985E+02  0.28552453985E+02  0.00000000000E+00 0. -1.
         23    2    1    2    0    0 -0.26036422072E+02 -0.92070019081E+02  0.57087106238E+03  0.59219520389E+03  0.12508639400E+03 0.  0.
          5    1    3    3  502    0  0.19430122024E+02 -0.47503273756E+01  0.34696515463E+03  0.34756637665E+03  0.41800000000E+01 0.  1.
         -5    1    3    3    0  502 -0.45466544097E+02 -0.87319691705E+02  0.22390590775E+03  0.24462882724E+03  0.41800000000E+01 0.  1.
        -11    1    1    2    0    0 -0.30320250312E+02  0.52507231634E+02  0.12687548320E+03  0.14061904277E+03  0.00000000000E+00 0. -1.
         11    1    1    2    0    0  0.56356672385E+02  0.39562787447E+02  0.96556024721E+02  0.11859323161E+03  0.00000000000E+00 0.  1.
</event>
<event>
 7    1  0.6473813E-006  0.1083264E+03  0.7561462E-02  0.1263701E+00
         -2   -1    0    0    0  501 -0.00000000000E+00  0.00000000000E+00  0.56753947678E+02  0.56753947678E+02  0.00000000000E+00 0.  1.
          2   -1    0    0  501    0  0.00000000000E+00 -0.00000000000E+00 -0.21590571823E+03  0.21590571823E+03  0.00000000000E+00 0. -1.
         23    2    1    2    0    0  0.14854231607E+02  0.76434024342E+01 -0.74900582053E+02  0.14675364531E+03  0.12508982942E+03 0.  0.
          5    1    3    3  502    0  0.63584104367E+02 -0.20190468403E+02 -0.56572053008E+02  0.87569760329E+02  0.41800000000E+01 0.  1.
         -5    1    3    3    0  502 -0.48729872761E+02  0.27833870837E+02 -0.18328529045E+02  0.59183884986E+02  0.41800000000E+01 0.  1.
        -11    1    1    2    0    0  0.15793934192E+02 -0.43550889457E+02 -0.43272948918E+02  0.63393031461E+02  0.00000000000E+00 0. -1.
         11    1    1    2    0    0 -0.30648165799E+02  0.35907487023E+02 -0.40978239583E+02  0.62512989133E+02  0.00000000000E+00 0.  1.
</event>
<event>
 7    1  0.6473813E-006  0.1627119E+03  0.7561462E-02  0.1185669E+00
          1   -1    0    0  501    0  0.00000000000E+00  0.00000000000E+00  0.23726599556E+03  0.23726599556E+03  0.00000000000E+00 0. -1.
         -1   -1    0    0    0  501 -0.00000000000E+00 -0.00000000000E+00 -0.13638532957E+03  0.13638532957E+03  0.00000000000E+00 0.  1.
         23    2    1    2    0    0 -0.91403215696E+02  0.87708050729E+02 -0.14857697931E+02  0.17864592012E+03  0.12508542515E+03 0.  0.
          5    1    3    3  502    0 -0.10086435452E+03  0.21355650165E+02 -0.34296214612E+02  0.10873538773E+03  0.41800000000E+01 0. -1.
         -5    1    3    3    0  502  0.94611388260E+01  0.66352400565E+02  0.19438516682E+02  0.69910532392E+02  0.41800000000E+01 0. -1.
        -11    1    1    2    0    0  0.24733783051E+02 -0.84820377609E+02  0.80571025919E+02  0.11957402184E+03  0.00000000000E+00 0. -1.
         11    1    1    2    0    0  0.66669432644E+02 -0.28876731200E+01  0.35167338003E+02  0.75431383173E+02  0.00000000000E+00 0.  1.
</event>
<event>
 7    1  0.6473813E-006  0.1590619E+03  0.7561462E-02  0.1189760E+00
          1   -1    0    0  501    0  0.00000000000E+00  0.00000000000E+00  0.23937374292E+03  0.23937374292E+03  0.00000000000E+00 0. -1.
         -1   -1    0    0    0  501 -0.00000000000E+00 -0.00000000000E+00 -0.12103335530E+03  0.12103335530E+03  0.00000000000E+00 0.  1.
         23    2    1    2    0    0  0.94395200555E+02  0.78167317563E+02  0.12667628543E+02  0.17558216947E+03  0.12509215003E+03 0.  0.
          5    1    3    3  502    0 -0.25371537995E+02  0.43182304260E+02  0.23105107713E+01  0.50311402301E+02  0.41800000000E+01 0. -1.
         -5    1    3    3    0  502  0.11976673855E+03  0.34985013303E+02  0.10357117772E+02  0.12527076717E+03  0.41800000000E+01 0. -1.
        -11    1    1    2    0    0 -0.63653432577E+02 -0.89870714947E+02  0.10463999461E+03  0.15191455940E+03  0.00000000000E+00 0. -1.
         11    1    1    2    0    0 -0.30741767978E+02  0.11703397384E+02  0.10327644580E+01  0.32910369356E+02  0.00000000000E+00 0.  1.
</event>
<event>
 7    1  0.6473813E-006  0.9904715E+02  0.7561462E-02  0.1282313E+00
         -3   -1    0    0    0  501 -0.00000000000E+00  0.00000000000E+00  0.37739648708E+03  0.37739648708E+03  0.00000000000E+00 0.  1.
          3   -1    0    0  501    0  0.00000000000E+00 -0.00000000000E+00 -0.47096881857E+02  0.47096881857E+02  0.00000000000E+00 0. -1.
         23    2    1    2    0    0  0.54768830813E+02  0.37273770313E+02  0.27098176121E+03  0.30572516492E+03  0.12509117785E+03 0.  0.
          5    1    3    3  502    0  0.25011948113E+01 -0.19007710660E+02 -0.41386147685E+01  0.20053667301E+02  0.41800000000E+01 0.  1.
         -5    1    3    3    0  502  0.52267636002E+02  0.56281480973E+02  0.27512037598E+03  0.28567149762E+03  0.41800000000E+01 0.  1.
        -11    1    1    2    0    0 -0.71296411733E+02 -0.13448392312E+02  0.33382373301E+02  0.79865013798E+02  0.00000000000E+00 0.  1.
         11    1    1    2    0    0  0.16527580920E+02 -0.23825378001E+02  0.25935470710E+02  0.38903190215E+02  0.00000000000E+00 0. -1.
</event>
<event>
 7    1  0.6473813E-006  0.1636628E+03  0.7561462E-02  0.1184622E+00
          1   -1    0    0  501    0  0.00000000000E+00  0.00000000000E+00  0.91774562024E+03  0.91774562024E+03  0.00000000000E+00 0. -1.
         -1   -1    0    0    0  501 -0.00000000000E+00 -0.00000000000E+00 -0.33607576108E+02  0.33607576108E+02  0.00000000000E+00 0.  1.
         23    2    1    2    0    0  0.64189388005E+02  0.11932120220E+03  0.51776602456E+03  0.54965007526E+03  0.12520272447E+03 0.  0.
          5    1    3    3  502    0  0.99287122232E+02  0.87208766048E+02  0.32079950795E+03  0.34697708601E+03  0.41800000000E+01 0. -1.
         -5    1    3    3    0  502 -0.35097734228E+02  0.32112436153E+02  0.19696651661E+03  0.20267298925E+03  0.41800000000E+01 0. -1.
        -11    1    1    2    0    0 -0.60055314700E+02 -0.50655994004E+02  0.10328067702E+03  0.12976736415E+03  0.00000000000E+00 0.  1.
         11    1    1    2    0    0 -0.41340733046E+01 -0.68665208196E+02  0.26309134256E+03  0.27193575695E+03  0.00000000000E+00 0. -1.
</event>
<event>
 7    1  0.6473813E-006  0.8695782E+02  0.7561462E-02  0.1310391E+00
          4   -1    0    0  501    0  0.00000000000E+00  0.00000000000E+00  0.14107388711E+03  0.14107388711E+03  0.00000000000E+00 0.  1.
         -4   -1    0    0    0  501 -0.00000000000E+00 -0.00000000000E+00 -0.90005210736E+02  0.90005210736E+02  0.00000000000E+00 0. -1.
         23    2    1    2    0    0  0.43627221422E+02 -0.21151813477E+02  0.40322379965E+01  0.13421799163E+03  0.12508987437E+03 0.  0.
          5    1    3    3  502    0 -0.71813302802E+01 -0.60465639169E+02 -0.21856492513E+02  0.64829342814E+02  0.41800000000E+01 0. -1.
         -5    1    3    3    0  502  0.50808551702E+02  0.39313825692E+02  0.25888730510E+02  0.69388648812E+02  0.41800000000E+01 0. -1.
        -11    1    1    2    0    0 -0.14865099661E+02  0.64930730144E+01 -0.18013807224E+02  0.24241048571E+02  0.00000000000E+00 0. -1.
         11    1    1    2    0    0 -0.28762121761E+02  0.14658740463E+02  0.65050245598E+02  0.72620057646E+02  0.00000000000E+00 0.  1.
</event>
<event>
 7    1  0.6473813E-006  0.1482552E+03  0.7561462E-02  0.1202634E+00
          1   -1    0    0  501    0  0.00000000000E+00  0.00000000000E+00  0.55929914379E+03  0.55929914379E+03  0.00000000000E+00 0. -1.
         -1   -1    0    0    0  501 -0.00000000000E+00 -0.00000000000E+00 -0.49901783214E+02  0.49901783214E+02  0.00000000000E+00 0.  1.
         23    2    1    2    0    0 -0.22710588067E+02  0.11949364866E+03  0.33674396226E+03  0.37926008519E+03  0.12508882133E+03 0.  0.
          5    1    3    3  502    0 -0.42213763638E+02  0.13944733128E+03  0.27081613054E+03  0.30754903512E+03  0.41800000000E+01 0. -1.
         -5    1    3    3    0  502  0.19503175571E+02 -0.19953682623E+02  0.65927831711E+02  0.71711050067E+02  0.41800000000E+01 0. -1.
        -11    1    1    2    0    0 -0.16852732070E+01 -0.21105224974E+02 -0.81282652634E+01  0.22679051196E+02  0.00000000000E+00 0.  1.
         11    1    1    2    0    0  0.24395861274E+02 -0.98388423684E+02  0.18078166359E+03  0.20726179062E+03  0.00000000000E+00 0. -1.
</event>
<event>
 6    1  0.6473813E-006  0.7810241E+02  0.7561462E-02  0.1334524E+00
         -1   -1    0    0    0  501 -0.00000000000E+00  0.00000000000E+00  0.72559354543E+02  0.72559354543E+02  0.00000000000E+00 0.  1.
          1   -1    0    0  501    0  0.00000000000E+00 -0.00000000000E+00 -0.18247292785E+03  0.18247292785E+03  0.00000000000E+00 0. -1.
          5    1    1    2  502    0  0.24696923777E+02 -0.31284358450E+01 -0.82123379917E+02  0.85915348360E+02  0.41800000000E+01 0. -1.
         -5    1    1    2    0  502 -0.25093729598E+02  0.28287917723E+02  0.38271213744E+02  0.53963503923E+02  0.41800000000E+01 0.  1.
        -11    1    1    2    0    0  0.33547794388E+02 -0.43576630431E+02 -0.48647212606E+02  0.73422942752E+02  0.00000000000E+00 0.  1.
         11    1    1    2    0    0 -0.33150988568E+02  0.18417148553E+02 -0.17414194524E+02  0.41730487354E+02  0.00000000000E+00 0. -1.
</event>
<event>
 7    1  0.6473813E-006  0.1871147E+03  0.7561462E-02  0.1161090E+00
         -1   -1    0    0    0  501 -0.00000000000E+00  0.00000000000E+00  0.87400392228E+02  0.87400392228E+02  0.00000000000E+00 0.  1.
          1   -1    0    0  501    0  0.00000000000E+00 -0.00000000000E+00 -0.95737779643E+03  0.95737779643E+03  0.00000000000E+00 0. -1.
         23    2    1    2    0    0  0.65353310782E+02  0.16364716748E+03 -0.70780985682E+02  0.22598008969E+03  0.12249735649E+03 0.  0.
          5    1    3    3  502    0  0.42163037429E+02  0.13467313314E+02  0.20183305938E+02  0.48825490185E+02  0.41800000000E+01 0. -1.
         -5    1    3    3    0  502  0.23190273352E+02  0.15017985417E+03 -0.90964291620E+02  0.17715459951E+03  0.41800000000E+01 0.  1.
        -11    1    1    2    0    0 -0.50243159981E+02 -0.14661460386E+03 -0.67890155198E+03  0.69636738470E+03  0.00000000000E+00 0. -1.
         11    1    1    2    0    0 -0.15110150801E+02 -0.17032563620E+02 -0.12029486654E+03  0.12243071427E+03  0.00000000000E+00 0.  1.
</event>
<event>
 7    1  0.6473813E-006  0.9852349E+02  0.7561462E-02  0.1283432E+00
          2   -1    0    0  501    0  0.00000000000E+00  0.00000000000E+00  0.31532494678E+03  0.31532494678E+03  0.00000000000E+00 0.  1.
         -2   -1    0    0    0  501 -0.00000000000E+00 -0.00000000000E+00 -0.43926763975E+02  0.43926763975E+02  0.00000000000E+00 0. -1.
         23    2    1    2    0    0  0.19542261916E+02 -0.40672275388E+02  0.14199736791E+03  0.19454363900E+03  0.12509133061E+03 0.  0.
          5    1    3    3  502    0  0.41965316876E+02  0.15876612049E+02  0.12250180588E+03  0.13052708330E+03  0.41800000000E+01 0.  1.
         -5    1    3    3    0  502 -0.22423054960E+02 -0.56548887437E+02  0.19495562025E+02  0.64016555693E+02  0.41800000000E+01 0.  1.
        -11    1    1    2    0    0 -0.33418797578E+02 -0.12784161821E+02  0.90040463778E+02  0.96889297357E+02  0.00000000000E+00 0.  1.
         11    1    1    2    0    0  0.13876535662E+02  0.53456437209E+02  0.39360351116E+02  0.67818774400E+02  0.00000000000E+00 0. -1.
</event>
<event>
 7    1  0.6473813E-006  0.1532524E+03  0.7561462E-02  0.1196532E+00
          3   -1    0    0  501    0  0.00000000000E+00  0.00000000000E+00  0.87850456793E+03  0.87850456793E+03  0.00000000000E+00 0. -1.
         -3   -1    0    0    0  501 -0.00000000000E+00 -0.00000000000E+00 -0.33107589341E+02  0.33107589341E+02  0.00000000000E+00 0.  1.
         23    2    1    2    0    0 -0.58464752209E+02  0.10619411133E+03  0.31834124805E+03  0.36288313875E+03  0.12509078964E+03 0.  0.
          5    1    3    3  502    0 -0.16864424462E+01 -0.18363124927E+02  0.12224149685E+03  0.12369520766E+03  0.41800000000E+01 0.  1.
         -5    1    3    3    0  502 -0.56778309763E+02  0.12455723625E+03  0.19609975120E+03  0.23918793110E+03  0.41800000000E+01 0.  1.
        -11    1    1    2    0    0  0.64497352936E+02 -0.24915059255E+02  0.19782150338E+03  0.20955671288E+03  0.00000000000E+00 0.  1.
         11    1    1    2    0    0 -0.60326007274E+01 -0.81279052070E+02  0.32923422715E+03  0.33917230563E+03  0.00000000000E+00 0. -1.
</event>
<event>
 7    1  0.6473813E-006  0.9637890E+02  0.7561462E-02  0.1288100E+00
         -2   -1    0    0    0  501 -0.00000000000E+00  0.00000000000E+00  0.40851111408E+02  0.40851111408E+02  0.00000000000E+00 0.  1.
          2   -1    0    0  501    0  0.00000000000E+00 -0.00000000000E+00 -0.40333026784E+03  0.40333026784E+03  0.00000000000E+00 0. -1.
         23    2    1    2    0    0  0.54224701896E+02  0.59592784679E+00 -0.12951267837E+03  0.18804706258E+03  0.12508992949E+03 0.  0.
          5    1    3    3  502    0  0.85000009582E+02  0.85321198565E+01 -0.13043711689E+03  0.15597792331E+03  0.41800000000E+01 0. -1.
         -5    1    3    3    0  502 -0.30775307685E+02 -0.79361920097E+01  0.92443851654E+00  0.32069139267E+02  0.41800000000E+01 0. -1.
        -11    1    1    2    0    0 -0.59040637711E+02 -0.14214447544E+02 -0.23390423859E+03  0.24165893373E+03  0.00000000000E+00 0. -1.
         11    1    1    2    0    0  0.48159358144E+01  0.13618519697E+02  0.93776053072E+00  0.14475382942E+02  0.00000000000E+00 0.  1.
</event>
<event>
 7    1  0.6473813E-006  0.1158610E+03  0.7561462E-02  0.1250086E+00
          1   -1    0    0  501    0  0.00000000000E+00  0.00000000000E+00  0.18426855534E+02  0.18426855534E+02  0.00000000000E+00 0. -1.
         -1   -1    0    0    0  501 -0.00000000000E+00 -0.00000000000E+00 -0.89039045417E+03  0.89039045417E+03  0.00000000000E+00 0.  1.
         23    2    1    2    0    0  0.98648646323E+01 -0.62315347316E+02 -0.56296162150E+03  0.58013393892E+03  0.12509628989E+03 0.  0.
          5    1    3    3  502    0 -0.21032539865E+02 -0.80776154466E+02 -0.50434213722E+03  0.51121973616E+03  0.41800000000E+01 0. -1.
         -5    1    3    3    0  502  0.30897404498E+02  0.18460807150E+02 -0.58619484275E+02  0.68914202760E+02  0.41800000000E+01 0. -1.
        -11    1    1    2    0    0 -0.51241616848E+01  0.86811656714E+02 -0.23371812599E+03  0.24937257907E+03  0.00000000000E+00 0.  1.
         11    1    1    2    0    0 -0.47407029475E+01 -0.24496309398E+02 -0.75283851149E+02  0.79310791714E+02  0.00000000000E+00 0. -1.
</event>
<event>
 7    1  0.6473813E-006  0.1311004E+03  0.7561462E-02  0.1225832E+00
         -3   -1    0    0    0  501 -0.00000000000E+00  0.00000000000E+00  0.44159014901E+02  0.44159014901E+02  0.00000000000E+00 0. -1.
          3   -1    0    0  501    0  0.00000000000E+00 -0.00000000000E+00 -0.52041404873E+03  0.52041404873E+03  0.00000000000E+00 0.  1.
         23    2    1    2    0    0 -0.82771410488E+02  0.60158842053E+02 -0.20353192683E+03  0.25988992309E+03  0.12508930494E+03 0.  0.
          5    1    3    3  502    0 -0.65405420260E+02  0.83992858226E+02 -0.81116024919E+02  0.13390276745E+03  0.41800000000E+01 0. -1.
         -5    1    3    3    0  502 -0.17365990228E+02 -0.23834016173E+02 -0.12241590192E+03  0.12598715564E+03  0.41800000000E+01 0. -1.
        -11    1    1    2    0    0 -0.23106835774E+01 -0.37850902862E+02 -0.36572703351E+02  0.52683894470E+02  0.00000000000E+00 0.  1.
         11    1    1    2    0    0  0.85082094065E+02 -0.22307939191E+02 -0.23615040365E+03  0.25199924608E+03  0.00000000000E+00 0. -1.
</event>
<event>
 7    1  0.6473813E-006  0.9662821E+02  0.7561462E-02  0.1287550E+00
          2   -1    0    0  501    0  0.00000000000E+00  0.00000000000E+00  0.39518724574E+03  0.39518724574E+03  0.00000000000E+00 0. -1.
         -2   -1    0    0    0  501 -0.00000000000E+00 -0.00000000000E+00 -0.40339969700E+02  0.40339969700E+02  0.00000000000E+00 0.  1.
         23    2    1    2    0    0 -0.27316229742E+02  0.54343282619E+02  0.18802737477E+03  0.23388567183E+03  0.12509534384E+03 0.  0.
          5    1    3    3  502    0 -0.43889055863E+02  0.23082159816E+02  0.19171342464E+03  0.19806702127E+03  0.41800000000E+01 0. -1.
         -5    1    3    3    0  502  0.16572826121E+02  0.31261122803E+02 -0.36860498703E+01  0.35818650563E+02  0.41800000000E+01 0. -1.
        -11    1    1    2    0    0  0.24076803703E+01  0.24787876358E+02  0.69132046895E+02  0.73481124427E+02  0.00000000000E+00 0. -1.
         11    1    1    2    0    0  0.24908549372E+02 -0.79131158977E+02  0.97687854372E+02  0.12816041918E+03  0.00000000000E+00 0.  1.
</event>
<event>
 7    1  0.6473813E-006  0.1346688E+03  0.7561462E-02  0.1220688E+00
          2   -1    0    0  501    0  0.00000000000E+00  0.00000000000E+00  0.13075182371E+03  0.13075182371E+03  0.00000000000E+00 0. -1.
         -2   -1    0    0    0  501 -0.00000000000E+00 -0.00000000000E+00 -0.16153234963E+03  0.16153234963E+03  0.00000000000E+00 0.  1.
         23    2    1    2    0    0 -0.94044041776E+02 -0.16893177271E+02 -0.14806255747E+02  0.15810138966E+03  0.12508862047E+03 0.  0.
          5    1    3    3  502    0 -0.78690839841E+02  0.46784817479E+02 -0.11757059858E+02  0.92394633383E+02  0.41800000000E+01 0. -1.
         -5    1    3    3    0  502 -0.15353201935E+02 -0.63677994750E+02 -0.30491958894E+01  0.65706756278E+02  0.41800000000E+01 0. -1.
        -11    1    1    2    0    0  0.29560302823E+02 -0.21914374229E+02 -0.40791085249E+02  0.54935998550E+02  0.00000000000E+00 0.  1.
         11    1    1    2    0    0  0.64483738953E+02  0.38807551500E+02  0.24816815082E+02  0.79246785131E+02  0.00000000000E+00 0. -1.
</event>
<event>
 6    1  0.6473813E-006  0.1101789E+03  0.7561462E-02  0.1260239E+00
         -1   -1    0    0    0  501 -0.00000000000E+00  0.00000000000E+00  0.46444037827E+03  0.46444037827E+03  0.00000000000E+00 0.  1.
          1   -1    0    0  501    0  0.00000000000E+00 -0.00000000000E+00 -0.10894115966E+03  0.10894115966E+03  0.00000000000E+00 0. -1.
          5    1    1    2  502    0  0.72322177503E+02 -0.24551976958E+02  0.13573787137E+03  0.15580609441E+03  0.41800000000E+01 0. -1.
         -5    1    1    2    0  502 -0.84821764217E+02  0.10632825628E+02  0.29530134776E+03  0.30745430076E+03  0.41800000000E+01 0.  1.
        -11    1    1    2    0    0  0.28885464540E+02  0.25243419805E+02 -0.73209756643E+01  0.39053770494E+02  0.00000000000E+00 0.  1.
         11    1    1    2    0    0 -0.16385877826E+02 -0.11324268476E+02 -0.68219024855E+02  0.71067372266E+02  0.00000000000E+00 0. -1.
</event>
<event>
 7    1  0.6473813E-006  0.1768981E+03  0.7561462E-02  0.1170839E+00
         -4   -1    0    0    0  501 -0.00000000000E+00  0.00000000000E+00  0.42028741378E+03  0.42028741378E+03  0.00000000000E+00 0.  1.
          4   -1    0    0  501    0  0.00000000000E+00 -0.00000000000E+00 -0.84463537087E+02  0.84463537087E+02  0.00000000000E+00 0. -1.
         23    2    1    2    0    0 -0.12814707031E+03 -0.74116089315E+02  0.22361027612E+03  0.29591093873E+03  0.12508741645E+03 0.  0.
          5    1    3    3  502    0  0.24607458388E+02 -0.18958618635E+02  0.36791179171E+02  0.48332385557E+02  0.41800000000E+01 0.  1.
         -5    1    3    3    0  502 -0.15275452870E+03 -0.55157470680E+02  0.18681909695E+03  0.24757855318E+03  0.41800000000E+01 0.  1.
        -11    1    1    2    0    0  0.66059599593E+02  0.72218792973E+02  0.10921128219E+03  0.14665104471E+03  0.00000000000E+00 0.  1.
         11    1    1    2    0    0  0.62087470717E+02  0.18972963415E+01  0.30023183864E+01  0.62188967423E+02  0.00000000000E+00 0. -1.
</event>
<event>
 7    1  0.6473813E-006  0.1071736E+03  0.7561462E-02  0.1265895E+00
         -2   -1    0    0    0  501 -0.00000000000E+00  0.00000000000E+00  0.10680129172E+04  0.10680129172E+04  0.00000000000E+00 0.  1.
          2   -1    0    0  501    0  0.00000000000E+00 -0.00000000000E+00 -0.14935564979E+02  0.14935564979E+02  0.00000000000E+00 0. -1.
         23    2    1    2    0    0 -0.13692514902E+01  0.56688697702E+02  0.73539444314E+03  0.74810959026E+03  0.12508992263E+03 0.  0.
          5    1    3    3  502    0 -0.36351556244E+02 -0.59366747671E+01  0.73427322068E+02  0.82254019809E+02  0.41800000000E+01 0.  1.
         -5    1    3    3    0  502  0.34982304754E+02  0.62625372469E+02  0.66196712107E+03  0.66585557045E+03  0.41800000000E+01 0.  1.
        -11    1    1    2    0    0  0.24157327583E+02  0.16178918425E+02  0.75406025906E+02  0.80817093615E+02  0.00000000000E+00 0.  1.
         11    1    1    2    0    0 -0.22788076093E+02 -0.72867616127E+02  0.24227688320E+03  0.25402179832E+03  0.00000000000E+00 0. -1.
</event>
<event>
 7    1  0.6473813E-006  0.1450565E+03  0.7561462E-02  0.1206683E+00
          2   -1    0    0  501    0  0.00000000000E+00  0.00000000000E+00  0.70933210932E+03  0.70933210932E+03  0.00000000000E+00 0.  1.
         -2   -1    0    0    0  501 -0.00000000000E+00 -0.00000000000E+00 -0.32637416129E+02  0.32637416129E+02  0.00000000000E+00 0. -1.
         23    2    1    2    0    0  0.10194194014E+03  0.14196931922E+02  0.30560301741E+03  0.34588302903E+03  0.12509257969E+03 0.  0.
          5    1    3    3  502    0  0.13276528686E+02  0.53720605110E+02  0.59852191181E+02  0.81620627396E+02  0.41800000000E+01 0.  1.
         -5    1    3    3    0  502  0.88665411450E+02 -0.39523673189E+02  0.24575082622E+03  0.26426240164E+03  0.41800000000E+01 0.  1.
        -11    1    1    2    0    0 -0.96233794603E+02 -0.44921842615E+02  0.30543416506E+03  0.32337121757E+03  0.00000000000E+00 0.  1.
         11    1    1    2    0    0 -0.57081455329E+01  0.30724910694E+02  0.65657510728E+02  0.72715278846E+02  0.00000000000E+00 0. -1.
</event>
<event>
 7    1  0.6473813E-006  0.1270334E+03  0.7561462E-02  0.1231925E+00
         -3   -1    0    0    0  501 -0.00000000000E+00  0.00000000000E+00  0.33968332266E+02  0.33968332266E+02  0.00000000000E+00 0.  1.
          3   -1    0    0  501    0  0.00000000000E+00 -0.00000000000E+00 -0.59002919552E+03  0.59002919552E+03  0.00000000000E+00 0. -1.
         23    2    1    2    0    0 -0.61663381145E+02  0.27655029375E+02 -0.28237189350E+03  0.31614422644E+03  0.12508442129E+03 0.  0.
          5    1    3    3  502    0  0.35207373631E+02  0.19094397268E+01 -0.38128364956E+02  0.52100381307E+02  0.41800000000E+01 0. -1.
         -5    1    3    3    0  502 -0.96870754777E+02  0.25745589648E+02 -0.24424352854E+03  0.26404384513E+03  0.41800000000E+01 0. -1.
        -11    1    1    2    0    0 -0.12000328430E+02 -0.41575343313E+02 -0.19267691702E+03  0.19747635658E+03  0.00000000000E+00 0. -1.
         11    1    1    2    0    0  0.73663709575E+02  0.13920313938E+02 -0.81012052734E+02  0.11037694477E+03  0.00000000000E+00 0.  1.
</event>
<event>
 7    1  0.6473813E-006  0.1137557E+03  0.7561462E-02  0.1253769E+00
          2   -1    0    0  501    0  0.00000000000E+00  0.00000000000E+00  0.23100548644E+03  0.23100548644E+03  0.00000000000E+00 0.  1.
         -2   -1    0    0    0  501 -0.00000000000E+00 -0.00000000000E+00 -0.13795599181E+03  0.13795599181E+03  0.00000000000E+00 0. -1.
         23    2    1    2    0    0  0.74801273652E+02 -0.61821135366E+02 -0.57571497916E+02  0.16846012843E+03  0.12508898505E+03 0.  0.
          5    1    3    3  502    0  0.76494263282E+02 -0.14880777597E+02 -0.83791328164E+02  0.11450444940E+03  0.41800000000E+01 0.  1.
         -5    1    3    3    0  502 -0.16929896307E+01 -0.46940357769E+02  0.26219830249E+02  0.53955679031E+02  0.41800000000E+01 0.  1.
        -11    1    1    2    0    0 -0.32950088079E+02  0.75909114535E+01 -0.13132481657E+01  0.33838659280E+02  0.00000000000E+00 0. -1.
         11    1    1    2    0    0 -0.41851185573E+02  0.54230223913E+02  0.15193424070E+03  0.16666269054E+03  0.00000000000E+00 0.  1.
</event>
<event>
 7    1  0.6473813E-006  0.1679516E+03  0.7561462E-02  0.1180001E+00
         -2   -1    0    0    0  501 -0.00000000000E+00  0.00000000000E+00  0.60426896837E+02  0.60426896837E+02  0.00000000000E+00 0.  1.
          2   -1    0    0  501    0  0.00000000000E+00 -0.00000000000E+00 -0.77812162941E+03  0.77812162941E+03  0.00000000000E+00 0. -1.
         23    2    1    2    0    0  0.14312616496E+03 -0.82834320726E+02 -0.20024238816E+03  0.28825605592E+03  0.12509163031E+03 0.  0.
          5    1    3    3  502    0  0.93062782066E+02 -0.57285472684E+02 -0.20432133884E+03  0.23174768325E+03  0.41800000000E+01 0.  1.
         -5    1    3    3    0  502  0.50063382895E+02 -0.25548848043E+02  0.40789506822E+01  0.56508372670E+02  0.41800000000E+01 0.  1.
        -11    1    1    2    0    0 -0.37186133350E+02  0.43370349675E+02 -0.78953751068E+02  0.97455069402E+02  0.00000000000E+00 0.  1.
         11    1    1    2    0    0 -0.10594003161E+03  0.39463971051E+02 -0.43849859334E+03  0.45283740092E+03  0.00000000000E+00 0. -1.
</event>
<event>
 7    1  0.6473813E-006  0.1802755E+03  0.7561462E-02  0.1167537E+00
          1   -1    0    0  501    0  0.00000000000E+00  0.00000000000E+00  0.13732281527E+03  0.13732281527E+03  0.00000000000E+00 0. -1.
         -1   -1    0    0    0  501 -0.00000000000E+00 -0.00000000000E+00 -0.28523742278E+03  0.28523742278E+03  0.00000000000E+00 0.  1.
         23    2    1    2    0    0 -0.23267823056E+02 -0.15159248428E+03 -0.11592931219E+02  0.19825970338E+03  0.12510332150E+03 0.  0.
          5    1    3    3  502    0  0.42985097526E+02 -0.14632136624E+02  0.23794677079E+00  0.45599858005E+02  0.41800000000E+01 0.  1.
         -5    1    3    3    0  502 -0.66252920581E+02 -0.13696034765E+03 -0.11830877990E+02  0.15265984537E+03  0.41800000000E+01 0.  1.
        -11    1    1    2    0    0 -0.16710313707E+01  0.12927067479E+03 -0.63241694280E+02  0.14392085186E+03  0.00000000000E+00 0. -1.
         11    1    1    2    0    0  0.24938854426E+02  0.22321809490E+02 -0.73079982010E+02  0.80379682816E+02  0.00000000000E+00 0.  1.
</event>
<event>
 7    1  0.6473813E-006  0.1398314E+03  0.7561462E-02  0.1213556E+00
         -2   -1    0    0    0  501 -0.00000000000E+00  0.00000000000E+00  0.74875336806E+02  0.74875336806E+02  0.00000000000E+00 0.  1.
          2   -1    0    0  501    0  0.00000000000E+00 -0.00000000000E+00 -0.39407949678E+03  0.39407949678E+03  0.00000000000E+00 0. -1.
         23    2    1    2    0    0 -0.42043436245E+02  0.10453512510E+03 -0.76410887919E+02  0.18488168340E+03  0.12508944861E+03 0.  0.
          5    1    3    3  502    0 -0.43902510854E+02  0.64601893696E+01 -0.74340346183E+02  0.86678278574E+02  0.41800000000E+01 0.  1.
         -5    1    3    3    0  502  0.18590746090E+01  0.98074935728E+02 -0.20705417358E+01  0.98203404826E+02  0.41800000000E+01 0.  1.
        -11    1    1    2    0    0  0.57872841628E+02 -0.39726798678E+02 -0.71278540722E+02  0.10004056527E+03  0.00000000000E+00 0.  1.
         11    1    1    2    0    0 -0.15829405383E+02 -0.64808326420E+02 -0.17151473134E+03  0.18403258492E+03  0.00000000000E+00 0. -1.
</event>
<event>
 7    1  0.6473813E-006  0.6936912E+02  0.7561462E-02  0.1362252E+00
         -2   -1    0    0    0  501 -0.00000000000E+00  0.00000000000E+00  0.57659106200E+02  0.57659106200E+02  0.00000000000E+00 0.  1.
          2   -1    0    0  501    0  0.00000000000E+00 -0.00000000000E+00 -0.23976630410E+03  0.23976630410E+03  0.00000000000E+00 0. -1.
         23    2    1    2    0    0 -0.30858324256E+02  0.34801944618E+02 -0.74890911507E+02  0.15303313041E+03  0.12508828423E+03 0.  0.
          5    1    3    3  502    0 -0.35201752654E+02  0.21867985749E+02  0.27332350946E+02  0.49818691260E+02  0.41800000000E+01 0.  1.
         -5    1    3    3    0  502  0.43434283977E+01  0.12933958869E+02 -0.10222326245E+03  0.10321443915E+03  0.41800000000E+01 0.  1.
        -11    1    1    2    0    0  0.12628944465E+02  0.20783005781E+02 -0.25038652119E+01  0.24447758765E+02  0.00000000000E+00 0.  1.
         11    1    1    2    0    0  0.18229379790E+02 -0.55584950399E+02 -0.10471242118E+03  0.11994452112E+03  0.00000000000E+00 0. -1.
</event>
<event>
 7    1  0.6473813E-006  0.8059944E+02  0.7561462E-02  0.1327359E+00
          2   -1    0    0  501    0  0.00000000000E+00  0.00000000000E+00  0.33503554104E+02  0.33503554104E+02  0.00000000000E+00 0. -1.
         -2   -1    0    0    0  501 -0.00000000000E+00 -0.00000000000E+00 -0.47121708527E+03  0.47121708527E+03  0.00000000000E+00 0.  1.
         23    2    1    2    0    0  0.50097211437E+01 -0.24227401020E+02 -0.36405790660E+03  0.38574002842E+03  0.12508055765E+03 0.  0.
          5    1    3    3  502    0 -0.53818791389E+02 -0.32259768454E+02 -0.13267369474E+03  0.14682280696E+03  0.41800000000E+01 0.  1.
         -5    1    3    3    0  502  0.58828512532E+02  0.80323674334E+01 -0.23138421186E+03  0.23891722146E+03  0.41800000000E+01 0.  1.
        -11    1    1    2    0    0  0.84526069738E+01  0.23872495751E+02 -0.92452013621E+02  0.95857798016E+02  0.00000000000E+00 0.  1.
         11    1    1    2    0    0 -0.13462328118E+02  0.35490526903E+00  0.18796389061E+02  0.23122812931E+02  0.00000000000E+00 0. -1.
</event>
<event>
 7    1  0.6473813E-006  0.1108231E+03  0.7561462E-02  0.1259053E+00
         -1   -1    0    0    0  501 -0.00000000000E+00  0.00000000000E+00  0.12366705479E+03  0.12366705479E+03  0.00000000000E+00 0.  1.
          1   -1    0    0  501    0  0.00000000000E+00 -0.00000000000E+00 -0.10885264685E+03  0.10885264685E+03  0.00000000000E+00 0. -1.
         23    2    1    2    0    0  0.20569104055E+02  0.25458788329E+02  0.24857822659E+02  0.13166832325E+03  0.12508956014E+03 0.  0.
          5    1    3    3  502    0 -0.30094370397E+02 -0.36598327611E+02 -0.39064140010E+00  0.47568200662E+02  0.41800000000E+01 0. -1.
         -5    1    3    3    0  502  0.50663474452E+02  0.62057115941E+02  0.25248464059E+02  0.84100122591E+02  0.41800000000E+01 0. -1.
        -11    1    1    2    0    0  0.14375841090E+02  0.27138740154E+02  0.13380022790E+02  0.33499269157E+02  0.00000000000E+00 0.  1.
         11    1    1    2    0    0 -0.34944945145E+02 -0.52597528484E+02 -0.23423437509E+02  0.67352109236E+02  0.00000000000E+00 0. -1.
</event>
<event>
 7    1  0.6473813E-006  0.1395548E+03  0.7561462E-02  0.1213929E+00
         -2   -1    0    0    0  501 -0.00000000000E+00  0.00000000000E+00  0.92439359880E+03  0.92439359880E+03  0.00000000000E+00 0.  1.
          2   -1    0    0  501    0  0.00000000000E+00 -0.00000000000E+00 -0.52533579655E+02  0.52533579655E+02  0.00000000000E+00 0. -1.
         23    2    1    2    0    0  0.40279599455E+02  0.84540748404E+02  0.82289997833E+03  0.83760430647E+03  0.12508803144E+03 0.  0.
          5    1    3    3  502    0  0.32557783531E+02  0.11664067085E+03  0.58769104198E+03  0.60005273817E+03  0.41800000000E+01 0. -1.
         -5    1    3    3    0  502  0.77218159245E+01 -0.32099922443E+02  0.23520893636E+03  0.23755156830E+03  0.41800000000E+01 0. -1.
        -11    1    1    2    0    0 -0.64354032604E+02 -0.74839139299E+02  0.54546742860E+02  0.11277271585E+03  0.00000000000E+00 0. -1.
         11    1    1    2    0    0  0.24074433149E+02 -0.97016091056E+01 -0.55867020517E+01  0.26550156130E+02  0.00000000000E+00 0.  1.
</event>
<event>
 7    1  0.6473813E-006  0.2609146E+03  0.7561462E-02  0.1106595E+00
          2   -1    0    0  501    0  0.00000000000E+00  0.00000000000E+00  0.57619023152E+02  0.57619023152E+02  0.00000000000E+00 0. -1.
         -2   -1    0    0    0  501 -0.00000000000E+00 -0.00000000000E+00 -0.14375854371E+04  0.14375854371E+04  0.00000000000E+00 0.  1.
         23    2    1    2    0    0  0.55026748906E+02  0.24088399724E+03 -0.96335226893E+03  0.10023713110E+04  0.12509039888E+03 0.  0.
          5    1    3    3  502    0  0.78853072250E+02  0.12919334225E+03 -0.68378197101E+03  0.70034561679E+03  0.41800000000E+01 0.  1.
         -5    1    3    3    0  502 -0.23826323344E+02  0.11169065500E+03 -0.27957029792E+03  0.30202569423E+03  0.41800000000E+01 0.  1.
        -11    1    1    2    0    0  0.15244135539E+02 -0.64305919875E+02 -0.16320169462E+03  0.17607506390E+03  0.00000000000E+00 0.  1.
         11    1    1    2    0    0 -0.70270884445E+02 -0.17657807737E+03 -0.25341245042E+03  0.31675808535E+03  0.00000000000E+00 0. -1.
</event>
<event>
 7    1  0.6473813E-006  0.1399619E+03  0.7561462E-02  0.1213380E+00
          2   -1    0    0  501    0  0.00000000000E+00  0.00000000000E+00  0.84348107120E+02  0.84348107120E+02  0.00000000000E+00 0. -1.
         -2   -1    0    0    0  501 -0.00000000000E+00 -0.00000000000E+00 -0.28643322532E+03  0.28643322532E+03  0.00000000000E+00 0.  1.
         23    2    1    2    0    0  0.78862439596E+02 -0.70379531687E+02 -0.13673737110E+03  0.21334867547E+03  0.12509190945E+03 0.  0.
          5    1    3    3  502    0  0.11082927189E+03 -0.42736554410E+02 -0.83538017497E+02  0.14527771115E+03  0.41800000000E+01 0. -1.
         -5    1    3    3    0  502 -0.31966832292E+02 -0.27642977278E+02 -0.53199353605E+02  0.68070964321E+02  0.41800000000E+01 0. -1.
        -11    1    1    2    0    0 -0.50737088116E+02  0.74538663393E+02 -0.84159525499E+02  0.12334135634E+03  0.00000000000E+00 0.  1.
         11    1    1    2    0    0 -0.28125351480E+02 -0.41591317057E+01  0.18811778397E+02  0.34091300634E+02  0.00000000000E+00 0. -1.
</event>
<event>
 6    1  0.6473813E-006  0.1202015E+03  0.7561462E-02  0.1242765E+00
         -2   -1    0    0    0  501 -0.00000000000E+00  0.00000000000E+00  0.19612000424E+02  0.19612000424E+02  0.00000000000E+00 0.  1.
          2   -1    0    0  501    0  0.00000000000E+00 -0.00000000000E+00 -0.90157203888E+03  0.90157203888E+03  0.00000000000E+00 0. -1.
          5    1    1    2  502    0 -0.50250093963E+02 -0.17046507504E+02 -0.71128408517E+02  0.88839058187E+02  0.41800000000E+01 0. -1.
         -5    1    1    2    0  502  0.79382858097E+02  0.20545577240E+02 -0.33112404739E+03  0.34115152947E+03  0.41800000000E+01 0.  1.
        -11    1    1    2    0    0 -0.36826224801E+02 -0.47668313032E+02 -0.29898617472E+03  0.30499372382E+03  0.00000000000E+00 0.  1.
         11    1    1    2    0    0  0.76934606675E+01  0.44169243296E+02 -0.18072140784E+03  0.18619972782E+03  0.00000000000E+00 0. -1.
</event>
<event>
 7    1  0.6473813E-006  0.2464013E+03  0.7561462E-02  0.1115600E+00
          2   -1    0    0  501    0  0.00000000000E+00  0.00000000000E+00  0.58722342149E+03  0.58722342149E+03  0.00000000000E+00 0. -1.
         -2   -1    0    0    0  501 -0.00000000000E+00 -0.00000000000E+00 -0.17266249719E+03  0.17266249719E+03  0.00000000000E+00 0.  1.
         23    2    1    2    0    0 -0.19788505787E+02 -0.23392727774E+03 -0.97652009476E+01  0.26618898108E+03  0.12509060024E+03 0.  0.
          5    1    3    3  502    0 -0.26543557686E+01  0.54840690512E+01 -0.24585586872E+02  0.25671854233E+02  0.41800000000E+01 0.  1.
         -5    1    3    3    0  502 -0.17134150018E+02 -0.23941134679E+03  0.14820385925E+02  0.24051712685E+03  0.41800000000E+01 0.  1.
        -11    1    1    2    0    0  0.33569006004E+02  0.46129075096E+02  0.55553582841E+02  0.79630209718E+02  0.00000000000E+00 0.  1.
         11    1    1    2    0    0 -0.13780500217E+02  0.18779820264E+03  0.36877254241E+03  0.41406672788E+03  0.00000000000E+00 0. -1.
</event>
<event>
 7    1  0.6473813E-006  0.1508216E+03  0.7561462E-02  0.1199467E+00
         -2   -1    0    0    0  501 -0.00000000000E+00  0.00000000000E+00  0.87993225964E+02  0.87993225964E+02  0.00000000000E+00 0.  1.
          2   -1    0    0  501    0  0.00000000000E+00 -0.00000000000E+00 -0.34417895241E+03  0.34417895241E+03  0.00000000000E+00 0. -1.
         23    2    1    2    0    0  0.15083501813E+01  0.12961808735E+03 -0.86273905655E+02  0.19975384954E+03  0.12512110102E+03 0.  0.
          5    1    3    3  502    0  0.34502183100E+01 -0.12901524681E+02  0.18218236245E+02  0.22972372045E+02  0.41800000000E+01 0.  1.
         -5    1    3    3    0  502 -0.19418681287E+01  0.14251961203E+03 -0.10449214190E+03  0.17678147750E+03  0.41800000000E+01 0.  1.
        -11    1    1    2    0    0  0.26545432520E+02 -0.24038402094E+02 -0.73474657088E+01  0.36558036261E+02  0.00000000000E+00 0.  1.
         11    1    1    2    0    0 -0.28053782702E+02 -0.10557968526E+03 -0.16256435508E+03  0.19586029257E+03  0.00000000000E+00 0. -1.
</event>
<event>
 6    1  0.6473813E-006  0.1494094E+03  0.7561462E-02  0.1201201E+00
          1   -1    0    0  501    0  0.00000000000E+00  0.00000000000E+00  0.28326047856E+03  0.28326047856E+03  0.00000000000E+00 0. -1.
         -1   -1    0    0    0  501 -0.00000000000E+00 -0.00000000000E+00 -0.12434933233E+03  0.12434933233E+03  0.00000000000E+00 0.  1.
          5    1    1    2  502    0 -0.66524779686E+02 -0.74857711305E+01 -0.44364850975E+01  0.67221558162E+02  0.41800000000E+01 0. -1.
         -5    1    1    2    0  502  0.88630486469E+02  0.71512903296E+02 -0.26461257060E+02  0.11699200398E+03  0.41800000000E+01 0.  1.
        -11    1    1    2    0    0 -0.53658125355E+02 -0.90791255576E+01  0.89919725071E+02  0.10510557499E+03  0.00000000000E+00 0. -1.
         11    1    1    2    0    0  0.31552418573E+02 -0.54948006608E+02  0.99889163318E+02  0.11829067375E+03  0.00000000000E+00 0.  1.
</event>
<event>
 7    1  0.6473813E-006  0.1137401E+03  0.7561462E-02  0.1253796E+00
          4   -1    0    0  501    0  0.00000000000E+00  0.00000000000E+00  0.10858790472E+04  0.10858790472E+04  0.00000000000E+00 0. -1.
         -4   -1    0    0    0  501 -0.00000000000E+00 -0.00000000000E+00 -0.19922292077E+02  0.19922292077E+02  0.00000000000E+00 0.  1.
         23    2    1    2    0    0  0.63621030505E+02  0.70474061201E+02  0.47610233522E+03  0.50133329829E+03  0.12508962209E+03 0.  0.
          5    1    3    3  502    0  0.13885887178E+02  0.19262504901E+02  0.38387005806E+03  0.38462651473E+03  0.41800000000E+01 0. -1.
         -5    1    3    3    0  502  0.49735143327E+02  0.51211556300E+02  0.92232277153E+02  0.11670678356E+03  0.41800000000E+01 0. -1.
        -11    1    1    2    0    0 -0.72069483449E+02 -0.87195928648E+02  0.49219096207E+03  0.50502384455E+03  0.00000000000E+00 0.  1.
         11    1    1    2    0    0  0.84484529446E+01  0.16721867447E+02  0.97663457836E+02  0.99444196435E+02  0.00000000000E+00 0. -1.
</event>
<event>
 7    1  0.6473813E-006  0.9785891E+02  0.7561462E-02  0.1284864E+00
          3   -1    0    0  501    0  0.00000000000E+00  0.00000000000E+00  0.31999163738E+03  0.31999163738E+03  0.00000000000E+00 0. -1.
         -3   -1    0    0    0  501 -0.00000000000E+00 -0.00000000000E+00 -0.36215236042E+02  0.36215236042E+02  0.00000000000E+00 0.  1.
         23    2    1    2    0    0 -0.19805859093E+02 -0.12998964544E+02  0.14758151042E+03  0.19064357369E+03  0.11833606736E+03 0.  0.
          5    1    3    3  502    0 -0.63040742880E+02  0.19369886746E+02  0.73031931137E+02  0.98490929232E+02  0.41800000000E+01 0. -1.
         -5    1    3    3    0  502  0.43234883787E+02 -0.32368851290E+02  0.74549579278E+02  0.92152644457E+02  0.41800000000E+01 0.  1.
        -11    1    1    2    0    0 -0.57617412836E+01  0.38750769379E+02  0.11923680339E+03  0.12550790841E+03  0.00000000000E+00 0. -1.
         11    1    1    2    0    0  0.25567600377E+02 -0.25751804835E+02  0.16958087530E+02  0.40055391322E+02  0.00000000000E+00 0.  1.
</event>
<event>
 7    1  0.6473813E-006  0.1160829E+03  0.7561462E-02  0.1249703E+00
          2   -1    0    0  501    0  0.00000000000E+00  0.00000000000E+00  0.12762209729E+03  0.12762209729E+03  0.00000000000E+00 0. -1.
         -2   -1    0    0    0  501 -0.00000000000E+00 -0.00000000000E+00 -0.41095068353E+03  0.41095068353E+03  0.00000000000E+00 0.  1.
         23    2    1    2    0    0  0.38552964654E+02 -0.91888544332E+02 -0.35314497628E+03  0.38767095847E+03  0.12509021587E+03 0.  0.
          5    1    3    3  502    0  0.11409554622E+02 -0.16907504421E+02 -0.27552318233E+03  0.27630877301E+03  0.41800000000E+01 0.  1.
         -5    1    3    3    0  502  0.27143410031E+02 -0.74981039910E+02 -0.77621793950E+02  0.11136218546E+03  0.41800000000E+01 0.  1.
        -11    1    1    2    0    0 -0.60962861633E+02  0.34876685403E+02  0.51071911401E+02  0.86840047314E+02  0.00000000000E+00 0.  1.
         11    1    1    2    0    0  0.22409896979E+02  0.57011858928E+02  0.18744478639E+02  0.64061775034E+02  0.00000000000E+00 0. -1.
</event>
<event>
 7    1  0.6473813E-006  0.1728847E+03  0.7561462E-02  0.1174873E+00
          1   -1    0    0  501    0  0.00000000000E+00  0.00000000000E+00  0.46389716508E+03  0.46389716508E+03  0.00000000000E+00 0. -1.
         -1   -1    0    0    0  501 -0.00000000000E+00 -0.00000000000E+00 -0.82279830243E+02  0.82279830243E+02  0.00000000000E+00 0.  1.
         23    2    1    2    0    0 -0.40359103059E+02  0.14479447019E+03  0.11830531777E+03  0.22855129499E+03  0.12508097551E+03 0.  0.
          5    1    3    3  502    0  0.14032957786E+02  0.12763807568E+01 -0.18001379651E+02  0.23239516376E+02  0.41800000000E+01 0.  1.
         -5    1    3    3    0  502 -0.54392060845E+02  0.14351808943E+03  0.13630669742E+03  0.20531177861E+03  0.41800000000E+01 0.  1.
        -11    1    1    2    0    0 -0.30874755406E+02 -0.53087447774E+02  0.86162119152E+02  0.10580849876E+03  0.00000000000E+00 0.  1.
         11    1    1    2    0    0  0.71233858465E+02 -0.91707022411E+02  0.17714989791E+03  0.21181720157E+03  0.00000000000E+00 0. -1.
</event>
<event>
 7    1  0.6473813E-006  0.7621005E+02  0.7561462E-02  0.1340164E+00
         -1   -1    0    0    0  501 -0.00000000000E+00  0.00000000000E+00  0.59333590929E+02  0.59333590929E+02  0.00000000000E+00 0.  1.
          1   -1    0    0  501    0  0.00000000000E+00 -0.00000000000E+00 -0.21736327030E+03  0.21736327030E+03  0.00000000000E+00 0. -1.
         23    2    1    2    0    0 -0.20992577485E+02  0.95431502588E+01 -0.56310198824E+02  0.13910473869E+03  0.12509008677E+03 0.  0.
          5    1    3    3  502    0 -0.41453402923E+02  0.12623479731E+02  0.28284836634E+02  0.51915712822E+02  0.41800000000E+01 0.  1.
         -5    1    3    3    0  502  0.20460825437E+02 -0.30803294726E+01 -0.84595035457E+02  0.87189025865E+02  0.41800000000E+01 0.  1.
        -11    1    1    2    0    0 -0.22076480162E+02 -0.32254712005E+02 -0.23957838975E+02  0.45844470455E+02  0.00000000000E+00 0.  1.
         11    1    1    2    0    0  0.43069057647E+02  0.22711561747E+02 -0.77761641567E+02  0.91747652083E+02  0.00000000000E+00 0. -1.
</event>
<event>
 7    1  0.6473813E-006  0.3161748E+03  0.7561462E-02  0.1077423E+00
         -1   -1    0    0    0  501 -0.00000000000E+00  0.00000000000E+00  0.17606157995E+03  0.17606157995E+03  0.00000000000E+00 0.  1.
          1   -1    0    0  501    0  0.00000000000E+00 -0.00000000000E+00 -0.57615802081E+03  0.57615802081E+03  0.00000000000E+00 0. -1.
         23    2    1    2    0    0 -0.10352035955E+03 -0.27851054109E+03 -0.18338370357E+03  0.37089398785E+03  0.12509269021E+03 0.  0.
          5    1    3    3  502    0  0.14928473099E+02 -0.13618270819E+03 -0.82751645267E+02  0.16010589157E+03  0.41800000000E+01 0.  1.
         -5    1    3    3    0  502 -0.11844883265E+03 -0.14232783290E+03 -0.10063205830E+03  0.21078809628E+03  0.41800000000E+01 0.  1.
        -11    1    1    2    0    0  0.79311472015E+02  0.89778618842E+02 -0.11270030927E+03  0.16447452600E+03  0.00000000000E+00 0. -1.
         11    1    1    2    0    0  0.24208887538E+02  0.18873192225E+03 -0.10401242802E+03  0.21685108691E+03  0.00000000000E+00 0.  1.
</event>
<event>
 7    1  0.6473813E-006  0.1166763E+03  0.7561462E-02  0.1248683E+00
          1   -1    0    0  501    0  0.00000000000E+00  0.00000000000E+00  0.69780622732E+03  0.69780622732E+03  0.00000000000E+00 0. -1.
         -1   -1    0    0    0  501 -0.00000000000E+00 -0.00000000000E+00 -0.42969221303E+02  0.42969221303E+02  0.00000000000E+00 0.  1.
         23    2    1    2    0    0  0.53936569980E+02 -0.36275936810E+02  0.69587910897E+02  0.14550510402E+03  0.11001891101E+03 0.  0.
          5    1    3    3  502    0 -0.32805780775E+02 -0.14568755003E+02  0.84748823989E+01  0.37118242230E+02  0.41800000000E+01 0. -1.
         -5    1    3    3    0  502  0.86742350755E+02 -0.21707181807E+02  0.61113028498E+02  0.10838686179E+03  0.41800000000E+01 0.  1.
        -11    1    1    2    0    0 -0.77610451292E+02  0.30013390357E+02  0.48407147563E+03  0.49117143572E+03  0.00000000000E+00 0. -1.
         11    1    1    2    0    0  0.23673881312E+02  0.62625464522E+01  0.10117761949E+03  0.10409890888E+03  0.00000000000E+00 0.  1.
</event>
<event>
 7    1  0.6473813E-006  0.1205120E+03  0.7561462E-02  0.1242255E+00
         -3   -1    0    0    0  501 -0.00000000000E+00  0.00000000000E+00  0.11505576162E+04  0.11505576162E+04  0.00000000000E+00 0.  1.
          3   -1    0    0  501    0  0.00000000000E+00 -0.00000000000E+00 -0.14473096305E+02  0.14473096305E+02  0.00000000000E+00 0. -1.
         23    2    1    2    0    0  0.35757790932E+02  0.42005009475E+02  0.80844660759E+03  0.81992471233E+03  0.12509027192E+03 0.  0.
          5    1    3    3  502    0  0.70199796977E+02  0.63172792367E+02  0.61814603047E+03  0.62533255199E+03  0.41800000000E+01 0. -1.
         -5    1    3    3    0  502 -0.34442006045E+02 -0.21167782892E+02  0.19030057712E+03  0.19459216034E+03  0.41800000000E+01 0. -1.
        -11    1    1    2    0    0 -0.61411024246E+02 -0.49770555469E+02  0.27353902785E+03  0.28473149079E+03  0.00000000000E+00 0.  1.
         11    1    1    2    0    0  0.25653233314E+02  0.77655459937E+01  0.54098884424E+02  0.60374509356E+02  0.00000000000E+00 0. -1.
</event>
<event>
 7    1  0.6473813E-006  0.1124206E+03  0.7561462E-02  0.1256152E+00
          2   -1    0    0  501    0  0.00000000000E+00  0.00000000000E+00  0.88160378312E+03  0.88160378312E+03  0.00000000000E+00 0. -1.
         -2   -1    0    0    0  501 -0.00000000000E+00 -0.00000000000E+00 -0.20900651984E+02  0.20900651984E+02  0.00000000000E+00 0.  1.
         23    2    1    2    0    0 -0.66637852561E+02  0.47243254669E+02  0.49825883310E+03  0.52017511973E+03  0.12509101453E+03 0.  0.
          5    1    3    3  502    0 -0.90902789586E+02  0.53395137156E+02  0.26034760632E+03  0.28091405508E+03  0.41800000000E+01 0.  1.
         -5    1    3    3    0  502  0.24264937025E+02 -0.61518824874E+01  0.23791122678E+03  0.23926106465E+03  0.41800000000E+01 0.  1.
        -11    1    1    2    0    0  0.39152860670E+02  0.16712563514E+00  0.42742158249E+02  0.57964355611E+02  0.00000000000E+00 0. -1.
         11    1    1    2    0    0  0.27484991892E+02 -0.47410380304E+02  0.31970213978E+03  0.32436495976E+03  0.00000000000E+00 0.  1.
</event>
<event>
 7    1  0.6473813E-006  0.1087244E+03  0.7561462E-02  0.1262951E+00
         -2   -1    0    0    0  501 -0.00000000000E+00  0.00000000000E+00  0.27365512923E+02  0.27365512923E+02  0.00000000000E+00 0.  1.
          2   -1    0    0  501    0  0.00000000000E+00 -0.00000000000E+00 -0.51377646615E+03  0.51377646615E+03  0.00000000000E+00 0. -1.
         23    2    1    2    0    0 -0.18130279620E+02  0.10842014070E+02 -0.18761419201E+03  0.22647999163E+03  0.12509134764E+03 0.  0.
          5    1    3    3  502    0  0.41170279014E+02 -0.26256558486E+02 -0.40682554554E+02  0.63694123611E+02  0.41800000000E+01 0.  1.
         -5    1    3    3    0  502 -0.59300558634E+02  0.37098572555E+02 -0.14693163746E+03  0.16278586802E+03  0.41800000000E+01 0.  1.
        -11    1    1    2    0    0  0.81728066696E+01 -0.53724554137E+02 -0.15302912062E+03  0.16239160768E+03  0.00000000000E+00 0. -1.
         11    1    1    2    0    0  0.99574729504E+01  0.42882540067E+02 -0.14576764059E+03  0.15227037976E+03  0.00000000000E+00 0.  1.
</event>
<event>
 7    1  0.6473813E-006  0.9703925E+02  0.7561462E-02  0.1286648E+00
         -3   -1    0    0    0  501 -0.00000000000E+00  0.00000000000E+00  0.84407377374E+02  0.84407377374E+02  0.00000000000E+00 0.  1.
          3   -1    0    0  501    0  0.00000000000E+00 -0.00000000000E+00 -0.24533625033E+03  0.24533625033E+03  0.00000000000E+00 0. -1.
         23    2    1    2    0    0 -0.10792214686E+02  0.27583853318E+02  0.16631394049E+02  0.12962867024E+03  0.12509855322E+03 0.  0.
          5    1    3    3  502    0 -0.24324666364E+02  0.61863180531E+02 -0.27432192853E+02  0.72032909866E+02  0.41800000000E+01 0. -1.
         -5    1    3    3    0  502  0.13532451678E+02 -0.34279327213E+02  0.44063586901E+02  0.57595760375E+02  0.41800000000E+01 0. -1.
        -11    1    1    2    0    0 -0.34339738373E+02 -0.29413183878E+02 -0.68565455599E+02  0.82131447807E+02  0.00000000000E+00 0.  1.
         11    1    1    2    0    0  0.45131953059E+02  0.18293305604E+01 -0.10899481141E+03  0.11798350966E+03  0.00000000000E+00 0. -1.
</event>
<event>
 7    1  0.6473813E-006  0.1723680E+03  0.7561462E-02  0.1175401E+00
         -2   -1    0    0    0  501 -0.00000000000E+00  0.00000000000E+00  0.42770615525E+03  0.42770615525E+03  0.00000000000E+00 0.  1.
          2   -1    0    0  501    0  0.00000000000E+00 -0.00000000000E+00 -0.94534626968E+02  0.94534626968E+02  0.00000000000E+00 0. -1.
         23    2    1    2    0    0  0.76271332062E+02 -0.14931453831E+03  0.14873980549E+03  0.25667560140E+03  0.12508671860E+03 0.  0.
          5    1    3    3  502    0  0.96165586720E+01 -0.65402369589E+02 -0.80405723604E+01  0.66723843957E+02  0.41800000000E+01 0. -1.
         -5    1    3    3    0  502  0.66654773390E+02 -0.83912168721E+02  0.15678037785E+03  0.18995175744E+03  0.41800000000E+01 0. -1.
        -11    1    1    2    0    0 -0.61537486033E+02  0.83015340761E+02  0.16540912949E+03  0.19503484075E+03  0.00000000000E+00 0.  1.
         11    1    1    2    0    0 -0.14733846029E+02  0.66299197549E+02  0.19022593303E+02  0.70530340070E+02  0.00000000000E+00 0. -1.
</event>
<event>
 7    1  0.6473813E-006  0.1743365E+03  0.7561462E-02  0.1173400E+00
          2   -1    0    0  501    0  0.00000000000E+00  0.00000000000E+00  0.10937058985E+03  0.10937058985E+03  0.00000000000E+00 0.  1.
         -2   -1    0    0    0  501 -0.00000000000E+00 -0.00000000000E+00 -0.29529973764E+03  0.29529973764E+03  0.00000000000E+00 0. -1.
         23    2    1    2    0    0 -0.27640133103E+02 -0.14112263244E+03 -0.10342362091E+03  0.21685036362E+03  0.12509220797E+03 0.  0.
          5    1    3    3  502    0 -0.45063596873E+02 -0.15458692632E+03 -0.67801175448E+02  0.17476360418E+03  0.41800000000E+01 0. -1.
         -5    1    3    3    0  502  0.17423463770E+02  0.13464293881E+02 -0.35622445462E+02  0.42086759440E+02  0.41800000000E+01 0. -1.
        -11    1    1    2    0    0 -0.17511010936E+02  0.10743066913E+03 -0.72016009846E+02  0.13051547743E+03  0.00000000000E+00 0. -1.
         11    1    1    2    0    0  0.45151144039E+02  0.33691963308E+02 -0.10489517030E+02  0.57304486449E+02  0.00000000000E+00 0.  1.
</event>
<event>
 7    1  0.6473813E-006  0.1305650E+03  0.7561462E-02  0.1226620E+00
          1   -1    0    0  501    0  0.00000000000E+00  0.00000000000E+00  0.17245504592E+02  0.17245504592E+02  0.00000000000E+00 0. -1.
         -1   -1    0    0    0  501 -0.00000000000E+00 -0.00000000000E+00 -0.10542328384E+04  0.10542328384E+04  0.00000000000E+00 0.  1.
         23    2    1    2    0    0 -0.40825406452E+02 -0.65555565252E+02 -0.65777009448E+03  0.67399893161E+03  0.12509523041E+03 0.  0.
          5    1    3    3  502    0 -0.58206516175E+02 -0.95058631155E+02 -0.53310693045E+03  0.54465090982E+03  0.41800000000E+01 0.  1.
         -5    1    3    3    0  502  0.17381109723E+02  0.29503065904E+02 -0.12466316403E+03  0.12934802179E+03  0.41800000000E+01 0.  1.
        -11    1    1    2    0    0  0.21741111642E+02  0.85065334152E+02 -0.32672292909E+03  0.33831443865E+03  0.00000000000E+00 0.  1.
         11    1    1    2    0    0  0.19084294810E+02 -0.19509768900E+02 -0.52494310286E+02  0.59164972774E+02  0.00000000000E+00 0. -1.
</event>
<event>
 7    1  0.1114207E-005  0.3064238E+03  0.7561462E-02  0.1082073E+00
          1   -1    0    0  501    0  0.00000000000E+00  0.00000000000E+00  0.10740085211E+04  0.10740085211E+04  0.00000000000E+00 0. -1.
         -1   -1    0    0    0  501 -0.00000000000E+00 -0.00000000000E+00 -0.96001705531E+02  0.96001705531E+02  0.00000000000E+00 0.  1.
         23    2    1    2    0    0  0.29707412206E+03 -0.52080577543E+02  0.47246833452E+03  0.57431589420E+03  0.12508796364E+03 0.  0.
          5    1    3    3  502    0  0.48806594980E+02  0.11740897929E+02  0.19870201266E+02  0.54150066446E+02  0.41800000000E+01 0. -1.
         -5    1    3    3    0  502  0.24826752708E+03 -0.63821475473E+02  0.45259813326E+03  0.52016582775E+03  0.41800000000E+01 0. -1.
        -11    1    1    2    0    0 -0.19945985098E+03  0.97332528127E+01  0.25800172436E+03  0.32625734955E+03  0.00000000000E+00 0.  1.
         11    1    1    2    0    0 -0.97614271078E+02  0.42347324731E+02  0.24753675665E+03  0.26943698284E+03  0.00000000000E+00 0. -1.
</event>
<event>
 7    1  0.6473813E-006  0.2722605E+03  0.7561462E-02  0.1099993E+00
          1   -1    0    0  501    0  0.00000000000E+00  0.00000000000E+00  0.20005285922E+03  0.20005285922E+03  0.00000000000E+00 0. -1.
         -1   -1    0    0    0  501 -0.00000000000E+00 -0.00000000000E+00 -0.43576704163E+03  0.43576704163E+03  0.00000000000E+00 0.  1.
         23    2    1    2    0    0  0.19879856862E+03  0.15666337734E+03 -0.23364691383E+03  0.36647277380E+03  0.12508848431E+03 0.  0.
          5    1    3    3  502    0  0.56085574252E+02 -0.14779388154E+02 -0.35870387804E+02  0.68324073903E+02  0.41800000000E+01 0. -1.
         -5    1    3    3    0  502  0.14271299437E+03  0.17144276549E+03 -0.19777652603E+03  0.29814869989E+03  0.41800000000E+01 0. -1.
        -11    1    1    2    0    0 -0.55694732355E+02 -0.68998202995E+01  0.23086173228E+02  0.60683458426E+02  0.00000000000E+00 0.  1.
         11    1    1    2    0    0 -0.14310383626E+03 -0.14976355704E+03 -0.25153441798E+02  0.20866366863E+03  0.00000000000E+00 0. -1.
</event>
<event>
 7    1  0.6473813E-006  0.1027879E+03  0.7561462E-02  0.1274540E+00
         -2   -1    0    0    0  501 -0.00000000000E+00  0.00000000000E+00  0.34599849861E+02  0.34599849861E+02  0.00000000000E+00 0.  1.
          2   -1    0    0  501    0  0.00000000000E+00 -0.00000000000E+00 -0.41627909862E+03  0.41627909862E+03  0.00000000000E+00 0. -1.
         23    2    1    2    0    0 -0.85929820702E+01 -0.34639628833E+02 -0.15556875719E+03  0.20279030583E+03  0.12509407141E+03 0.  0.
          5    1    3    3  502    0 -0.54076671284E+02 -0.35709198768E+02 -0.14033230757E+03  0.15462878840E+03  0.41800000000E+01 0.  1.
         -5    1    3    3    0  502  0.45483689214E+02  0.10695699354E+01 -0.15236449611E+02  0.48161517430E+02  0.41800000000E+01 0.  1.
        -11    1    1    2    0    0 -0.37303063722E+02 -0.24102932787E+00 -0.13675736136E+03  0.14175384490E+03  0.00000000000E+00 0.  1.
         11    1    1    2    0    0  0.45896045792E+02  0.34880658161E+02 -0.89353130210E+02  0.10633479774E+03  0.00000000000E+00 0. -1.
</event>
<event>
 7    1  0.6473813E-006  0.1254675E+03  0.7561462E-02  0.1234341E+00
         -2   -1    0    0    0  501 -0.00000000000E+00  0.00000000000E+00  0.13647290351E+03  0.13647290351E+03  0.00000000000E+00 0.  1.
          2   -1    0    0  501    0  0.00000000000E+00 -0.00000000000E+00 -0.21928684880E+03  0.21928684880E+03  0.00000000000E+00 0. -1.
         23    2    1    2    0    0 -0.29882542707E+02  0.86264569003E+02  0.60075381845E+02  0.16610560347E+03  0.12508987879E+03 0.  0.
          5    1    3    3  502    0  0.20970100902E+02  0.90433784070E+02  0.66836864637E+02  0.11446682186E+03  0.41800000000E+01 0. -1.
         -5    1    3    3    0  502 -0.50852643609E+02 -0.41692150670E+01 -0.67614827924E+01  0.51638781607E+02  0.41800000000E+01 0. -1.
        -11    1    1    2    0    0  0.58527433785E+01 -0.82241128664E+02 -0.56640419910E+02  0.10002997059E+03  0.00000000000E+00 0.  1.
         11    1    1    2    0    0  0.24029799328E+02 -0.40234403390E+01 -0.86248907232E+02  0.89624178248E+02  0.00000000000E+00 0. -1.
</event>
<event>
 7    1  0.6473813E-006  0.1231642E+03  0.7561462E-02  0.1237966E+00
         -2   -1    0    0    0  501 -0.00000000000E+00  0.00000000000E+00  0.22891041361E+02  0.22891041361E+02  0.00000000000E+00 0.  1.
          2   -1    0    0  501    0  0.00000000000E+00 -0.00000000000E+00 -0.11731848537E+04  0.11731848537E+04  0.00000000000E+00 0. -1.
         23    2    1    2    0    0  0.78314029635E+02  0.91791438367E+02 -0.67062434433E+03  0.69277882118E+03  0.12508688367E+03 0.  0.
          5    1    3    3  502    0  0.14551327523E+02  0.22246314743E+02 -0.15854289555E+02  0.31232523908E+02  0.41800000000E+01 0. -1.
         -5    1    3    3    0  502  0.63762702113E+02  0.69545123623E+02 -0.65477005478E+03  0.66154629727E+03  0.41800000000E+01 0. -1.
        -11    1    1    2    0    0  0.91775975453E+00 -0.13690395750E+02 -0.33050468762E+01  0.14113559211E+02  0.00000000000E+00 0.  1.
         11    1    1    2    0    0 -0.79231789390E+02 -0.78101042617E+02 -0.47636442114E+03  0.48918351468E+03  0.00000000000E+00 0. -1.
</event>
<event>
 7    1  0.6473813E-006  0.1123268E+03  0.7561462E-02  0.1256321E+00
         -1   -1    0    0    0  501 -0.00000000000E+00  0.00000000000E+00  0.10970138741E+03  0.10970138741E+03  0.00000000000E+00 0.  1.
          1   -1    0    0  501    0  0.00000000000E+00 -0.00000000000E+00 -0.12997862164E+03  0.12997862164E+03  0.00000000000E+00 0. -1.
         23    2    1    2    0    0 -0.33980259932E+02 -0.11815374489E+02  0.21638612402E+02  0.13194871846E+03  0.12509186071E+03 0.  0.
          5    1    3    3  502    0 -0.76293040930E+01 -0.67638263025E+02  0.13872064737E+02  0.69592007343E+02  0.41800000000E+01 0. -1.
         -5    1    3    3    0  502 -0.26350955839E+02  0.55822888536E+02  0.77665476649E+01  0.62356711112E+02  0.41800000000E+01 0. -1.
        -11    1    1    2    0    0 -0.69530749216E+01  0.42729504091E+02 -0.35598576698E+02  0.56048322309E+02  0.00000000000E+00 0.  1.
         11    1    1    2    0    0  0.40933334853E+02 -0.30914129603E+02 -0.63172699396E+01  0.51682968285E+02  0.00000000000E+00 0. -1.
</event>
<event>
 7    1  0.6473813E-006  0.9012851E+02  0.7561462E-02  0.1302541E+00
         -3   -1    0    0    0  501 -0.00000000000E+00  0.00000000000E+00  0.12402629961E+03  0.12402629961E+03  0.00000000000E+00 0.  1.
          3   -1    0    0  501    0  0.00000000000E+00 -0.00000000000E+00 -0.13303304764E+03  0.13303304764E+03  0.00000000000E+00 0. -1.
         23    2    1    2    0    0  0.55278256477E+02  0.78540403822E+01  0.13528839037E+02  0.13765512153E+03  0.12509409022E+03 0.  0.
          5    1    3    3  502    0  0.75727109717E+02 -0.28201967084E+02  0.37939525076E+02  0.89369044173E+02  0.41800000000E+01 0.  1.
         -5    1    3    3    0  502 -0.20448853240E+02  0.36056007466E+02 -0.24410686039E+02  0.48286077353E+02  0.41800000000E+01 0.  1.
        -11    1    1    2    0    0 -0.35007625779E+02  0.21523267402E+01  0.39827878897E+02  0.53070013290E+02  0.00000000000E+00 0.  1.
         11    1    1    2    0    0 -0.20270630698E+02 -0.10006367122E+02 -0.62363465965E+02  0.66334212432E+02  0.00000000000E+00 0. -1.
</event>
<event>
 7    1  0.6473813E-006  0.1368334E+03  0.7561462E-02  0.1217654E+00
          2   -1    0    0  501    0  0.00000000000E+00  0.00000000000E+00  0.42884622945E+03  0.42884622945E+03  0.00000000000E+00 0. -1.
         -2   -1    0    0    0  501 -0.00000000000E+00 -0.00000000000E+00 -0.26093712504E+03  0.26093712504E+03  0.00000000000E+00 0.  1.
         23    2    1    2    0    0 -0.21316623539E+02 -0.91242361617E+02 -0.22661409507E+03  0.27426448623E+03  0.12283115783E+03 0.  0.
          5    1    3    3  502    0  0.40580450376E+02 -0.66816083377E+02 -0.74012576769E+02  0.10773344824E+03  0.41800000000E+01 0. -1.
         -5    1    3    3    0  502 -0.61897073915E+02 -0.24426278240E+02 -0.15260151830E+03  0.16653103799E+03  0.41800000000E+01 0.  1.
        -11    1    1    2    0    0  0.50987122121E+02  0.83841862858E+02  0.26945991436E+03  0.28677132011E+03  0.00000000000E+00 0. -1.
         11    1    1    2    0    0 -0.29670498582E+02  0.74004987596E+01  0.12506328511E+03  0.12874754814E+03  0.00000000000E+00 0.  1.
</event>
<event>
 7    1  0.6473813E-006  0.1063563E+03  0.7561462E-02  0.1267470E+00
          2   -1    0    0  501    0  0.00000000000E+00  0.00000000000E+00  0.11549005535E+03  0.11549005535E+03  0.00000000000E+00 0.  1.
         -2   -1    0    0    0  501 -0.00000000000E+00 -0.00000000000E+00 -0.12534549618E+03  0.12534549618E+03  0.00000000000E+00 0. -1.
         23    2    1    2    0    0 -0.29528244492E+01 -0.30037603688E+02 -0.48048620485E+02  0.13735107104E+03  0.12508265258E+03 0.  0.
          5    1    3    3  502    0 -0.50090086203E+02  0.14942398888E+02 -0.49408521984E+02  0.72048361987E+02  0.41800000000E+01 0.  1.
         -5    1    3    3    0  502  0.47137261754E+02 -0.44980002576E+02  0.13599014991E+01  0.65302709052E+02  0.41800000000E+01 0.  1.
        -11    1    1    2    0    0  0.26687906160E+02 -0.24046202184E+02  0.66741243394E+01  0.36537762800E+02  0.00000000000E+00 0.  1.
         11    1    1    2    0    0 -0.23735081711E+02  0.54083805873E+02  0.31519055315E+02  0.66946717690E+02  0.00000000000E+00 0. -1.
</event>
<event>
 7    1  0.6473813E-006  0.2269281E+03  0.7561462E-02  0.1128821E+00
         -2   -1    0    0    0  501 -0.00000000000E+00  0.00000000000E+00  0.28642001857E+03  0.28642001857E+03  0.00000000000E+00 0.  1.
          2   -1    0    0  501    0  0.00000000000E+00 -0.00000000000E+00 -0.20302085287E+03  0.20302085287E+03  0.00000000000E+00 0. -1.
         23    2    1    2    0    0  0.11499912720E+03  0.17331826105E+03  0.97229340771E+02  0.26146695624E+03  0.12508959040E+03 0.  0.
          5    1    3    3  502    0  0.13629692568E+03  0.11959745603E+03  0.91765809956E+02  0.20327036114E+03  0.41800000000E+01 0.  1.
         -5    1    3    3    0  502 -0.21297798485E+02  0.53720805024E+02  0.54635308144E+01  0.58196595104E+02  0.41800000000E+01 0.  1.
        -11    1    1    2    0    0 -0.94609565144E+02 -0.96820870791E+02  0.28294710601E+02  0.13829620922E+03  0.00000000000E+00 0. -1.
         11    1    1    2    0    0 -0.20389562055E+02 -0.76497390261E+02 -0.42124885674E+02  0.89677705984E+02  0.00000000000E+00 0.  1.
</event>
<event>
 7    1  0.6473813E-006  0.1263966E+03  0.7561462E-02  0.1232903E+00
         -1   -1    0    0    0  501 -0.00000000000E+00  0.00000000000E+00  0.18151348968E+03  0.18151348968E+03  0.00000000000E+00 0.  1.
          1   -1    0    0  501    0  0.00000000000E+00 -0.00000000000E+00 -0.11914702093E+03  0.11914702093E+03  0.00000000000E+00 0. -1.
         23    2    1    2    0    0  0.12145537887E+01  0.93294259347E+02  0.66704230041E+02  0.16970802571E+03  0.12508423448E+03 0.  0.
          5    1    3    3  502    0 -0.33407235521E+02  0.16074352529E+02 -0.24956080608E+02  0.44885482661E+02  0.41800000000E+01 0.  1.
         -5    1    3    3    0  502  0.34621789310E+02  0.77219906818E+02  0.91660310648E+02  0.12482254304E+03  0.41800000000E+01 0.  1.
        -11    1    1    2    0    0 -0.18433060326E+02  0.13331397676E+02  0.14126802796E+01  0.22792532605E+02  0.00000000000E+00 0. -1.
         11    1    1    2    0    0  0.17218506538E+02 -0.10662565702E+03 -0.57504415654E+01  0.10815995230E+03  0.00000000000E+00 0.  1.
</event>
<event>
 7    1  0.6473813E-006  0.1376157E+03  0.7561462E-02  0.1216574E+00
         -1   -1    0    0    0  501 -0.00000000000E+00  0.00000000000E+00  0.37311702925E+02  0.37311702925E+02  0.00000000000E+00 0.  1.
          1   -1    0    0  501    0  0.00000000000E+00 -0.00000000000E+00 -0.57245276889E+03  0.57245276889E+03  0.00000000000E+00 0. -1.
         23    2    1    2    0    0 -0.69965999759E+01  0.95918145617E+02 -0.32613831889E+03  0.36230148107E+03  0.12508763755E+03 0.  0.
          5    1    3    3  502    0  0.41372417125E+01  0.12309000173E+03 -0.29281991865E+03  0.31769362985E+03  0.41800000000E+01 0.  1.
         -5    1    3    3    0  502 -0.11133841688E+02 -0.27171856110E+02 -0.33318400240E+02  0.44607851212E+02  0.41800000000E+01 0.  1.
        -11    1    1    2    0    0  0.25694795988E+02 -0.11235832856E+01 -0.12731094109E+02  0.28697835066E+02  0.00000000000E+00 0.  1.
         11    1    1    2    0    0 -0.18698196012E+02 -0.94794562331E+02 -0.19627165297E+03  0.21876515568E+03  0.00000000000E+00 0. -1.
</event>
<event>
 7    1  0.6473813E-006  0.1500153E+03  0.7561462E-02  0.1200454E+00
         -2   -1    0    0    0  501 -0.00000000000E+00  0.00000000000E+00  0.42774538144E+02  0.42774538144E+02  0.00000000000E+00 0.  1.
          2   -1    0    0  501    0  0.00000000000E+00 -0.00000000000E+00 -0.61992758919E+03  0.61992758919E+03  0.00000000000E+00 0. -1.
         23    2    1    2    0    0  0.66581345770E+02  0.97032650582E+02 -0.27367767540E+03  0.32310119626E+03  0.12508597896E+03 0.  0.
          5    1    3    3  502    0  0.96826872250E+02  0.41159141660E+02 -0.14140996890E+03  0.17630589848E+03  0.41800000000E+01 0. -1.
         -5    1    3    3    0  502 -0.30245526480E+02  0.55873508921E+02 -0.13226770650E+03  0.14679529779E+03  0.41800000000E+01 0. -1.
        -11    1    1    2    0    0 -0.66655265547E+02 -0.48261392441E+02 -0.95877461479E+02  0.12635099543E+03  0.00000000000E+00 0.  1.
         11    1    1    2    0    0  0.73919776926E-01 -0.48771258141E+02 -0.20759791417E+03  0.21324993564E+03  0.00000000000E+00 0. -1.
</event>
<event>
 7    1  0.6473813E-006  0.1068451E+03  0.7561462E-02  0.1266526E+00
         -1   -1    0    0    0  501 -0.00000000000E+00  0.00000000000E+00  0.47804283025E+03  0.47804283025E+03  0.00000000000E+00 0.  1.
          1   -1    0    0  501    0  0.00000000000E+00 -0.00000000000E+00 -0.52737012795E+02  0.52737012795E+02  0.00000000000E+00 0. -1.
         23    2    1    2    0    0 -0.43148879025E+02  0.65762891489E+02  0.36923469046E+03  0.39770332770E+03  0.12508835502E+03 0.  0.
          5    1    3    3  502    0 -0.53328760936E+02 -0.12222421206E+02  0.24137882026E+03  0.24753697016E+03  0.41800000000E+01 0.  1.
         -5    1    3    3    0  502  0.10179881911E+02  0.77985312694E+02  0.12785587020E+03  0.15016635754E+03  0.41800000000E+01 0.  1.
        -11    1    1    2    0    0  0.34243714517E+02 -0.39227002160E+02 -0.17041855761E+02  0.54788817565E+02  0.00000000000E+00 0. -1.
         11    1    1    2    0    0  0.89051645081E+01 -0.26535889328E+02  0.73112982751E+02  0.78287697783E+02  0.00000000000E+00 0.  1.
</event>
<event>
 7    1  0.6473813E-006  0.1064806E+03  0.7561462E-02  0.1267230E+00
         -1   -1    0    0    0  501 -0.00000000000E+00  0.00000000000E+00  0.66407958917E+02  0.66407958917E+02  0.00000000000E+00 0. -1.
          1   -1    0    0  501    0  0.00000000000E+00 -0.00000000000E+00 -0.29839779854E+03  0.29839779854E+03  0.00000000000E+00 0.  1.
         23    2    1    2    0    0  0.10131119743E+02 -0.87295094644E+02 -0.10337364196E+03  0.18454493624E+03  0.12509056920E+03 0.  0.
          5    1    3    3  502    0 -0.19369297183E+02 -0.62757381532E-01 -0.89086836494E+02  0.91263960293E+02  0.41800000000E+01 0.  1.
         -5    1    3    3    0  502  0.29500416927E+02 -0.87232337263E+02 -0.14286805466E+02  0.93280975947E+02  0.41800000000E+01 0.  1.
        -11    1    1    2    0    0  0.19125192575E+02  0.50212708247E+02 -0.12875090602E+02  0.55252665262E+02  0.00000000000E+00 0. -1.
         11    1    1    2    0    0 -0.29256312318E+02  0.37082386397E+02 -0.11574110706E+03  0.12500815595E+03  0.00000000000E+00 0.  1.
</event>
<event>
 7    1  0.6473813E-006  0.1154715E+03  0.7561462E-02  0.1250760E+00
          1   -1    0    0  501    0  0.00000000000E+00  0.00000000000E+00  0.32486971075E+03  0.32486971075E+03  0.00000000000E+00 0. -1.
         -1   -1    0    0    0  501 -0.00000000000E+00 -0.00000000000E+00 -0.47785517717E+02  0.47785517717E+02  0.00000000000E+00 0.  1.
         23    2    1    2    0    0  0.49519760493E+02  0.15897355956E+02  0.11463609163E+03  0.17746731436E+03  0.12509309156E+03 0.  0.
          5    1    3    3  502    0 -0.27534117185E+02  0.40599510799E+02  0.20680765544E+02  0.53400508891E+02  0.41800000000E+01 0.  1.
         -5    1    3    3    0  502  0.77053877678E+02 -0.24702154843E+02  0.93955326087E+02  0.12406680547E+03  0.41800000000E+01 0.  1.
        -11    1    1    2    0    0 -0.69255386074E+02  0.79729671746E+01  0.14166520069E+03  0.15788890332E+03  0.00000000000E+00 0. -1.
         11    1    1    2    0    0  0.19735625582E+02 -0.23870323131E+02  0.20782900709E+02  0.37299010783E+02  0.00000000000E+00 0.  1.
</event>
<event>
 7    1  0.6473813E-006  0.6916313E+02  0.7561462E-02  0.1362962E+00
         -1   -1    0    0    0  501 -0.00000000000E+00  0.00000000000E+00  0.23858543685E+02  0.23858543685E+02  0.00000000000E+00 0.  1.
          1   -1    0    0  501    0  0.00000000000E+00 -0.00000000000E+00 -0.38390479399E+03  0.38390479399E+03  0.00000000000E+00 0. -1.
         23    2    1    2    0    0 -0.81365309898E+01 -0.17777666529E+02 -0.21552503737E+03  0.24996133979E+03  0.12508949232E+03 0.  0.
          5    1    3    3  502    0 -0.19330345662E+02 -0.52439254489E+02 -0.20395588960E+03  0.21151599225E+03  0.41800000000E+01 0. -1.
         -5    1    3    3    0  502  0.11193814673E+02  0.34661587960E+02 -0.11569147771E+02  0.38445347533E+02  0.41800000000E+01 0. -1.
        -11    1    1    2    0    0  0.25064700020E+02  0.99409420498E+01 -0.13337104137E+03  0.13606945356E+03  0.00000000000E+00 0. -1.
         11    1    1    2    0    0 -0.16928169030E+02  0.78367244793E+01 -0.11150171566E+02  0.21732544334E+02  0.00000000000E+00 0.  1.
</event>
<event>
 7    1  0.6473813E-006  0.1202958E+03  0.7561462E-02  0.1242610E+00
         -1   -1    0    0    0  501 -0.00000000000E+00  0.00000000000E+00  0.10446564530E+03  0.10446564530E+03  0.00000000000E+00 0.  1.
          1   -1    0    0  501    0  0.00000000000E+00 -0.00000000000E+00 -0.30099342995E+03  0.30099342995E+03  0.00000000000E+00 0. -1.
         23    2    1    2    0    0 -0.10205179746E+03 -0.54197948380E+01  0.54626305670E+01  0.16161494069E+03  0.12508239356E+03 0.  0.
          5    1    3    3  502    0 -0.58485162879E+02  0.41971433253E+02 -0.40221732540E+02  0.82567400679E+02  0.41800000000E+01 0.  1.
         -5    1    3    3    0  502 -0.43566634583E+02 -0.47391228091E+02  0.45684363107E+02  0.79047540008E+02  0.41800000000E+01 0.  1.
        -11    1    1    2    0    0  0.62169857133E+02  0.12645421328E+02 -0.19184407575E+03  0.20206223600E+03  0.00000000000E+00 0. -1.
         11    1    1    2    0    0  0.39881940329E+02 -0.72256264903E+01 -0.10146339466E+02  0.41781898559E+02  0.00000000000E+00 0.  1.
</event>
<event>
 7    1  0.6473813E-006  0.1240896E+03  0.7561462E-02  0.1236499E+00
          2   -1    0    0  501    0  0.00000000000E+00  0.00000000000E+00  0.90354220747E+03  0.90354220747E+03  0.00000000000E+00 0. -1.
         -2   -1    0    0    0  501 -0.00000000000E+00 -0.00000000000E+00 -0.22827684014E+02  0.22827684014E+02  0.00000000000E+00 0.  1.
         23    2    1    2    0    0 -0.26296794977E+02  0.78668758290E+02  0.30871490882E+03  0.34326722954E+03  0.12508877244E+03 0.  0.
          5    1    3    3  502    0  0.43658783732E+02  0.13431991744E+02  0.52326784568E+02  0.69585002568E+02  0.41800000000E+01 0. -1.
         -5    1    3    3    0  502 -0.69955578708E+02  0.65236766546E+02  0.25638812426E+03  0.27368222697E+03  0.41800000000E+01 0. -1.
        -11    1    1    2    0    0  0.15716816534E+02  0.90998010181E+01  0.41675565470E+02  0.45460724343E+02  0.00000000000E+00 0.  1.
         11    1    1    2    0    0  0.10579978443E+02 -0.87768559308E+02  0.53032404917E+03  0.53764193760E+03  0.00000000000E+00 0. -1.
</event>
<event>
 7    1  0.6473813E-006  0.7524897E+02  0.7561462E-02  0.1343102E+00
          2   -1    0    0  501    0  0.00000000000E+00  0.00000000000E+00  0.21198264547E+03  0.21198264547E+03  0.00000000000E+00 0. -1.
         -2   -1    0    0    0  501 -0.00000000000E+00 -0.00000000000E+00 -0.67760701330E+02  0.67760701330E+02  0.00000000000E+00 0.  1.
         23    2    1    2    0    0 -0.33318342749E+02  0.36379517196E+02  0.61083192057E+02  0.14768953674E+03  0.12508981443E+03 0.  0.
          5    1    3    3  502    0 -0.21417267826E+02  0.21048561201E+02  0.99732669659E+02  0.10423923967E+03  0.41800000000E+01 0.  1.
         -5    1    3    3    0  502 -0.11901074923E+02  0.15330955995E+02 -0.38649477602E+02  0.43450297064E+02  0.41800000000E+01 0.  1.
        -11    1    1    2    0    0 -0.15522270875E+02  0.20269206431E+02  0.34167564106E+02  0.42652128428E+02  0.00000000000E+00 0. -1.
         11    1    1    2    0    0  0.48840613624E+02 -0.56648723628E+02  0.48971187976E+02  0.89401681637E+02  0.00000000000E+00 0.  1.
</event>
<event>
 7    1  0.6473813E-006  0.1047348E+03  0.7561462E-02  0.1270643E+00
         -1   -1    0    0    0  501 -0.00000000000E+00  0.00000000000E+00  0.54765668964E+02  0.54765668964E+02  0.00000000000E+00 0.  1.
          1   -1    0    0  501    0  0.00000000000E+00 -0.00000000000E+00 -0.26629290515E+03  0.26629290515E+03  0.00000000000E+00 0. -1.
         23    2    1    2    0    0 -0.71338492568E+01  0.49906298076E+02 -0.10247681980E+03  0.16937643720E+03  0.12508136747E+03 0.  0.
          5    1    3    3  502    0 -0.48155780746E+02  0.39065350210E+01 -0.95628965087E+02  0.10722225328E+03  0.41800000000E+01 0.  1.
         -5    1    3    3    0  502  0.41021931489E+02  0.45999763055E+02 -0.68478547112E+01  0.62154183916E+02  0.41800000000E+01 0.  1.
        -11    1    1    2    0    0  0.32659040435E+02  0.99389198267E+01 -0.14921605842E+02  0.37256534600E+02  0.00000000000E+00 0.  1.
         11    1    1    2    0    0 -0.25525191178E+02 -0.59845217903E+02 -0.94128810542E+02  0.11442560231E+03  0.00000000000E+00 0. -1.
</event>
<event>
 7    1  0.6473813E-006  0.8960155E+02  0.7561462E-02  0.1303819E+00
          1   -1    0    0  501    0  0.00000000000E+00  0.00000000000E+00  0.12430657071E+03  0.12430657071E+03  0.00000000000E+00 0. -1.
         -1   -1    0    0    0  501 -0.00000000000E+00 -0.00000000000E+00 -0.19679823405E+03  0.19679823405E+03  0.00000000000E+00 0.  1.
         23    2    1    2    0    0  0.33479689328E+02  0.24881943884E+02 -0.14569724616E+03  0.19650707905E+03  0.12508934347E+03 0.  0.
          5    1    3    3  502    0  0.68073876312E+02  0.44885699904E+02 -0.12970238755E+03  0.15326108583E+03  0.41800000000E+01 0.  1.
         -5    1    3    3    0  502 -0.34594186984E+02 -0.20003756020E+02 -0.15994858607E+02  0.43245993223E+02  0.41800000000E+01 0.  1.
        -11    1    1    2    0    0 -0.24918045884E+01 -0.26240913664E+02 -0.15532396833E+02  0.30594934081E+02  0.00000000000E+00 0.  1.
         11    1    1    2    0    0 -0.30987884740E+02  0.13589697800E+01  0.88737979653E+02  0.94002791621E+02  0.00000000000E+00 0. -1.
</event>
<event>
 7    1  0.6473813E-006  0.1307277E+03  0.7561462E-02  0.1226380E+00
          1   -1    0    0  501    0  0.00000000000E+00  0.00000000000E+00  0.31549435361E+03  0.31549435361E+03  0.00000000000E+00 0. -1.
         -1   -1    0    0    0  501 -0.00000000000E+00 -0.00000000000E+00 -0.84361600650E+02  0.84361600650E+02  0.00000000000E+00 0.  1.
         23    2    1    2    0    0  0.95388904381E+02 -0.35542940789E+02  0.50406938626E+02  0.16897615998E+03  0.12509891871E+03 0.  0.
          5    1    3    3  502    0  0.62682225540E+01  0.34510893206E+02 -0.14614039090E+02  0.38227410354E+02  0.41800000000E+01 0. -1.
         -5    1    3    3    0  502  0.89120681827E+02 -0.70053833996E+02  0.65020977716E+02  0.13074874963E+03  0.41800000000E+01 0. -1.
        -11    1    1    2    0    0 -0.33999133762E+02 -0.10916328995E+02  0.13858794712E+03  0.14311438230E+03  0.00000000000E+00 0. -1.
         11    1    1    2    0    0 -0.61389770619E+02  0.46459269784E+02  0.42137867215E+02  0.87765411974E+02  0.00000000000E+00 0.  1.
</event>
<event>
 7    1  0.6473813E-006  0.9593651E+02  0.7561462E-02  0.1289081E+00
         -1   -1    0    0    0  501 -0.00000000000E+00  0.00000000000E+00  0.36116172243E+03  0.36116172243E+03  0.00000000000E+00 0.  1.
          1   -1    0    0  501    0  0.00000000000E+00 -0.00000000000E+00 -0.49090647932E+02  0.49090647932E+02  0.00000000000E+00 0. -1.
         23    2    1    2    0    0 -0.75641899871E+02  0.53670804836E+01  0.17446020873E+03  0.22767234491E+03  0.12509128522E+03 0.  0.
          5    1    3    3  502    0 -0.49075193156E+02  0.45629824687E+02  0.16527253561E+03  0.17838985092E+03  0.41800000000E+01 0.  1.
         -5    1    3    3    0  502 -0.26566706715E+02 -0.40262744204E+02  0.91876731192E+01  0.49282493990E+02  0.41800000000E+01 0.  1.
        -11    1    1    2    0    0  0.65346458875E+02 -0.16492673626E+01  0.15143867089E+03  0.16494408390E+03  0.00000000000E+00 0.  1.
         11    1    1    2    0    0  0.10295440996E+02 -0.37178131211E+01 -0.13827805130E+02  0.17635941552E+02  0.00000000000E+00 0. -1.
</event>
<event>
 7    1  0.6473813E-006  0.9735922E+02  0.7561462E-02  0.1285949E+00
         -1   -1    0    0    0  501 -0.00000000000E+00  0.00000000000E+00  0.75984729040E+02  0.75984729040E+02  0.00000000000E+00 0.  1.
          1   -1    0    0  501    0  0.00000000000E+00 -0.00000000000E+00 -0.19651378557E+03  0.19651378557E+03  0.00000000000E+00 0. -1.
         23    2    1    2    0    0 -0.29974217524E+02  0.27301507454E+02 -0.26260440880E+02  0.13409370970E+03  0.12509071189E+03 0.  0.
          5    1    3    3  502    0 -0.76992401617E+02  0.93662490869E+01 -0.11089867559E+01  0.77680491633E+02  0.41800000000E+01 0.  1.
         -5    1    3    3    0  502  0.47018184093E+02  0.17935258367E+02 -0.25151454124E+02  0.56413218067E+02  0.41800000000E+01 0.  1.
        -11    1    1    2    0    0 -0.15275099265E+02 -0.90752300379E+01 -0.87344949891E+02  0.89133768737E+02  0.00000000000E+00 0. -1.
         11    1    1    2    0    0  0.45249316789E+02 -0.18226277416E+02 -0.69236657610E+01  0.49271036177E+02  0.00000000000E+00 0.  1.
</event>
<event>
 7    1  0.6473813E-006  0.9670539E+02  0.7561462E-02  0.1287381E+00
          3   -1    0    0  501    0  0.00000000000E+00  0.00000000000E+00  0.18422935826E+03  0.18422935826E+03  0.00000000000E+00 0. -1.
         -3   -1    0    0    0  501 -0.00000000000E+00 -0.00000000000E+00 -0.68725950690E+02  0.68725950690E+02  0.00000000000E+00 0.  1.
         23    2    1    2    0    0 -0.16936058837E+02  0.19471915794E+02  0.27037553409E+02  0.12727728194E+03  0.12166549063E+03 0.  0.
          5    1    3    3  502    0  0.35842046282E+02  0.34623001527E+02  0.47071631369E+02  0.68677619326E+02  0.41800000000E+01 0. -1.
         -5    1    3    3    0  502 -0.52778105120E+02 -0.15151085733E+02 -0.20034077960E+02  0.58599662615E+02  0.41800000000E+01 0.  1.
        -11    1    1    2    0    0  0.46356081168E+02  0.91916668705E+01  0.56312087851E+02  0.73514789255E+02  0.00000000000E+00 0. -1.
         11    1    1    2    0    0 -0.29420022331E+02 -0.28663582664E+02  0.32153766311E+02  0.52163237755E+02  0.00000000000E+00 0.  1.
</event>
<event>
 7    1  0.6473813E-006  0.1366107E+03  0.7561462E-02  0.1217964E+00
         -1   -1    0    0    0  501 -0.00000000000E+00  0.00000000000E+00  0.47566805274E+02  0.47566805274E+02  0.00000000000E+00 0.  1.
          1   -1    0    0  501    0  0.00000000000E+00 -0.00000000000E+00 -0.47361021065E+03  0.47361021065E+03  0.00000000000E+00 0. -1.
         23    2    1    2    0    0  0.51012923174E+02 -0.89181087791E+02 -0.20994296231E+03  0.26509800848E+03  0.12508126129E+03 0.  0.
          5    1    3    3  502    0  0.99578443633E+01 -0.11007126539E+03 -0.17544416040E+03  0.20739567967E+03  0.41800000000E+01 0.  1.
         -5    1    3    3    0  502  0.41055078811E+02  0.20890177602E+02 -0.34498801913E+02  0.57702328808E+02  0.41800000000E+01 0.  1.
        -11    1    1    2    0    0  0.22323285354E+01  0.50515142047E+02 -0.30248178647E+02  0.58921262530E+02  0.00000000000E+00 0.  1.
         11    1    1    2    0    0 -0.53245251709E+02  0.38665945745E+02 -0.18585226442E+03  0.19715774492E+03  0.00000000000E+00 0. -1.
</event>
<event>
 7    1  0.6473813E-006  0.1053413E+03  0.7561462E-02  0.1269449E+00
          4   -1    0    0  501    0  0.00000000000E+00  0.00000000000E+00  0.27496537724E+03  0.27496537724E+03  0.00000000000E+00 0.  1.
         -4   -1    0    0    0  501 -0.00000000000E+00 -0.00000000000E+00 -0.54550684405E+02  0.54550684405E+02  0.00000000000E+00 0. -1.
         23    2    1    2    0    0  0.48775082453E+02 -0.26501038209E+02  0.10762686138E+03  0.17410217419E+03  0.12508681814E+03 0.  0.
          5    1    3    3  502    0 -0.25408357608E+02 -0.20789710781E+02 -0.10249531201E+02  0.34645663517E+02  0.41800000000E+01 0. -1.
         -5    1    3    3    0  502  0.74183440062E+02 -0.57113274284E+01  0.11787639258E+03  0.13945651067E+03  0.41800000000E+01 0. -1.
        -11    1    1    2    0    0 -0.49631259275E+02 -0.22192084556E+02  0.79922942623E+02  0.96661405285E+02  0.00000000000E+00 0.  1.
         11    1    1    2    0    0  0.85617682214E+00  0.48693122766E+02  0.32864888827E+02  0.58752482169E+02  0.00000000000E+00 0. -1.
</event>
<event>
 6    1  0.6473813E-006  0.1003960E+03  0.7561462E-02  0.1279465E+00
          4   -1    0    0  501    0  0.00000000000E+00  0.00000000000E+00  0.18980704493E+03  0.18980704493E+03  0.00000000000E+00 0. -1.
         -4   -1    0    0    0  501 -0.00000000000E+00 -0.00000000000E+00 -0.74853967108E+02  0.74853967108E+02  0.00000000000E+00 0.  1.
          5    1    1    2  502    0  0.61424486881E+02  0.70523517008E+00  0.67974698466E+02  0.91714213603E+02  0.41800000000E+01 0. -1.
         -5    1    1    2    0  502 -0.54090968720E+02 -0.15918021810E+01 -0.26577959136E+02  0.60433658197E+02  0.41800000000E+01 0.  1.
        -11    1    1    2    0    0  0.29963550177E+02 -0.25429101601E+02  0.30264699464E+02  0.49602475554E+02  0.00000000000E+00 0. -1.
         11    1    1    2    0    0 -0.37297068338E+02  0.26315668612E+02  0.43291639026E+02  0.62910664681E+02  0.00000000000E+00 0.  1.
</event>
<event>
 7    1  0.6473813E-006  0.1047134E+03  0.7561462E-02  0.1270685E+00
         -1   -1    0    0    0  501 -0.00000000000E+00  0.00000000000E+00  0.38586741352E+02  0.38586741352E+02  0.00000000000E+00 0.  1.
          1   -1    0    0  501    0  0.00000000000E+00 -0.00000000000E+00 -0.37142370545E+03  0.37142370545E+03  0.00000000000E+00 0. -1.
         23    2    1    2    0    0  0.21445335779E+02  0.53307572186E+02 -0.16725742356E+03  0.21662060562E+03  0.12509133208E+03 0.  0.
          5    1    3    3  502    0  0.67429167737E+02  0.22215510886E+02 -0.50349800159E+02  0.87136653377E+02  0.41800000000E+01 0.  1.
         -5    1    3    3    0  502 -0.45983831958E+02  0.31092061300E+02 -0.11690762340E+03  0.12948395224E+03  0.41800000000E+01 0.  1.
        -11    1    1    2    0    0  0.20839433413E+02 -0.18770225445E+02 -0.11698196007E+03  0.12029705869E+03  0.00000000000E+00 0. -1.
         11    1    1    2    0    0 -0.42284769192E+02 -0.34537346741E+02 -0.48597580463E+02  0.73092782492E+02  0.00000000000E+00 0.  1.
</event>
<event>
 7    1  0.6473813E-006  0.1608651E+03  0.7561462E-02  0.1187724E+00
         -3   -1    0    0    0  501 -0.00000000000E+00  0.00000000000E+00  0.54285396179E+03  0.54285396179E+03  0.00000000000E+00 0.  1.
          3   -1    0    0  501    0  0.00000000000E+00 -0.00000000000E+00 -0.56220218945E+02  0.56220218945E+02  0.00000000000E+00 0. -1.
         23    2    1    2    0    0 -0.76630950647E+02 -0.98946820042E+02  0.35117476636E+03  0.39323498254E+03  0.12508900501E+03 0.  0.
          5    1    3    3  502    0  0.23981737188E+02  0.96882315406E+01  0.31966552148E+02  0.41331808636E+02  0.41800000000E+01 0.  1.
         -5    1    3    3    0  502 -0.10061268783E+03 -0.10863505158E+03  0.31920821421E+03  0.35190317390E+03  0.41800000000E+01 0.  1.
        -11    1    1    2    0    0 -0.57249502464E+01 -0.95825459183E+01 -0.30342595699E+01  0.11567496390E+02  0.00000000000E+00 0. -1.
         11    1    1    2    0    0  0.82355900893E+02  0.10852936596E+03  0.13849323606E+03  0.19427170180E+03  0.00000000000E+00 0.  1.
</event>
<event>
 7    1  0.6473813E-006  0.1238996E+03  0.7561462E-02  0.1236799E+00
         -2   -1    0    0    0  501 -0.00000000000E+00  0.00000000000E+00  0.87854482339E+02  0.87854482339E+02  0.00000000000E+00 0.  1.
          2   -1    0    0  501    0  0.00000000000E+00 -0.00000000000E+00 -0.24739581458E+03  0.24739581458E+03  0.00000000000E+00 0. -1.
         23    2    1    2    0    0 -0.27968895106E+02 -0.94190891723E+02 -0.66180709335E+02  0.17228246393E+03  0.12508868019E+03 0.  0.
          5    1    3    3  502    0 -0.59530130351E+02 -0.21101928007E+02 -0.67518740422E+02  0.92549340859E+02  0.41800000000E+01 0. -1.
         -5    1    3    3    0  502  0.31561235244E+02 -0.73088963717E+02  0.13380310868E+01  0.79733123070E+02  0.41800000000E+01 0. -1.
        -11    1    1    2    0    0  0.13725137982E+02  0.52335890738E+01 -0.67726908998E+02  0.69301544497E+02  0.00000000000E+00 0. -1.
         11    1    1    2    0    0  0.14243757124E+02  0.88957302649E+02 -0.25633713910E+02  0.93666288496E+02  0.00000000000E+00 0.  1.
</event>
<event>
 7    1  0.6473813E-006  0.1798053E+03  0.7561462E-02  0.1167992E+00
          2   -1    0    0  501    0  0.00000000000E+00  0.00000000000E+00  0.11493597789E+04  0.11493597789E+04  0.00000000000E+00 0. -1.
         -2   -1    0    0    0  501 -0.00000000000E+00 -0.00000000000E+00 -0.46749513034E+02  0.46749513034E+02  0.00000000000E+00 0.  1.
         23    2    1    2    0    0  0.76646557898E+02  0.14907786816E+03  0.26647689605E+03  0.33875647658E+03  0.12508840346E+03 0.  0.
          5    1    3    3  502    0 -0.16982194709E+02  0.53864031486E+01 -0.37429869533E+01  0.18678614171E+02  0.41800000000E+01 0. -1.
         -5    1    3    3    0  502  0.93628752606E+02  0.14369146502E+03  0.27021988300E+03  0.32007786241E+03  0.41800000000E+01 0. -1.
        -11    1    1    2    0    0 -0.37645061313E+01 -0.29346517544E+02  0.44713912895E+02  0.53616449013E+02  0.00000000000E+00 0.  1.
         11    1    1    2    0    0 -0.72882051766E+02 -0.11973135062E+03  0.79141945696E+03  0.80373636638E+03  0.00000000000E+00 0. -1.
</event>
<event>
 7    1  0.6473813E-006  0.1054205E+03  0.7561462E-02  0.1269293E+00
          1   -1    0    0  501    0  0.00000000000E+00  0.00000000000E+00  0.48397727029E+03  0.48397727029E+03  0.00000000000E+00 0. -1.
         -1   -1    0    0    0  501 -0.00000000000E+00 -0.00000000000E+00 -0.26914885286E+02  0.26914885286E+02  0.00000000000E+00 0.  1.
         23    2    1    2    0    0 -0.24528066775E+02  0.23565614664E+02  0.24762651187E+03  0.27950484365E+03  0.12508838471E+03 0.  0.
          5    1    3    3  502    0  0.34964629233E+02 -0.20511445348E+02  0.15802285868E+03  0.16319295620E+03  0.41800000000E+01 0. -1.
         -5    1    3    3    0  502 -0.59492696009E+02  0.44077060012E+02  0.89603653189E+02  0.11631188745E+03  0.41800000000E+01 0. -1.
        -11    1    1    2    0    0 -0.33114463862E+02 -0.18827431895E+02  0.59130021018E+02  0.70337751558E+02  0.00000000000E+00 0.  1.
         11    1    1    2    0    0  0.57642530637E+02 -0.47381827697E+01  0.15030585212E+03  0.16104956037E+03  0.00000000000E+00 0. -1.
</event>
<event>
 7    1  0.6473813E-006  0.8854250E+02  0.7561462E-02  0.1306420E+00
         -1   -1    0    0    0  501 -0.00000000000E+00  0.00000000000E+00  0.16908879543E+02  0.16908879543E+02  0.00000000000E+00 0.  1.
          1   -1    0    0  501    0  0.00000000000E+00 -0.00000000000E+00 -0.72526161604E+03  0.72526161604E+03  0.00000000000E+00 0. -1.
         23    2    1    2    0    0  0.16617720297E+02  0.11070138669E+02 -0.38823244856E+03  0.40837558737E+03  0.12508992622E+03 0.  0.
          5    1    3    3  502    0 -0.47913309501E+01  0.47815726066E+02 -0.58213236348E+02  0.75601281720E+02  0.41800000000E+01 0.  1.
         -5    1    3    3    0  502  0.21409051247E+02 -0.36745587397E+02 -0.33001921221E+03  0.33277430565E+03  0.41800000000E+01 0.  1.
        -11    1    1    2    0    0  0.15944226221E+02  0.29837889758E+02 -0.63991339056E+02  0.72383765370E+02  0.00000000000E+00 0. -1.
         11    1    1    2    0    0 -0.32561946518E+02 -0.40908028427E+02 -0.25612894888E+03  0.26141114285E+03  0.00000000000E+00 0.  1.
</event>
<event>
 6    1  0.6473813E-006  0.1422903E+03  0.7561462E-02  0.1210280E+00
          4   -1    0    0  501    0  0.00000000000E+00  0.00000000000E+00  0.34448361854E+03  0.34448361854E+03  0.00000000000E+00 0. -1.
         -4   -1    0    0    0  501 -0.00000000000E+00 -0.00000000000E+00 -0.85895972427E+02  0.85895972427E+02  0.00000000000E+00 0.  1.
          5    1    1    2  502    0 -0.65711936003E+02 -0.82547568801E+01  0.91455744872E+01  0.66987412826E+02  0.41800000000E+01 0. -1.
         -5    1    1    2    0  502  0.88756340418E+02 -0.45069757115E+02  0.15122727645E+02  0.10077271586E+03  0.41800000000E+01 0.  1.
        -11    1    1    2    0    0  0.29303102823E+02 -0.14676357895E+02  0.64455829326E+02  0.72309205847E+02  0.00000000000E+00 0.  1.
         11    1    1    2    0    0 -0.52347507238E+02  0.68000871890E+02  0.16986351465E+03  0.19031025643E+03  0.00000000000E+00 0. -1.
</event>
<event>
 7    1  0.6473813E-006  0.1678197E+03  0.7561462E-02  0.1180141E+00
          2   -1    0    0  501    0  0.00000000000E+00  0.00000000000E+00  0.11404415403E+03  0.11404415403E+03  0.00000000000E+00 0. -1.
         -2   -1    0    0    0  501 -0.00000000000E+00 -0.00000000000E+00 -0.32363959622E+03  0.32363959622E+03  0.00000000000E+00 0.  1.
         23    2    1    2    0    0 -0.15405546280E+03 -0.45570984170E+01 -0.16815696950E+03  0.26015080872E+03  0.12509126316E+03 0.  0.
          5    1    3    3  502    0 -0.20862049192E+02 -0.25786556318E+02 -0.10681225987E+03  0.11192186043E+03  0.41800000000E+01 0. -1.
         -5    1    3    3    0  502 -0.13319341361E+03  0.21229457901E+02 -0.61344709634E+02  0.14822894829E+03  0.41800000000E+01 0. -1.
        -11    1    1    2    0    0  0.74499059574E+02 -0.30282047982E+02 -0.41904522593E+02  0.90681317377E+02  0.00000000000E+00 0.  1.
         11    1    1    2    0    0  0.79556403229E+02  0.34839146399E+02  0.46604990675E+00  0.86851624159E+02  0.00000000000E+00 0. -1.
</event>
<event>
 7    1  0.6473813E-006  0.2731313E+03  0.7561462E-02  0.1099501E+00
         -2   -1    0    0    0  501 -0.00000000000E+00  0.00000000000E+00  0.40228991443E+02  0.40228991443E+02  0.00000000000E+00 0.  1.
          2   -1    0    0  501    0  0.00000000000E+00 -0.00000000000E+00 -0.21658862372E+04  0.21658862372E+04  0.00000000000E+00 0. -1.
         23    2    1    2    0    0 -0.17476758321E+03  0.19130144675E+03 -0.75115715889E+03  0.80437689218E+03  0.12508059659E+03 0.  0.
          5    1    3    3  502    0 -0.11919984662E+03  0.40580894296E+02 -0.29645583754E+03  0.32211635852E+03  0.41800000000E+01 0. -1.
         -5    1    3    3    0  502 -0.55567736592E+02  0.15072055245E+03 -0.45470132135E+03  0.48226053365E+03  0.41800000000E+01 0. -1.
        -11    1    1    2    0    0  0.15714187943E+03 -0.16440695807E+03 -0.13107889514E+04  0.13303724641E+04  0.00000000000E+00 0. -1.
         11    1    1    2    0    0  0.17625703789E+02 -0.26894488680E+02 -0.63711135431E+02  0.71365872329E+02  0.00000000000E+00 0.  1.
</event>
<event>
 7    1  0.6473813E-006  0.3005160E+03  0.7561462E-02  0.1084983E+00
         -2   -1    0    0    0  501 -0.00000000000E+00  0.00000000000E+00  0.24840535278E+03  0.24840535278E+03  0.00000000000E+00 0. -1.
          2   -1    0    0  501    0  0.00000000000E+00 -0.00000000000E+00 -0.37524513995E+03  0.37524513995E+03  0.00000000000E+00 0.  1.
         23    2    1    2    0    0 -0.17921224459E+03 -0.22195933233E+03 -0.77713899717E+02  0.32103043529E+03  0.12505245441E+03 0.  0.
          5    1    3    3  502    0 -0.15378813234E+03 -0.97032318720E+02 -0.27544322810E+02  0.18396255772E+03  0.41800000000E+01 0.  1.
         -5    1    3    3    0  502 -0.25424112245E+02 -0.12492701361E+03 -0.50169576907E+02  0.13706787757E+03  0.41800000000E+01 0.  1.
        -11    1    1    2    0    0  0.13260546520E+03  0.20024168393E+03 -0.64996481159E+02  0.24880812676E+03  0.00000000000E+00 0.  1.
         11    1    1    2    0    0  0.46606779390E+02  0.21717648408E+02  0.15870593706E+02  0.53811930666E+02  0.00000000000E+00 0. -1.
</event>
<event>
 7    1  0.6473813E-006  0.1008071E+03  0.7561462E-02  0.1278608E+00
         -1   -1    0    0    0  501 -0.00000000000E+00  0.00000000000E+00  0.98553195660E+02  0.98553195660E+02  0.00000000000E+00 0.  1.
          1   -1    0    0  501    0  0.00000000000E+00 -0.00000000000E+00 -0.17342304213E+03  0.17342304213E+03  0.00000000000E+00 0. -1.
         23    2    1    2    0    0  0.73139460027E+02 -0.39802462990E+01 -0.47820699961E+02  0.15264177975E+03  0.12508985013E+03 0.  0.
          5    1    3    3  502    0  0.60856479751E+02 -0.20566349654E+02  0.30719358426E+02  0.71327675189E+02  0.41800000000E+01 0.  1.
         -5    1    3    3    0  502  0.12282980276E+02  0.16586103355E+02 -0.78540058387E+02  0.81314104560E+02  0.41800000000E+01 0.  1.
        -11    1    1    2    0    0 -0.93325823554E+02 -0.62828131929E+01 -0.20442013143E+02  0.95744759570E+02  0.00000000000E+00 0.  1.
         11    1    1    2    0    0  0.20186363527E+02  0.10263059492E+02 -0.66071333650E+01  0.23589698470E+02  0.00000000000E+00 0. -1.
</event>
<event>
 7    1  0.6473813E-006  0.1410428E+03  0.7561462E-02  0.1211933E+00
         -2   -1    0    0    0  501 -0.00000000000E+00  0.00000000000E+00  0.14054741948E+03  0.14054741948E+03  0.00000000000E+00 0.  1.
          2   -1    0    0  501    0  0.00000000000E+00 -0.00000000000E+00 -0.23354015272E+03  0.23354015272E+03  0.00000000000E+00 0. -1.
         23    2    1    2    0    0  0.97691066568E+02 -0.15783629338E+02  0.59367942851E+02  0.17018376386E+03  0.12508114726E+03 0.  0.
          5    1    3    3  502    0  0.91909535106E+02  0.39553234354E+02  0.20601751259E+02  0.10224346212E+03  0.41800000000E+01 0. -1.
         -5    1    3    3    0  502  0.57815314626E+01 -0.55336863692E+02  0.38766191592E+02  0.67940301736E+02  0.41800000000E+01 0. -1.
        -11    1    1    2    0    0 -0.10872896120E+03  0.23456464148E+01 -0.96487150744E+02  0.14538658576E+03  0.00000000000E+00 0.  1.
         11    1    1    2    0    0  0.11037894633E+02  0.13437982923E+02 -0.55873525350E+02  0.58517222576E+02  0.00000000000E+00 0. -1.
</event>
<event>
 7    1  0.6473813E-006  0.1095730E+03  0.7561462E-02  0.1261363E+00
         -1   -1    0    0    0  501 -0.00000000000E+00  0.00000000000E+00  0.63464857568E+02  0.63464857568E+02  0.00000000000E+00 0.  1.
          1   -1    0    0  501    0  0.00000000000E+00 -0.00000000000E+00 -0.27980296462E+03  0.27980296462E+03  0.00000000000E+00 0. -1.
         23    2    1    2    0    0 -0.60359823756E+02 -0.47876571100E+02 -0.10713022007E+03  0.18182820131E+03  0.12509650817E+03 0.  0.
          5    1    3    3  502    0 -0.97766318715E+01  0.26504270015E+02 -0.84193579308E+02  0.88904949561E+02  0.41800000000E+01 0.  1.
         -5    1    3    3    0  502 -0.50583191884E+02 -0.74380841115E+02 -0.22936640762E+02  0.92923251749E+02  0.41800000000E+01 0.  1.
        -11    1    1    2    0    0 -0.12481871973E+02  0.17785127493E+02 -0.70231872715E+02  0.73516146750E+02  0.00000000000E+00 0. -1.
         11    1    1    2    0    0  0.72841695729E+02  0.30091443608E+02 -0.38976014271E+02  0.87923474132E+02  0.00000000000E+00 0.  1.
</event>
<event>
 7    1  0.6473813E-006  0.7818737E+02  0.7561462E-02  0.1334276E+00
         -2   -1    0    0    0  501 -0.00000000000E+00  0.00000000000E+00  0.12306062255E+03  0.12306062255E+03  0.00000000000E+00 0.  1.
          2   -1    0    0  501    0  0.00000000000E+00 -0.00000000000E+00 -0.14409659379E+03  0.14409659379E+03  0.00000000000E+00 0. -1.
         23    2    1    2    0    0 -0.71527163004E+02 -0.91259802120E+01  0.16939702906E+02  0.14537577236E+03  0.12509093929E+03 0.  0.
          5    1    3    3  502    0 -0.42745439190E+02 -0.31272998384E+01  0.71379488300E+02  0.83363399198E+02  0.41800000000E+01 0. -1.
         -5    1    3    3    0  502 -0.28781723814E+02 -0.59986803736E+01 -0.54439785394E+02  0.62012373166E+02  0.41800000000E+01 0. -1.
        -11    1    1    2    0    0  0.63996421423E+02  0.22856609985E+02 -0.62734560855E+02  0.92485629698E+02  0.00000000000E+00 0. -1.
         11    1    1    2    0    0  0.75307415804E+01 -0.13730629773E+02  0.24758886709E+02  0.29295814271E+02  0.00000000000E+00 0.  1.
</event>
<event>
 7    1  0.6473813E-006  0.9580042E+02  0.7561462E-02  0.1289383E+00
         -3   -1    0    0    0  501 -0.00000000000E+00  0.00000000000E+00  0.19559142089E+03  0.19559142089E+03  0.00000000000E+00 0.  1.
          3   -1    0    0  501    0  0.00000000000E+00 -0.00000000000E+00 -0.73225042676E+02  0.73225042676E+02  0.00000000000E+00 0. -1.
         23    2    1    2    0    0 -0.19525490183E+02 -0.53070734553E+02  0.10066213896E+03  0.15947585917E+03  0.11000879876E+03 0.  0.
          5    1    3    3  502    0 -0.91839696878E+01 -0.70356588098E+02  0.16675611402E+02  0.73006460013E+02  0.41800000000E+01 0. -1.
         -5    1    3    3    0  502 -0.10341520495E+02  0.17285853545E+02  0.83986527558E+02  0.86469399155E+02  0.41800000000E+01 0.  1.
        -11    1    1    2    0    0  0.77403508215E+00 -0.22284930794E+02  0.22507354428E+02  0.31682775670E+02  0.00000000000E+00 0. -1.
         11    1    1    2    0    0  0.18751455101E+02  0.75355665347E+02 -0.80311517874E+00  0.77657828725E+02  0.00000000000E+00 0.  1.
</event>
<event>
 7    1  0.6473813E-006  0.2642453E+03  0.7561462E-02  0.1104619E+00
         -1   -1    0    0    0  501 -0.00000000000E+00  0.00000000000E+00  0.63862051627E+02  0.63862051627E+02  0.00000000000E+00 0.  1.
          1   -1    0    0  501    0  0.00000000000E+00 -0.00000000000E+00 -0.11321258938E+04  0.11321258938E+04  0.00000000000E+00 0. -1.
         23    2    1    2    0    0 -0.23618534500E+03  0.68192015375E+02 -0.54189478109E+03  0.60805682444E+03  0.12509788096E+03 0.  0.
          5    1    3    3  502    0 -0.21888432249E+03  0.92604117745E+02 -0.42127104126E+03  0.48370717574E+03  0.41800000000E+01 0. -1.
         -5    1    3    3    0  502 -0.17301022515E+02 -0.24412102370E+02 -0.12062373983E+03  0.12434964870E+03  0.41800000000E+01 0. -1.
        -11    1    1    2    0    0  0.20056740475E+03 -0.21308921412E+02 -0.38107849347E+03  0.43116374171E+03  0.00000000000E+00 0. -1.
         11    1    1    2    0    0  0.35617940256E+02 -0.46883093963E+02 -0.14529056759E+03  0.15676737925E+03  0.00000000000E+00 0.  1.
</event>
<event>
 7    1  0.6473813E-006  0.2033925E+03  0.7561462E-02  0.1146908E+00
          1   -1    0    0  501    0  0.00000000000E+00  0.00000000000E+00  0.24237866441E+03  0.24237866441E+03  0.00000000000E+00 0. -1.
         -1   -1    0    0    0  501 -0.00000000000E+00 -0.00000000000E+00 -0.29614575457E+03  0.29614575457E+03  0.00000000000E+00 0.  1.
         23    2    1    2    0    0  0.95996521420E+02 -0.14938642633E+03 -0.19732949196E+03  0.29346000052E+03  0.12509279360E+03 0.  0.
          5    1    3    3  502    0 -0.29746448002E+02 -0.18952528325E+02 -0.39764696031E+02  0.53317473206E+02  0.41800000000E+01 0.  1.
         -5    1    3    3    0  502  0.12574296942E+03 -0.13043389801E+03 -0.15756479592E+03  0.24014252731E+03  0.41800000000E+01 0.  1.
        -11    1    1    2    0    0 -0.60921089308E+02  0.34692657458E+02  0.89009619308E+02  0.11330345067E+03  0.00000000000E+00 0. -1.
         11    1    1    2    0    0 -0.35075432112E+02  0.11469376887E+03  0.54552782496E+02  0.13176096780E+03  0.00000000000E+00 0.  1.
</event>
<event>
 7    1  0.6473813E-006  0.8554904E+02  0.7561462E-02  0.1314003E+00
         -1   -1    0    0    0  501 -0.00000000000E+00  0.00000000000E+00  0.13715590130E+03  0.13715590130E+03  0.00000000000E+00 0.  1.
          1   -1    0    0  501    0  0.00000000000E+00 -0.00000000000E+00 -0.14793120239E+03  0.14793120239E+03  0.00000000000E+00 0. -1.
         23    2    1    2    0    0 -0.19153783383E+02  0.19031498385E+02  0.82071563385E+02  0.15202817393E+03  0.12509100209E+03 0.  0.
          5    1    3    3  502    0 -0.39994427068E+02  0.33034849084E+02 -0.12973033403E+02  0.53634200341E+02  0.41800000000E+01 0.  1.
         -5    1    3    3    0  502  0.20840643686E+02 -0.14003350699E+02  0.95044596788E+02  0.98393973589E+02  0.41800000000E+01 0.  1.
        -11    1    1    2    0    0 -0.85451305003E+01 -0.50765962218E+02 -0.38421180390E+02  0.64236977496E+02  0.00000000000E+00 0.  1.
         11    1    1    2    0    0  0.27698913883E+02  0.31734463833E+02 -0.54425684087E+02  0.68821952264E+02  0.00000000000E+00 0. -1.
</event>
<event>
 6    1  0.6473813E-006  0.1602754E+03  0.7561462E-02  0.1188386E+00
         -1   -1    0    0    0  501 -0.00000000000E+00  0.00000000000E+00  0.30162664724E+03  0.30162664724E+03  0.00000000000E+00 0.  1.
          1   -1    0    0  501    0  0.00000000000E+00 -0.00000000000E+00 -0.95377001019E+02  0.95377001019E+02  0.00000000000E+00 0. -1.
          5    1    1    2  502    0  0.11759420681E+03  0.37345009085E+02  0.92252519399E+02  0.15411374668E+03  0.41800000000E+01 0. -1.
         -5    1    1    2    0  502 -0.64420879443E+02  0.36222096956E+02  0.80444004759E+02  0.10931971605E+03  0.41800000000E+01 0.  1.
        -11    1    1    2    0    0 -0.36060964173E+02  0.10280884253E+02  0.29824990564E+02  0.47912626522E+02  0.00000000000E+00 0.  1.
         11    1    1    2    0    0 -0.17112363195E+02 -0.83847990295E+02  0.37281314980E+01  0.85657559007E+02  0.00000000000E+00 0. -1.
</event>
<event>
 7    1  0.6473813E-006  0.1119906E+03  0.7561462E-02  0.1256927E+00
          1   -1    0    0  501    0  0.00000000000E+00  0.00000000000E+00  0.13611689073E+03  0.13611689073E+03  0.00000000000E+00 0. -1.
         -1   -1    0    0    0  501 -0.00000000000E+00 -0.00000000000E+00 -0.11232714892E+03  0.11232714892E+03  0.00000000000E+00 0.  1.
         23    2    1    2    0    0 -0.32339042093E+02 -0.28396111481E+02 -0.27955864736E+02  0.13520935803E+03  0.12509151584E+03 0.  0.
          5    1    3    3  502    0  0.13110752017E+01 -0.71186903688E+02 -0.36217759438E+02  0.79990578655E+02  0.41800000000E+01 0.  1.
         -5    1    3    3    0  502 -0.33650117294E+02  0.42790792207E+02  0.82618947014E+01  0.55218779375E+02  0.41800000000E+01 0.  1.
        -11    1    1    2    0    0  0.18820129391E+02 -0.31481258302E+02  0.32218644053E+02  0.48819134765E+02  0.00000000000E+00 0.  1.
         11    1    1    2    0    0  0.13518912701E+02  0.59877369783E+02  0.19526962485E+02  0.64415546855E+02  0.00000000000E+00 0. -1.
</event>
<event>
 7    1  0.6473813E-006  0.1543028E+03  0.7561462E-02  0.1195283E+00
         -2   -1    0    0    0  501 -0.00000000000E+00  0.00000000000E+00  0.44207197784E+02  0.44207197784E+02  0.00000000000E+00 0.  1.
          2   -1    0    0  501    0  0.00000000000E+00 -0.00000000000E+00 -0.60893797333E+03  0.60893797333E+03  0.00000000000E+00 0. -1.
         23    2    1    2    0    0  0.12164790127E+03  0.11277425568E+02 -0.33139625085E+03  0.37469515955E+03  0.12509034855E+03 0.  0.
          5    1    3    3  502    0  0.13255051277E+03 -0.11401915793E+02 -0.19604720464E+03  0.23696333254E+03  0.41800000000E+01 0. -1.
         -5    1    3    3    0  502 -0.10902611499E+02  0.22679341361E+02 -0.13534904621E+03  0.13773182701E+03  0.41800000000E+01 0. -1.
        -11    1    1    2    0    0 -0.13418593987E+03 -0.18604022702E+02 -0.19483582637E+03  0.23730355108E+03  0.00000000000E+00 0. -1.
         11    1    1    2    0    0  0.12538038595E+02  0.73265971348E+01 -0.38498698324E+02  0.41146460480E+02  0.00000000000E+00 0.  1.
</event>
<event>
 7    1  0.6473813E-006  0.1424324E+03  0.7561462E-02  0.1210093E+00
         -1   -1    0    0    0  501 -0.00000000000E+00  0.00000000000E+00  0.13580493930E+03  0.13580493930E+03  0.00000000000E+00 0.  1.
          1   -1    0    0  501    0  0.00000000000E+00 -0.00000000000E+00 -0.15523235100E+03  0.15523235100E+03  0.00000000000E+00 0. -1.
         23    2    1    2    0    0 -0.93077897161E+02 -0.15517441906E+02 -0.15469879133E+02  0.15745503852E+03  0.12509390893E+03 0.  0.
          5    1    3    3  502    0  0.18999469175E+02 -0.35912568881E+02 -0.14849164447E+02  0.43458745004E+02  0.41800000000E+01 0.  1.
         -5    1    3    3    0  502 -0.11207736634E+03  0.20395126975E+02 -0.62071468668E+00  0.11399629352E+03  0.41800000000E+01 0.  1.
        -11    1    1    2    0    0  0.22672384809E+02  0.47548803391E+02  0.13300752861E+02  0.54330799401E+02  0.00000000000E+00 0. -1.
         11    1    1    2    0    0  0.70405512352E+02 -0.32031361486E+02 -0.17258285431E+02  0.79251452379E+02  0.00000000000E+00 0.  1.
</event>
<event>
 7    1  0.6473813E-006  0.1159881E+03  0.7561462E-02  0.1249866E+00
          2   -1    0    0  501    0  0.00000000000E+00  0.00000000000E+00  0.78934749892E+03  0.78934749892E+03  0.00000000000E+00 0. -1.
         -2   -1    0    0    0  501 -0.00000000000E+00 -0.00000000000E+00 -0.28692449110E+02  0.28692449110E+02  0.00000000000E+00 0.  1.
         23    2    1    2    0    0  0.39081719654E+02 -0.95915238267E+02  0.42563175845E+03  0.45556276434E+03  0.12509166521E+03 0.  0.
          5    1    3    3  502    0  0.57006366309E+02 -0.70047441298E+02  0.13067205263E+03  0.15889942596E+03  0.41800000000E+01 0. -1.
         -5    1    3    3    0  502 -0.17924646656E+02 -0.25867796969E+02  0.29495970583E+03  0.29666333838E+03  0.41800000000E+01 0. -1.
        -11    1    1    2    0    0  0.42034503615E+00  0.46745635027E+02  0.26133067466E+03  0.26547891178E+03  0.00000000000E+00 0. -1.
         11    1    1    2    0    0 -0.39502064690E+02  0.49169603241E+02  0.73692616702E+02  0.96998271913E+02  0.00000000000E+00 0.  1.
</event>
<event>
 7    1  0.6473813E-006  0.1610558E+03  0.7561462E-02  0.1187510E+00
          2   -1    0    0  501    0  0.00000000000E+00  0.00000000000E+00  0.51778971057E+03  0.51778971057E+03  0.00000000000E+00 0. -1.
         -2   -1    0    0    0  501 -0.00000000000E+00 -0.00000000000E+00 -0.10421675002E+03  0.10421675002E+03  0.00000000000E+00 0.  1.
         23    2    1    2    0    0 -0.68869448957E+01 -0.14839479865E+03  0.24428508582E+02  0.19572628502E+03  0.12507429928E+03 0.  0.
          5    1    3    3  502    0 -0.20566306205E+02 -0.12953333794E+03 -0.31538289806E+02  0.13495923352E+03  0.41800000000E+01 0.  1.
         -5    1    3    3    0  502  0.13679361310E+02 -0.18861460709E+02  0.55966798388E+02  0.60767051498E+02  0.41800000000E+01 0.  1.
        -11    1    1    2    0    0  0.38933859650E+02  0.47847105010E+02  0.90374101911E+02  0.10941969284E+03  0.00000000000E+00 0. -1.
         11    1    1    2    0    0 -0.32046914754E+02  0.10054769364E+03  0.29877035006E+03  0.31686048273E+03  0.00000000000E+00 0.  1.
</event>
<event>
 7    1  0.6473813E-006  0.1145158E+03  0.7561462E-02  0.1252429E+00
         -2   -1    0    0    0  501 -0.00000000000E+00  0.00000000000E+00  0.46840146295E+02  0.46840146295E+02  0.00000000000E+00 0.  1.
          2   -1    0    0  501    0  0.00000000000E+00 -0.00000000000E+00 -0.38649000384E+03  0.38649000384E+03  0.00000000000E+00 0. -1.
         23    2    1    2    0    0  0.69652290444E+01 -0.54497143046E+02 -0.94922586420E+02  0.16636067864E+03  0.12508846857E+03 0.  0.
          5    1    3    3  502    0 -0.13629381287E+01 -0.90737597271E+02 -0.38517997542E+02  0.98672578225E+02  0.41800000000E+01 0. -1.
         -5    1    3    3    0  502  0.83281671732E+01  0.36240454225E+02 -0.56404588878E+02  0.67688100412E+02  0.41800000000E+01 0. -1.
        -11    1    1    2    0    0 -0.40199757607E+02  0.41122662014E+01 -0.57694814635E+02  0.70438788183E+02  0.00000000000E+00 0.  1.
         11    1    1    2    0    0  0.33234528563E+02  0.50384876845E+02 -0.18703245649E+03  0.19653068332E+03  0.00000000000E+00 0. -1.
</event>
<event>
 7    1  0.6473813E-006  0.1051266E+03  0.7561462E-02  0.1269870E+00
          1   -1    0    0  501    0  0.00000000000E+00  0.00000000000E+00  0.34914215056E+03  0.34914215056E+03  0.00000000000E+00 0. -1.
         -1   -1    0    0    0  501 -0.00000000000E+00 -0.00000000000E+00 -0.39757075830E+02  0.39757075830E+02  0.00000000000E+00 0.  1.
         23    2    1    2    0    0 -0.20699132955E+02  0.35663218811E+02  0.13898402172E+03  0.19150274869E+03  0.12512563758E+03 0.  0.
          5    1    3    3  502    0  0.45215235070E+02 -0.88568127693E+00  0.91973667121E+02  0.10257597066E+03  0.41800000000E+01 0. -1.
         -5    1    3    3    0  502 -0.65914368024E+02  0.36548900088E+02  0.47010354602E+02  0.88926778023E+02  0.41800000000E+01 0. -1.
        -11    1    1    2    0    0  0.16835558148E+01  0.25369382394E+02  0.95973195129E+02  0.99283906584E+02  0.00000000000E+00 0. -1.
         11    1    1    2    0    0  0.19015577140E+02 -0.61032601205E+02  0.74427857882E+02  0.98112571125E+02  0.00000000000E+00 0.  1.
</event>
<event>
 7    1  0.6473813E-006  0.1964370E+03  0.7561462E-02  0.1152780E+00
         -2   -1    0    0    0  501 -0.00000000000E+00  0.00000000000E+00  0.63754967026E+02  0.63754967026E+02  0.00000000000E+00 0.  1.
          2   -1    0    0  501    0  0.00000000000E+00 -0.00000000000E+00 -0.11079243480E+04  0.11079243480E+04  0.00000000000E+00 0. -1.
         23    2    1    2    0    0 -0.71896201181E+02 -0.16687755751E+03 -0.16921613714E+03  0.27481035756E+03  0.11776862319E+03 0.  0.
          5    1    3    3  502    0  0.16279148828E+02 -0.34341438990E+02  0.52554740952E+01  0.38593231614E+02  0.41800000000E+01 0. -1.
         -5    1    3    3    0  502 -0.88175350009E+02 -0.13253611852E+03 -0.17447161124E+03  0.23621712594E+03  0.41800000000E+01 0.  1.
        -11    1    1    2    0    0  0.86442164719E+02  0.14992596770E+03 -0.80666664529E+03  0.82502189077E+03  0.00000000000E+00 0. -1.
         11    1    1    2    0    0 -0.14545963539E+02  0.16951589808E+02 -0.68286598575E+02  0.71847066727E+02  0.00000000000E+00 0.  1.
</event>
<event>
 7    1  0.6473813E-006  0.1099391E+03  0.7561462E-02  0.1260683E+00
         -2   -1    0    0    0  501 -0.00000000000E+00  0.00000000000E+00  0.26558553982E+02  0.26558553982E+02  0.00000000000E+00 0.  1.
          2   -1    0    0  501    0  0.00000000000E+00 -0.00000000000E+00 -0.62516222351E+03  0.62516222351E+03  0.00000000000E+00 0. -1.
         23    2    1    2    0    0  0.34175636251E+02  0.17831836896E+01 -0.17943470010E+03  0.22139436810E+03  0.12508997069E+03 0.  0.
          5    1    3    3  502    0  0.58670880170E+02  0.47609291373E+02 -0.12425556961E+03  0.14548483008E+03  0.41800000000E+01 0. -1.
         -5    1    3    3    0  502 -0.24495243919E+02 -0.45826107683E+02 -0.55179130492E+02  0.75909538017E+02  0.41800000000E+01 0. -1.
        -11    1    1    2    0    0  0.16691357442E+02 -0.29687015744E+02 -0.93052484490E+02  0.99089278869E+02  0.00000000000E+00 0. -1.
         11    1    1    2    0    0 -0.50866993692E+02  0.27903832054E+02 -0.32611648494E+03  0.33123713053E+03  0.00000000000E+00 0.  1.
</event>
<event>
 7    1  0.6473813E-006  0.1190807E+03  0.7561462E-02  0.1244621E+00
          2   -1    0    0  501    0  0.00000000000E+00  0.00000000000E+00  0.88763737428E+03  0.88763737428E+03  0.00000000000E+00 0.  1.
         -2   -1    0    0    0  501 -0.00000000000E+00 -0.00000000000E+00 -0.21782804256E+02  0.21782804256E+02  0.00000000000E+00 0. -1.
         23    2    1    2    0    0  0.74334005620E+02  0.39674791445E+02  0.56905169763E+03  0.58869934007E+03  0.12508974764E+03 0.  0.
          5    1    3    3  502    0 -0.88886096523E+01  0.43214383143E+02  0.70876575027E+02  0.83590977860E+02  0.41800000000E+01 0.  1.
         -5    1    3    3    0  502  0.83222615272E+02 -0.35395916975E+01  0.49817512260E+03  0.50510836221E+03  0.41800000000E+01 0.  1.
        -11    1    1    2    0    0 -0.83775992963E+02 -0.16456073839E+02  0.15722610558E+03  0.17891134016E+03  0.00000000000E+00 0. -1.
         11    1    1    2    0    0  0.94419873431E+01 -0.23218717607E+02  0.13957676683E+03  0.14180949831E+03  0.00000000000E+00 0.  1.
</event>
<event>
 7    1  0.6473813E-006  0.1255324E+03  0.7561462E-02  0.1234240E+00
         -2   -1    0    0    0  501 -0.00000000000E+00  0.00000000000E+00  0.12151592212E+03  0.12151592212E+03  0.00000000000E+00 0.  1.
          2   -1    0    0  501    0  0.00000000000E+00 -0.00000000000E+00 -0.15077064174E+03  0.15077064174E+03  0.00000000000E+00 0. -1.
         23    2    1    2    0    0 -0.34484958805E+02  0.67702154938E+02  0.89441736424E+01  0.14663453774E+03  0.12509554448E+03 0.  0.
          5    1    3    3  502    0  0.22643548630E+02  0.70702640850E+02 -0.26810628083E+02  0.79043506348E+02  0.41800000000E+01 0. -1.
         -5    1    3    3    0  502 -0.57128507436E+02 -0.30004859118E+01  0.35754801725E+02  0.67591031387E+02  0.41800000000E+01 0. -1.
        -11    1    1    2    0    0 -0.30475066474E+02 -0.35680798951E+02 -0.10302277366E+02  0.48041502988E+02  0.00000000000E+00 0.  1.
         11    1    1    2    0    0  0.64960025279E+02 -0.32021355987E+02 -0.27896615899E+02  0.77610523141E+02  0.00000000000E+00 0. -1.
</event>
<event>
 7    1  0.6473813E-006  0.1069122E+03  0.7561462E-02  0.1266397E+00
          2   -1    0    0  501    0  0.00000000000E+00  0.00000000000E+00  0.40715633635E+02  0.40715633635E+02  0.00000000000E+00 0. -1.
         -2   -1    0    0    0  501 -0.00000000000E+00 -0.00000000000E+00 -0.30652030319E+03  0.30652030319E+03  0.00000000000E+00 0.  1.
         23    2    1    2    0    0 -0.15401517581E+02 -0.23842583809E+02 -0.17619875572E+03  0.21793819857E+03  0.12508149875E+03 0.  0.
          5    1    3    3  502    0 -0.69564850308E+02 -0.21796898633E+02 -0.88223976265E+02  0.11452211828E+03  0.41800000000E+01 0.  1.
         -5    1    3    3    0  502  0.54163332728E+02 -0.20456851758E+01 -0.87974779459E+02  0.10341608028E+03  0.41800000000E+01 0.  1.
        -11    1    1    2    0    0 -0.32254325332E+02  0.21431405215E+02 -0.64872066612E+02  0.75551516587E+02  0.00000000000E+00 0.  1.
         11    1    1    2    0    0  0.47655842912E+02  0.24111785939E+01 -0.24733847223E+02  0.53746221675E+02  0.00000000000E+00 0. -1.
</event>
<event>
 7    1  0.6473813E-006  0.1767469E+03  0.7561462E-02  0.1170989E+00
         -2   -1    0    0    0  501 -0.00000000000E+00  0.00000000000E+00  0.54417630004E+02  0.54417630004E+02  0.00000000000E+00 0.  1.
          2   -1    0    0  501    0  0.00000000000E+00 -0.00000000000E+00 -0.94252899165E+03  0.94252899165E+03  0.00000000000E+00 0. -1.
         23    2    1    2    0    0  0.60531209254E+02  0.12737872071E+03 -0.15313884526E+03  0.24287326870E+03  0.12508618205E+03 0.  0.
          5    1    3    3  502    0  0.82223580995E+02  0.14046408354E+03 -0.13347610470E+03  0.21053317782E+03  0.41800000000E+01 0. -1.
         -5    1    3    3    0  502 -0.21692371741E+02 -0.13085362830E+02 -0.19662740559E+02  0.32340090885E+02  0.41800000000E+01 0. -1.
        -11    1    1    2    0    0 -0.68153506122E+02 -0.43659804641E+02 -0.28288332489E+03  0.29423469279E+03  0.00000000000E+00 0.  1.
         11    1    1    2    0    0  0.76222968677E+01 -0.83718916067E+02 -0.45208919149E+03  0.45983866016E+03  0.00000000000E+00 0. -1.
</event>
<event>
 7    1  0.6473813E-006  0.1492471E+03  0.7561462E-02  0.1201401E+00
         -2   -1    0    0    0  501 -0.00000000000E+00  0.00000000000E+00  0.67724669103E+02  0.67724669103E+02  0.00000000000E+00 0.  1.
          2   -1    0    0  501    0  0.00000000000E+00 -0.00000000000E+00 -0.60250929750E+03  0.60250929750E+03  0.00000000000E+00 0. -1.
         23    2    1    2    0    0  0.18550066756E+02 -0.13249189474E+03 -0.10533445736E+03  0.21128411336E+03  0.12508965386E+03 0.  0.
          5    1    3    3  502    0  0.14934882962E+02 -0.14716502429E+03 -0.11945951988E+03  0.19018055735E+03  0.41800000000E+01 0.  1.
         -5    1    3    3    0  502  0.36151837936E+01  0.14673129554E+02  0.14125062523E+02  0.21103556005E+02  0.41800000000E+01 0.  1.
        -11    1    1    2    0    0 -0.16734702480E+02  0.59180150030E+02 -0.74992905672E+02  0.96985959426E+02  0.00000000000E+00 0.  1.
         11    1    1    2    0    0 -0.18153642756E+01  0.73311744709E+02 -0.35445726537E+03  0.36196389382E+03  0.00000000000E+00 0. -1.
</event>
<event>
 7    1  0.6473813E-006  0.6552355E+02  0.7561462E-02  0.1376013E+00
          1   -1    0    0  501    0  0.00000000000E+00  0.00000000000E+00  0.89971903065E+02  0.89971903065E+02  0.00000000000E+00 0. -1.
         -1   -1    0    0    0  501 -0.00000000000E+00 -0.00000000000E+00 -0.15183581000E+03  0.15183581000E+03  0.00000000000E+00 0.  1.
         23    2    1    2    0    0  0.76430782688E+01  0.19393394996E+02 -0.65645480851E+02  0.13559477500E+03  0.11679937258E+03 0.  0.
          5    1    3    3  502    0 -0.16937116811E+02  0.55815347943E+02 -0.24735065049E+01  0.58530416249E+02  0.41800000000E+01 0. -1.
         -5    1    3    3    0  502  0.24580195080E+02 -0.36421952947E+02 -0.63171974347E+02  0.77064358750E+02  0.41800000000E+01 0.  1.
        -11    1    1    2    0    0  0.47120812751E+01 -0.14317824930E+02 -0.49260431896E+02  0.51514987831E+02  0.00000000000E+00 0.  1.
         11    1    1    2    0    0 -0.12355159544E+02 -0.50755700666E+01  0.53042005815E+02  0.54697950233E+02  0.00000000000E+00 0. -1.
</event>
<event>
 7    1  0.6473813E-006  0.1850418E+03  0.7561462E-02  0.1163011E+00
         -1   -1    0    0    0  501 -0.00000000000E+00  0.00000000000E+00  0.68069151912E+03  0.68069151912E+03  0.00000000000E+00 0.  1.
          1   -1    0    0  501    0  0.00000000000E+00 -0.00000000000E+00 -0.51346361446E+02  0.51346361446E+02  0.00000000000E+00 0. -1.
         23    2    1    2    0    0 -0.69363235178E+02  0.13445996573E+03  0.36314169832E+03  0.41280732687E+03  0.12508898944E+03 0.  0.
          5    1    3    3  502    0  0.32761034885E+02  0.12560077938E+02  0.46002509377E+02  0.58006415452E+02  0.41800000000E+01 0. -1.
         -5    1    3    3    0  502 -0.10212427006E+03  0.12189988779E+03  0.31713918894E+03  0.35480091142E+03  0.41800000000E+01 0. -1.
        -11    1    1    2    0    0 -0.20651789508E+02 -0.12683871306E+02  0.45803819256E+02  0.51820525466E+02  0.00000000000E+00 0.  1.
         11    1    1    2    0    0  0.90015024687E+02 -0.12177609442E+03  0.22039964010E+03  0.26741002823E+03  0.00000000000E+00 0. -1.
</event>
<event>
 7    1  0.6473813E-006  0.1215202E+03  0.7561462E-02  0.1240610E+00
         -3   -1    0    0    0  501 -0.00000000000E+00  0.00000000000E+00  0.45717707778E+02  0.45717707778E+02  0.00000000000E+00 0.  1.
          3   -1    0    0  501    0  0.00000000000E+00 -0.00000000000E+00 -0.42250370378E+03  0.42250370378E+03  0.00000000000E+00 0. -1.
         23    2    1    2    0    0 -0.48385231195E+01 -0.83898927835E+02 -0.16346673660E+03  0.22233692200E+03  0.12509952644E+03 0.  0.
          5    1    3    3  502    0  0.33233943897E+02  0.20561917021E+02 -0.38513131654E+02  0.55027458312E+02  0.41800000000E+01 0.  1.
         -5    1    3    3    0  502 -0.38072467017E+02 -0.10446084486E+03 -0.12495360494E+03  0.16730946369E+03  0.41800000000E+01 0.  1.
        -11    1    1    2    0    0  0.18943299061E+02  0.22193002908E+02 -0.16140400505E+03  0.16402021462E+03  0.00000000000E+00 0. -1.
         11    1    1    2    0    0 -0.14104775941E+02  0.61705924927E+02 -0.51915254353E+02  0.81864274931E+02  0.00000000000E+00 0.  1.
</event>
<event>
 7    1  0.6823685E-006  0.1304776E+03  0.7561462E-02  0.1226749E+00
          3   -1    0    0  501    0  0.00000000000E+00  0.00000000000E+00  0.66048313406E+02  0.66048313406E+02  0.00000000000E+00 0. -1.
         -3   -1    0    0    0  501 -0.00000000000E+00 -0.00000000000E+00 -0.38202824402E+03  0.38202824402E+03  0.00000000000E+00 0.  1.
         23    2    1    2    0    0  0.11058337868E+03 -0.16056100566E+02 -0.19876540262E+03  0.26007894945E+03  0.12508754000E+03 0.  0.
          5    1    3    3  502    0  0.65074096499E+02 -0.31026622505E+02 -0.19930656079E+03  0.21198553468E+03  0.41800000000E+01 0.  1.
         -5    1    3    3    0  502  0.45509282183E+02  0.14970521939E+02  0.54115817512E+00  0.48093414768E+02  0.41800000000E+01 0.  1.
        -11    1    1    2    0    0 -0.54415911711E+02 -0.35038618843E+02 -0.27118976808E+02  0.70172894774E+02  0.00000000000E+00 0. -1.
         11    1    1    2    0    0 -0.56167466970E+02  0.51094719409E+02 -0.90095551189E+02  0.11782471320E+03  0.00000000000E+00 0.  1.
</event>
<event>
 7    1  0.6473813E-006  0.1097763E+03  0.7561462E-02  0.1260985E+00
         -2   -1    0    0    0  501 -0.00000000000E+00  0.00000000000E+00  0.29151437071E+03  0.29151437071E+03  0.00000000000E+00 0.  1.
          2   -1    0    0  501    0  0.00000000000E+00 -0.00000000000E+00 -0.81047576453E+02  0.81047576453E+02  0.00000000000E+00 0. -1.
         23    2    1    2    0    0 -0.11942419802E+02  0.70769456429E+02  0.21574245403E+03  0.25950522686E+03  0.12508884419E+03 0.  0.
          5    1    3    3  502    0  0.16631231659E+02  0.94287109108E+02  0.10262084602E+03  0.14041070917E+03  0.41800000000E+01 0. -1.
         -5    1    3    3    0  502 -0.28573651461E+02 -0.23517652679E+02  0.11312160801E+03  0.11909451769E+03  0.41800000000E+01 0. -1.
        -11    1    1    2    0    0 -0.18682514469E+02 -0.21701973305E+02  0.33004964527E+02  0.43695991529E+02  0.00000000000E+00 0.  1.
         11    1    1    2    0    0  0.30624934271E+02 -0.49067483124E+02 -0.38280624303E+02  0.69360728775E+02  0.00000000000E+00 0. -1.
</event>
<event>
 7    1  0.6473813E-006  0.9781736E+02  0.7561462E-02  0.1284954E+00
          2   -1    0    0  501    0  0.00000000000E+00  0.00000000000E+00  0.57204561863E+03  0.57204561863E+03  0.00000000000E+00 0. -1.
         -2   -1    0    0    0  501 -0.00000000000E+00 -0.00000000000E+00 -0.27149940946E+02  0.27149940946E+02  0.00000000000E+00 0.  1.
         23    2    1    2    0    0  0.41530119659E+02 -0.11900746910E+02  0.24177787725E+03  0.27562758076E+03  0.12509053814E+03 0.  0.
          5    1    3    3  502    0 -0.36355461938E+02 -0.20174373201E+02  0.14583451034E+03  0.15170333468E+03  0.41800000000E+01 0.  1.
         -5    1    3    3    0  502  0.77885581597E+02  0.82736262917E+01  0.95943366905E+02  0.12392424608E+03  0.41800000000E+01 0.  1.
        -11    1    1    2    0    0 -0.36064488425E+02  0.35847312468E+02  0.29236667760E+03  0.29675570982E+03  0.00000000000E+00 0. -1.
         11    1    1    2    0    0 -0.54656312336E+01 -0.23946565558E+02  0.10751122835E+02  0.26812269002E+02  0.00000000000E+00 0.  1.
</event>
<event>
 7    1  0.6473813E-006  0.9677607E+02  0.7561462E-02  0.1287225E+00
         -3   -1    0    0    0  501 -0.00000000000E+00  0.00000000000E+00  0.16172614639E+03  0.16172614639E+03  0.00000000000E+00 0.  1.
          3   -1    0    0  501    0  0.00000000000E+00 -0.00000000000E+00 -0.11952054651E+03  0.11952054651E+03  0.00000000000E+00 0. -1.
         23    2    1    2    0    0 -0.36482851990E+02 -0.12069999932E+02  0.12223202801E+03  0.17121616850E+03  0.11356770797E+03 0.  0.
          5    1    3    3  502    0  0.38617868843E+02  0.91252788283E+01  0.56102537020E+02  0.68844589968E+02  0.41800000000E+01 0. -1.
         -5    1    3    3    0  502 -0.75100720833E+02 -0.21195278761E+02  0.66129490994E+02  0.10237157853E+03  0.41800000000E+01 0.  1.
        -11    1    1    2    0    0  0.19610483768E+02 -0.26755012954E+02 -0.36039663700E+02  0.48982233018E+02  0.00000000000E+00 0. -1.
         11    1    1    2    0    0  0.16872368222E+02  0.38825012887E+02 -0.43986764437E+02  0.61048291382E+02  0.00000000000E+00 0.  1.
</event>
<event>
 7    1  0.6473813E-006  0.1384458E+03  0.7561462E-02  0.1215436E+00
          4   -1    0    0  501    0  0.00000000000E+00  0.00000000000E+00  0.13837913149E+03  0.13837913149E+03  0.00000000000E+00 0. -1.
         -4   -1    0    0    0  501 -0.00000000000E+00 -0.00000000000E+00 -0.14154194652E+03  0.14154194652E+03  0.00000000000E+00 0.  1.
         23    2    1    2    0    0 -0.26386152301E+02 -0.83758118118E+02 -0.16220750728E+01  0.15284580093E+03  0.12509019286E+03 0.  0.
          5    1    3    3  502    0 -0.53704544975E+02  0.10134602985E+02 -0.38269729443E+01  0.54945486171E+02  0.41800000000E+01 0.  1.
         -5    1    3    3    0  502  0.27318392674E+02 -0.93892721103E+02  0.22048978714E+01  0.97900314754E+02  0.41800000000E+01 0.  1.
        -11    1    1    2    0    0  0.46945980508E+02  0.10487039823E+02 -0.13684031676E+02  0.50011556795E+02  0.00000000000E+00 0.  1.
         11    1    1    2    0    0 -0.20559828207E+02  0.73271078295E+02  0.12143291725E+02  0.77063720286E+02  0.00000000000E+00 0. -1.
</event>
<event>
 7    1  0.6473813E-006  0.1588673E+03  0.7561462E-02  0.1189982E+00
         -2   -1    0    0    0  501 -0.00000000000E+00  0.00000000000E+00  0.12001522736E+04  0.12001522736E+04  0.00000000000E+00 0.  1.
          2   -1    0    0  501    0  0.00000000000E+00 -0.00000000000E+00 -0.32495773936E+02  0.32495773936E+02  0.00000000000E+00 0. -1.
         23    2    1    2    0    0  0.11389410510E+03  0.84725844711E+02  0.87525834880E+03  0.89547526150E+03  0.12509368837E+03 0.  0.
          5    1    3    3  502    0  0.99333738010E+02  0.10865323762E+03  0.82264698785E+03  0.83572618517E+03  0.41800000000E+01 0. -1.
         -5    1    3    3    0  502  0.14560367091E+02 -0.23927392911E+02  0.52611360951E+02  0.59749076331E+02  0.41800000000E+01 0. -1.
        -11    1    1    2    0    0 -0.17766571192E+02 -0.16638057875E+02  0.27608666074E+01  0.24496906054E+02  0.00000000000E+00 0. -1.
         11    1    1    2    0    0 -0.96127533908E+02 -0.68087786836E+02  0.28963728421E+03  0.31267587994E+03  0.00000000000E+00 0.  1.
</event>
<event>
 7    1  0.6473813E-006  0.2271769E+03  0.7561462E-02  0.1128643E+00
         -2   -1    0    0    0  501 -0.00000000000E+00  0.00000000000E+00  0.84532486967E+02  0.84532486967E+02  0.00000000000E+00 0.  1.
          2   -1    0    0  501    0  0.00000000000E+00 -0.00000000000E+00 -0.71541510356E+03  0.71541510356E+03  0.00000000000E+00 0. -1.
         23    2    1    2    0    0  0.13653493652E+03  0.15325059049E+03 -0.19528236214E+03  0.30969360323E+03  0.12508954609E+03 0.  0.
          5    1    3    3  502    0 -0.17832407230E+02  0.12054529112E+02  0.21204480315E+01  0.22028960928E+02  0.41800000000E+01 0. -1.
         -5    1    3    3    0  502  0.15436734375E+03  0.14119606138E+03 -0.19740281017E+03  0.28766464230E+03  0.41800000000E+01 0. -1.
        -11    1    1    2    0    0 -0.45686055862E+02 -0.11658009705E+03 -0.21355215250E+03  0.24755334085E+03  0.00000000000E+00 0.  1.
         11    1    1    2    0    0 -0.90848880658E+02 -0.36670493441E+02 -0.22204810195E+03  0.24270064645E+03  0.00000000000E+00 0. -1.
</event>
<event>
 7    1  0.6473813E-006  0.1725246E+03  0.7561462E-02  0.1175240E+00
         -1   -1    0    0    0  501 -0.00000000000E+00  0.00000000000E+00  0.54754647019E+03  0.54754647019E+03  0.00000000000E+00 0.  1.
          1   -1    0    0  501    0  0.00000000000E+00 -0.00000000000E+00 -0.73712429298E+02  0.73712429298E+02  0.00000000000E+00 0. -1.
         23    2    1    2    0    0 -0.26638758600E+02  0.15871613908E+03  0.32614168375E+03  0.38459791897E+03  0.12508687035E+03 0.  0.
          5    1    3    3  502    0 -0.42319132318E+02  0.13905233095E+03  0.32825025270E+03  0.35901554354E+03  0.41800000000E+01 0.  1.
         -5    1    3    3    0  502  0.15680373717E+02  0.19663808124E+02 -0.21085689478E+01  0.25582375435E+02  0.41800000000E+01 0.  1.
        -11    1    1    2    0    0  0.31313005431E+02 -0.24270962616E+02  0.39928851435E+01  0.39818677367E+02  0.00000000000E+00 0. -1.
         11    1    1    2    0    0 -0.46742468311E+01 -0.13444517646E+03  0.14369947199E+03  0.19684230315E+03  0.00000000000E+00 0.  1.
</event>
<event>
 7    1  0.6473813E-006  0.1213757E+03  0.7561462E-02  0.1240845E+00
         -2   -1    0    0    0  501 -0.00000000000E+00  0.00000000000E+00  0.16136836082E+02  0.16136836082E+02  0.00000000000E+00 0.  1.
          2   -1    0    0  501    0  0.00000000000E+00 -0.00000000000E+00 -0.95646963071E+03  0.95646963071E+03  0.00000000000E+00 0. -1.
         23    2    1    2    0    0 -0.33048084804E-01  0.66124071180E+02 -0.48757229881E+03  0.50768786090E+03  0.12509126132E+03 0.  0.
          5    1    3    3  502    0  0.59611826256E+02  0.51678345004E+02 -0.24416780508E+03  0.25663127364E+03  0.41800000000E+01 0. -1.
         -5    1    3    3    0  502 -0.59644874341E+02  0.14445726176E+02 -0.24340449372E+03  0.25105658726E+03  0.41800000000E+01 0. -1.
        -11    1    1    2    0    0 -0.36083731214E+02 -0.52350663203E+02 -0.33487728573E+03  0.34085983057E+03  0.00000000000E+00 0. -1.
         11    1    1    2    0    0  0.36116779299E+02 -0.13773407977E+02 -0.11788321009E+03  0.12405877532E+03  0.00000000000E+00 0.  1.
</event>
<event>
 7    1  0.6473813E-006  0.1472850E+03  0.7561462E-02  0.1203849E+00
         -1   -1    0    0    0  501 -0.00000000000E+00  0.00000000000E+00  0.12704215499E+04  0.12704215499E+04  0.00000000000E+00 0.  1.
          1   -1    0    0  501    0  0.00000000000E+00 -0.00000000000E+00 -0.53306890808E+02  0.53306890808E+02  0.00000000000E+00 0. -1.
         23    2    1    2    0    0  0.91669633208E+02 -0.11158652219E+03  0.11008051594E+04  0.11172618242E+04  0.12508841341E+03 0.  0.
          5    1    3    3  502    0  0.39214743512E+02 -0.78314183209E+02  0.26476105806E+03  0.27890284628E+03  0.41800000000E+01 0.  1.
         -5    1    3    3    0  502  0.52454889696E+02 -0.33272338978E+02  0.83604410135E+03  0.83835897788E+03  0.41800000000E+01 0.  1.
        -11    1    1    2    0    0 -0.58733789761E+02  0.77347952778E+02  0.12487058460E+03  0.15819300477E+03  0.00000000000E+00 0.  1.
         11    1    1    2    0    0 -0.32935843447E+02  0.34238569409E+02 -0.85610849188E+01  0.48273611774E+02  0.00000000000E+00 0. -1.
</event>
<event>
 7    1  0.6473813E-006  0.1013595E+03  0.7561462E-02  0.1277463E+00
          2   -1    0    0  501    0  0.00000000000E+00  0.00000000000E+00  0.13825123361E+03  0.13825123361E+03  0.00000000000E+00 0. -1.
         -2   -1    0    0    0  501 -0.00000000000E+00 -0.00000000000E+00 -0.10644424578E+03  0.10644424578E+03  0.00000000000E+00 0.  1.
         23    2    1    2    0    0 -0.11685574259E+02  0.42313971136E+02 -0.72442741078E+01  0.13009496149E+03  0.12225054069E+03 0.  0.
          5    1    3    3  502    0 -0.36412706140E+02  0.56840861088E+02  0.37084457965E+02  0.77132989571E+02  0.41800000000E+01 0. -1.
         -5    1    3    3    0  502  0.24727131881E+02 -0.14526889952E+02 -0.44328732073E+02  0.52961971922E+02  0.41800000000E+01 0.  1.
        -11    1    1    2    0    0  0.74549150555E+01 -0.73880429518E+02  0.17945525326E+02  0.76393294886E+02  0.00000000000E+00 0. -1.
         11    1    1    2    0    0  0.42306592038E+01  0.31566458382E+02  0.21105736610E+02  0.38207223007E+02  0.00000000000E+00 0.  1.
</event>
<event>
 7    1  0.6473813E-006  0.8336424E+02  0.7561462E-02  0.1319766E+00
         -2   -1    0    0    0  501 -0.00000000000E+00  0.00000000000E+00  0.52331594464E+02  0.52331594464E+02  0.00000000000E+00 0.  1.
          2   -1    0    0  501    0  0.00000000000E+00 -0.00000000000E+00 -0.30844534260E+03  0.30844534260E+03  0.00000000000E+00 0. -1.
         23    2    1    2    0    0 -0.55265701858E+02  0.66598509409E+01 -0.96756185253E+02  0.16765479647E+03  0.12509084690E+03 0.  0.
          5    1    3    3  502    0 -0.27677917404E+02 -0.28902367839E+02  0.18178146144E+02  0.44151233003E+02  0.41800000000E+01 0. -1.
         -5    1    3    3    0  502 -0.27587784454E+02  0.35562218779E+02 -0.11493433140E+03  0.12350356347E+03  0.41800000000E+01 0. -1.
        -11    1    1    2    0    0  0.44377276079E+02 -0.31331700368E+02 -0.15690543197E+03  0.16604316506E+03  0.00000000000E+00 0. -1.
         11    1    1    2    0    0  0.10888425779E+02  0.24671849427E+02 -0.24521309118E+01  0.27078975537E+02  0.00000000000E+00 0.  1.
</event>
<event>
 7    1  0.6473813E-006  0.1357879E+03  0.7561462E-02  0.1219112E+00
          1   -1    0    0  501    0  0.00000000000E+00  0.00000000000E+00  0.59616950400E+02  0.59616950400E+02  0.00000000000E+00 0. -1.
         -1   -1    0    0    0  501 -0.00000000000E+00 -0.00000000000E+00 -0.36537699612E+03  0.36537699612E+03  0.00000000000E+00 0.  1.
         23    2    1    2    0    0  0.47598224550E+01 -0.99513938615E+02 -0.17239888849E+03  0.23514747442E+03  0.12508908060E+03 0.  0.
          5    1    3    3  502    0 -0.41952242333E+02 -0.93699069120E+02 -0.15247131664E+03  0.18385994939E+03  0.41800000000E+01 0. -1.
         -5    1    3    3    0  502  0.46712064788E+02 -0.58148694947E+01 -0.19927571846E+02  0.51287525030E+02  0.41800000000E+01 0. -1.
        -11    1    1    2    0    0 -0.37235167172E+02  0.56712651161E+02 -0.11414750624E+03  0.13278718182E+03  0.00000000000E+00 0. -1.
         11    1    1    2    0    0  0.32475344717E+02  0.42801287454E+02 -0.19213650989E+02  0.57059290274E+02  0.00000000000E+00 0.  1.
</event>
<event>
 7    1  0.6473813E-006  0.1049886E+03  0.7561462E-02  0.1270142E+00
          1   -1    0    0  501    0  0.00000000000E+00  0.00000000000E+00  0.49817411088E+03  0.49817411088E+03  0.00000000000E+00 0. -1.
         -1   -1    0    0    0  501 -0.00000000000E+00 -0.00000000000E+00 -0.23463919988E+02  0.23463919988E+02  0.00000000000E+00 0.  1.
         23    2    1    2    0    0 -0.87316274360E+01  0.68678808935E+01  0.27341979700E+03  0.30089845355E+03  0.12513226943E+03 0.  0.
          5    1    3    3  502    0 -0.41383704242E+02  0.51206319652E+02  0.18745407558E+03  0.19872393163E+03  0.41800000000E+01 0.  1.
         -5    1    3    3    0  502  0.32652076806E+02 -0.44338438759E+02  0.85965721413E+02  0.10217452192E+03  0.41800000000E+01 0.  1.
        -11    1    1    2    0    0  0.99122703518E+01  0.40350654676E+02  0.72519337542E+02  0.83579200486E+02  0.00000000000E+00 0.  1.
         11    1    1    2    0    0 -0.11806429158E+01 -0.47218535570E+02  0.12877105635E+03  0.13716037683E+03  0.00000000000E+00 0. -1.
</event>
<event>
 7    1  0.6473813E-006  0.1216541E+03  0.7561462E-02  0.1240393E+00
         -1   -1    0    0    0  501 -0.00000000000E+00  0.00000000000E+00  0.31274173734E+02  0.31274173734E+02  0.00000000000E+00 0.  1.
          1   -1    0    0  501    0  0.00000000000E+00 -0.00000000000E+00 -0.49616832224E+03  0.49616832224E+03  0.00000000000E+00 0. -1.
         23    2    1    2    0    0  0.21525052933E+02  0.52955528489E+02 -0.21730708299E+03  0.25717034885E+03  0.12508638658E+03 0.  0.
          5    1    3    3  502    0  0.36250746480E+02  0.89345279006E+02 -0.13574047492E+03  0.16655222734E+03  0.41800000000E+01 0. -1.
         -5    1    3    3    0  502 -0.14725693547E+02 -0.36389750517E+02 -0.81566608073E+02  0.90618121508E+02  0.41800000000E+01 0. -1.
        -11    1    1    2    0    0 -0.55172524236E+02 -0.16227628155E+02 -0.15136459640E+03  0.16192153776E+03  0.00000000000E+00 0.  1.
         11    1    1    2    0    0  0.33647471303E+02 -0.36727900333E+02 -0.96222469108E+02  0.10835060936E+03  0.00000000000E+00 0. -1.
</event>
<event>
 7    1  0.6473813E-006  0.1765185E+03  0.7561462E-02  0.1171216E+00
         -1   -1    0    0    0  501 -0.00000000000E+00  0.00000000000E+00  0.66703172926E+03  0.66703172926E+03  0.00000000000E+00 0.  1.
          1   -1    0    0  501    0  0.00000000000E+00 -0.00000000000E+00 -0.60810926965E+02  0.60810926965E+02  0.00000000000E+00 0. -1.
         23    2    1    2    0    0  0.10482865486E+03  0.12938054519E+03  0.39049165158E+03  0.44255445678E+03  0.12506936042E+03 0.  0.
          5    1    3    3  502    0  0.10179142531E+03  0.81041241877E+02  0.15649742742E+03  0.20356348970E+03  0.41800000000E+01 0.  1.
         -5    1    3    3    0  502  0.30372295541E+01  0.48339303312E+02  0.23399422415E+03  0.23899096708E+03  0.41800000000E+01 0.  1.
        -11    1    1    2    0    0  0.54732650133E+01 -0.11889890808E+02 -0.31683335662E+01  0.13467162690E+02  0.00000000000E+00 0.  1.
         11    1    1    2    0    0 -0.11030191987E+03 -0.11749065438E+03  0.21889748428E+03  0.27182103675E+03  0.00000000000E+00 0. -1.
</event>
<event>
 7    1  0.6473813E-006  0.1338164E+03  0.7561462E-02  0.1221900E+00
         -1   -1    0    0    0  501 -0.00000000000E+00  0.00000000000E+00  0.70275014649E+02  0.70275014649E+02  0.00000000000E+00 0.  1.
          1   -1    0    0  501    0  0.00000000000E+00 -0.00000000000E+00 -0.33982353777E+03  0.33982353777E+03  0.00000000000E+00 0. -1.
         23    2    1    2    0    0  0.89002290708E+02 -0.19726696047E+02 -0.67206231110E+02  0.16874535930E+03  0.12509104084E+03 0.  0.
          5    1    3    3  502    0  0.59346110345E+02  0.41980554230E+02 -0.68743121954E+02  0.10013699098E+03  0.41800000000E+01 0. -1.
         -5    1    3    3    0  502  0.29656180363E+02 -0.61707250277E+02  0.15368908435E+01  0.68608368323E+02  0.41800000000E+01 0. -1.
        -11    1    1    2    0    0 -0.85644339569E+02  0.47715049610E+02 -0.12387996762E+03  0.15798077490E+03  0.00000000000E+00 0.  1.
         11    1    1    2    0    0 -0.33579511385E+01 -0.27988353563E+02 -0.78462324384E+02  0.83372418214E+02  0.00000000000E+00 0. -1.
</event>
<event>
 7    1  0.6473813E-006  0.1103688E+03  0.7561462E-02  0.1259889E+00
         -1   -1    0    0    0  501 -0.00000000000E+00  0.00000000000E+00  0.26902790613E+02  0.26902790613E+02  0.00000000000E+00 0.  1.
          1   -1    0    0  501    0  0.00000000000E+00 -0.00000000000E+00 -0.61296734950E+03  0.61296734950E+03  0.00000000000E+00 0. -1.
         23    2    1    2    0    0  0.32297761453E+02  0.58442275394E+02 -0.28264247128E+03  0.31621770256E+03  0.12509286106E+03 0.  0.
          5    1    3    3  502    0  0.60888360419E+02  0.14256990035E+02 -0.57793374570E+02  0.85253743281E+02  0.41800000000E+01 0.  1.
         -5    1    3    3    0  502 -0.28590598966E+02  0.44185285359E+02 -0.22484909671E+03  0.23096395927E+03  0.41800000000E+01 0.  1.
        -11    1    1    2    0    0  0.46194773798E+01  0.18959149442E+02 -0.21774026142E+02  0.29238623997E+02  0.00000000000E+00 0. -1.
         11    1    1    2    0    0 -0.36917238832E+02 -0.77401424835E+02 -0.28164806147E+03  0.29441381356E+03  0.00000000000E+00 0.  1.
</event>
<event>
 7    1  0.6473813E-006  0.5591064E+02  0.7561462E-02  0.1415841E+00
          1   -1    0    0  501    0  0.00000000000E+00  0.00000000000E+00  0.10478656284E+03  0.10478656284E+03  0.00000000000E+00 0. -1.
         -1   -1    0    0    0  501 -0.00000000000E+00 -0.00000000000E+00 -0.13051667916E+03  0.13051667916E+03  0.00000000000E+00 0.  1.
         23    2    1    2    0    0  0.56820694450E+01  0.10785929444E+02 -0.43955809527E+02  0.13314348340E+03  0.12508577775E+03 0.  0.
          5    1    3    3  502    0 -0.59734065934E+00 -0.40311340614E+01 -0.86898487634E+02  0.87094353495E+02  0.41800000000E+01 0. -1.
         -5    1    3    3    0  502  0.62794101043E+01  0.14817063505E+02  0.42942678107E+02  0.46049129907E+02  0.41800000000E+01 0. -1.
        -11    1    1    2    0    0 -0.59284598301E+01 -0.49895486503E+02 -0.13241706399E+02  0.51961995705E+02  0.00000000000E+00 0.  1.
         11    1    1    2    0    0  0.24639038517E+00  0.39109557059E+02  0.31467399609E+02  0.50197762895E+02  0.00000000000E+00 0. -1.
</event>
<event>
 7    1  0.6473813E-006  0.1402010E+03  0.7561462E-02  0.1213059E+00
          1   -1    0    0  501    0  0.00000000000E+00  0.00000000000E+00  0.91279056414E+03  0.91279056414E+03  0.00000000000E+00 0. -1.
         -1   -1    0    0    0  501 -0.00000000000E+00 -0.00000000000E+00 -0.25886300125E+02  0.25886300125E+02  0.00000000000E+00 0.  1.
         23    2    1    2    0    0  0.93425193098E+02  0.50212693787E+02  0.54181795819E+03  0.56609514261E+03  0.12508968521E+03 0.  0.
          5    1    3    3  502    0 -0.19419244839E+02  0.22574841579E+02  0.25264758877E+03  0.25443075100E+03  0.41800000000E+01 0. -1.
         -5    1    3    3    0  502  0.11284443794E+03  0.27637852208E+02  0.28917036942E+03  0.31166439161E+03  0.41800000000E+01 0. -1.
        -11    1    1    2    0    0 -0.39568859863E+02  0.20997101181E+02  0.17309748797E+03  0.17879964561E+03  0.00000000000E+00 0. -1.
         11    1    1    2    0    0 -0.53856333235E+02 -0.71209794967E+02  0.17198881786E+03  0.19378207605E+03  0.00000000000E+00 0.  1.
</event>
<event>
 7    1  0.6473813E-006  0.1050079E+03  0.7561462E-02  0.1270104E+00
          2   -1    0    0  501    0  0.00000000000E+00  0.00000000000E+00  0.68497143581E+03  0.68497143581E+03  0.00000000000E+00 0. -1.
         -2   -1    0    0    0  501 -0.00000000000E+00 -0.00000000000E+00 -0.25604408558E+02  0.25604408558E+02  0.00000000000E+00 0.  1.
         23    2    1    2    0    0  0.37633039731E+02 -0.26609433094E+02  0.20990326861E+03  0.24919438557E+03  0.12615130605E+03 0.  0.
          5    1    3    3  502    0 -0.26272313844E+02 -0.35439295888E+02  0.16406725322E+03  0.16994620957E+03  0.41800000000E+01 0. -1.
         -5    1    3    3    0  502  0.63905353575E+02  0.88298627943E+01  0.45836015392E+02  0.79248176002E+02  0.41800000000E+01 0.  1.
        -11    1    1    2    0    0 -0.78239122534E+01  0.57556733545E+02  0.20080334345E+03  0.20903581971E+03  0.00000000000E+00 0.  1.
         11    1    1    2    0    0 -0.29809127477E+02 -0.30947300451E+02  0.24866041519E+03  0.25234563909E+03  0.00000000000E+00 0. -1.
</event>
<event>
 7    1  0.6473813E-006  0.1063023E+03  0.7561462E-02  0.1267575E+00
          2   -1    0    0  501    0  0.00000000000E+00  0.00000000000E+00  0.43205811559E+02  0.43205811559E+02  0.00000000000E+00 0. -1.
         -2   -1    0    0    0  501 -0.00000000000E+00 -0.00000000000E+00 -0.52796775958E+03  0.52796775958E+03  0.00000000000E+00 0.  1.
         23    2    1    2    0    0  0.65214607232E+01 -0.93458050650E+02 -0.36527671568E+03  0.39731319148E+03  0.12511497284E+03 0.  0.
          5    1    3    3  502    0 -0.39921809935E+01 -0.68100324646E+02 -0.36308283900E+03  0.36945935108E+03  0.41800000000E+01 0.  1.
         -5    1    3    3    0  502  0.10513641717E+02 -0.25357726004E+02 -0.21938766775E+01  0.27853840402E+02  0.41800000000E+01 0.  1.
        -11    1    1    2    0    0  0.30501024357E+02  0.28606410849E+02 -0.12981031119E+02  0.43785230357E+02  0.00000000000E+00 0. -1.
         11    1    1    2    0    0 -0.37022485080E+02  0.64851639800E+02 -0.10650420122E+03  0.13007514930E+03  0.00000000000E+00 0.  1.
</event>
<event>
 7    1  0.6473813E-006  0.9912425E+02  0.7561462E-02  0.1282148E+00
         -1   -1    0    0    0  501 -0.00000000000E+00  0.00000000000E+00  0.47617466463E+03  0.47617466463E+03  0.00000000000E+00 0.  1.
          1   -1    0    0  501    0  0.00000000000E+00 -0.00000000000E+00 -0.25287861996E+02  0.25287861996E+02  0.00000000000E+00 0. -1.
         23    2    1    2    0    0  0.56419512404E+01 -0.11741643190E+02  0.28092983048E+03  0.30779677975E+03  0.12509032807E+03 0.  0.
          5    1    3    3  502    0  0.54887025807E+02 -0.10183546010E+02  0.62781399163E+02  0.84114604512E+02  0.41800000000E+01 0. -1.
         -5    1    3    3    0  502 -0.49245074567E+02 -0.15580971803E+01  0.21814843131E+03  0.22368217524E+03  0.41800000000E+01 0. -1.
        -11    1    1    2    0    0 -0.47934317712E+02  0.15461262660E+02  0.89854234153E+02  0.10300744076E+03  0.00000000000E+00 0. -1.
         11    1    1    2    0    0  0.42292366472E+02 -0.37196194700E+01  0.80102738008E+02  0.90658306113E+02  0.00000000000E+00 0.  1.
</event>
<event>
 7    1  0.6473813E-006  0.7718654E+02  0.7561462E-02  0.1337231E+00
          2   -1    0    0  501    0  0.00000000000E+00  0.00000000000E+00  0.32747303673E+02  0.32747303673E+02  0.00000000000E+00 0. -1.
         -2   -1    0    0    0  501 -0.00000000000E+00 -0.00000000000E+00 -0.47225748161E+03  0.47225748161E+03  0.00000000000E+00 0.  1.
         23    2    1    2    0    0  0.88310139858E-01  0.33159415242E+02 -0.37983034076E+03  0.39832098485E+03  0.11527777146E+03 0.  0.
          5    1    3    3  502    0  0.18864963660E+02 -0.23353350037E+02 -0.27365230468E+02  0.40836185551E+02  0.41800000000E+01 0. -1.
         -5    1    3    3    0  502 -0.18776653520E+02  0.56512765279E+02 -0.35246511029E+03  0.35748479930E+03  0.41800000000E+01 0.  1.
        -11    1    1    2    0    0  0.22718066261E+02  0.16194852405E+01 -0.60958599970E+02  0.65074451034E+02  0.00000000000E+00 0. -1.
         11    1    1    2    0    0 -0.22806376401E+02 -0.34778900483E+02  0.12787627899E+01  0.41609349401E+02  0.00000000000E+00 0.  1.
</event>
<event>
 7    1  0.6473813E-006  0.1210679E+03  0.7561462E-02  0.1241346E+00
          1   -1    0    0  501    0  0.00000000000E+00  0.00000000000E+00  0.89716485134E+03  0.89716485134E+03  0.00000000000E+00 0. -1.
         -1   -1    0    0    0  501 -0.00000000000E+00 -0.00000000000E+00 -0.17234927950E+02  0.17234927950E+02  0.00000000000E+00 0.  1.
         23    2    1    2    0    0 -0.58303010159E+02 -0.22711420560E+02  0.51355904655E+03  0.53225814918E+03  0.12506315789E+03 0.  0.
          5    1    3    3  502    0 -0.96582653920E+02 -0.22346212174E+02  0.32507869655E+03  0.33988408846E+03  0.41800000000E+01 0.  1.
         -5    1    3    3    0  502  0.38279643761E+02 -0.36520838630E+00  0.18848035000E+03  0.19237406072E+03  0.41800000000E+01 0.  1.
        -11    1    1    2    0    0  0.47874511441E+02  0.53562099392E+02  0.19750836948E+03  0.21016760776E+03  0.00000000000E+00 0.  1.
         11    1    1    2    0    0  0.10428498718E+02 -0.30850678832E+02  0.16886250736E+03  0.17197402235E+03  0.00000000000E+00 0. -1.
</event>
<event>
 7    1  0.6473813E-006  0.1263871E+03  0.7561462E-02  0.1232917E+00
         -4   -1    0    0    0  501 -0.00000000000E+00  0.00000000000E+00  0.43768997857E+03  0.43768997857E+03  0.00000000000E+00 0.  1.
          4   -1    0    0  501    0  0.00000000000E+00 -0.00000000000E+00 -0.43599836333E+02  0.43599836333E+02  0.00000000000E+00 0. -1.
         23    2    1    2    0    0 -0.32403468672E+02  0.87892841349E+02  0.24978781651E+03  0.29464800916E+03  0.12509340384E+03 0.  0.
          5    1    3    3  502    0  0.43659653774E+02  0.20435119497E+02  0.12235648133E+03  0.13157636718E+03  0.41800000000E+01 0.  1.
         -5    1    3    3    0  502 -0.76063122447E+02  0.67457721852E+02  0.12743133517E+03  0.16307164198E+03  0.41800000000E+01 0.  1.
        -11    1    1    2    0    0  0.27088752885E+02 -0.17962376684E+02  0.96346544061E+02  0.10168138503E+03  0.00000000000E+00 0.  1.
         11    1    1    2    0    0  0.53147157878E+01 -0.69930464666E+02  0.47955781674E+02  0.84960420716E+02  0.00000000000E+00 0. -1.
</event>
<event>
 7    1  0.6473813E-006  0.8732434E+02  0.7561462E-02  0.1309464E+00
         -1   -1    0    0    0  501 -0.00000000000E+00  0.00000000000E+00  0.13690655678E+03  0.13690655678E+03  0.00000000000E+00 0.  1.
          1   -1    0    0  501    0  0.00000000000E+00 -0.00000000000E+00 -0.13291516030E+03  0.13291516030E+03  0.00000000000E+00 0. -1.
         23    2    1    2    0    0  0.66221816819E+02  0.35799822170E+02  0.41695874228E+02  0.14493363571E+03  0.11662013781E+03 0.  0.
          5    1    3    3  502    0  0.57734216493E+01  0.29011335430E+02 -0.35606891818E+02  0.46479168731E+02  0.41800000000E+01 0. -1.
         -5    1    3    3    0  502  0.60448395170E+02  0.67884867396E+01  0.77302766045E+02  0.98454466984E+02  0.41800000000E+01 0.  1.
        -11    1    1    2    0    0 -0.22643223596E+02 -0.33147956776E+02  0.25876251516E+02  0.47760684729E+02  0.00000000000E+00 0.  1.
         11    1    1    2    0    0 -0.43578593223E+02 -0.26518653939E+01 -0.63580729269E+02  0.77127396636E+02  0.00000000000E+00 0. -1.
</event>
<event>
 6    1  0.6473813E-006  0.5765358E+02  0.7561462E-02  0.1407951E+00
          2   -1    0    0  501    0  0.00000000000E+00  0.00000000000E+00  0.32352022122E+03  0.32352022122E+03  0.00000000000E+00 0. -1.
         -2   -1    0    0    0  501 -0.00000000000E+00 -0.00000000000E+00 -0.21530336578E+03  0.21530336578E+03  0.00000000000E+00 0.  1.
          5    1    1    2  502    0  0.93846294108E+01  0.13291555096E+02  0.40159358693E+02  0.43531404718E+02  0.41800000000E+01 0. -1.
         -5    1    1    2    0  502 -0.90609635854E+01 -0.14426590839E+02 -0.20550832859E+03  0.20625560139E+03  0.41800000000E+01 0.  1.
        -11    1    1    2    0    0  0.34148598030E+02  0.22047157611E+02  0.65402761790E+02  0.77004708661E+02  0.00000000000E+00 0. -1.
         11    1    1    2    0    0 -0.34472263856E+02 -0.20912121867E+02  0.20816306355E+03  0.21203187223E+03  0.00000000000E+00 0.  1.
</event>
<event>
 7    1  0.6473813E-006  0.1197184E+03  0.7561462E-02  0.1243562E+00
         -2   -1    0    0    0  501 -0.00000000000E+00  0.00000000000E+00  0.91718030799E+02  0.91718030799E+02  0.00000000000E+00 0.  1.
          2   -1    0    0  501    0  0.00000000000E+00 -0.00000000000E+00 -0.18908869995E+03  0.18908869995E+03  0.00000000000E+00 0. -1.
         23    2    1    2    0    0 -0.32850541625E+02  0.72257701325E+02 -0.37256704843E+02  0.15276367163E+03  0.12509334046E+03 0.  0.
          5    1    3    3  502    0 -0.76143098444E+02  0.60211625140E+02 -0.44821191038E+02  0.10700291028E+03  0.41800000000E+01 0.  1.
         -5    1    3    3    0  502  0.43292556819E+02  0.12046076185E+02  0.75644861957E+01  0.45760761344E+02  0.41800000000E+01 0.  1.
        -11    1    1    2    0    0 -0.13109867554E+02 -0.21093626730E+01  0.11650600993E+02  0.17665065572E+02  0.00000000000E+00 0.  1.
         11    1    1    2    0    0  0.45960409179E+02 -0.70148338652E+02 -0.71764565299E+02  0.11037799355E+03  0.00000000000E+00 0. -1.
</event>
<event>
 7    1  0.6473813E-006  0.1079256E+03  0.7561462E-02  0.1264460E+00
          2   -1    0    0  501    0  0.00000000000E+00  0.00000000000E+00  0.62346800762E+02  0.62346800762E+02  0.00000000000E+00 0. -1.
         -2   -1    0    0    0  501 -0.00000000000E+00 -0.00000000000E+00 -0.42686988094E+03  0.42686988094E+03  0.00000000000E+00 0.  1.
         23    2    1    2    0    0  0.64453015092E+01 -0.34331342603E+02 -0.36995937185E+03  0.39209430268E+03  0.12509125621E+03 0.  0.
          5    1    3    3  502    0 -0.36170422833E+02 -0.63266824157E+02 -0.26830028198E+03  0.27805306011E+03  0.41800000000E+01 0.  1.
         -5    1    3    3    0  502  0.42615724342E+02  0.28935481554E+02 -0.10165908987E+03  0.11404124257E+03  0.41800000000E+01 0.  1.
        -11    1    1    2    0    0 -0.34828361915E+02  0.48294470007E+02  0.19290231341E+02  0.62589804698E+02  0.00000000000E+00 0.  1.
         11    1    1    2    0    0  0.28383060406E+02 -0.13963127405E+02 -0.13853939669E+02  0.34532574321E+02  0.00000000000E+00 0. -1.
</event>
<event>
 7    1  0.6473813E-006  0.1047708E+03  0.7561462E-02  0.1270572E+00
         -1   -1    0    0    0  501 -0.00000000000E+00  0.00000000000E+00  0.31893037945E+02  0.31893037945E+02  0.00000000000E+00 0.  1.
          1   -1    0    0  501    0  0.00000000000E+00 -0.00000000000E+00 -0.45093484155E+03  0.45093484155E+03  0.00000000000E+00 0. -1.
         23    2    1    2    0    0 -0.56935680985E+02  0.39452205745E+01 -0.24178416970E+03  0.27814425765E+03  0.12508959512E+03 0.  0.
          5    1    3    3  502    0 -0.95374687339E+02 -0.10275268238E+02 -0.17711302417E+03  0.20146564931E+03  0.41800000000E+01 0.  1.
         -5    1    3    3    0  502  0.38439006354E+02  0.14220488812E+02 -0.64671145535E+02  0.76678608336E+02  0.41800000000E+01 0.  1.
        -11    1    1    2    0    0  0.55278371782E+02  0.11775364533E+02 -0.17997788532E+03  0.18864357079E+03  0.00000000000E+00 0. -1.
         11    1    1    2    0    0  0.16573092027E+01 -0.15720585108E+02  0.27202514238E+01  0.16040051051E+02  0.00000000000E+00 0.  1.
</event>
<event>
 7    1  0.6473813E-006  0.7627442E+02  0.7561462E-02  0.1339969E+00
         -2   -1    0    0    0  501 -0.00000000000E+00  0.00000000000E+00  0.23619348629E+02  0.23619348629E+02  0.00000000000E+00 0.  1.
          2   -1    0    0  501    0  0.00000000000E+00 -0.00000000000E+00 -0.55904761353E+03  0.55904761353E+03  0.00000000000E+00 0. -1.
         23    2    1    2    0    0 -0.24435430639E+02  0.24339092315E+02 -0.26836712400E+03  0.29809876469E+03  0.12510986605E+03 0.  0.
          5    1    3    3  502    0  0.16085048771E+02  0.58203588596E+00  0.74911244007E+01  0.18238884410E+02  0.41800000000E+01 0. -1.
         -5    1    3    3    0  502 -0.40520479409E+02  0.23757056429E+02 -0.27585824840E+03  0.27985988028E+03  0.41800000000E+01 0. -1.
        -11    1    1    2    0    0  0.45212023472E+02 -0.41836929536E+02 -0.11860330221E+03  0.13364579692E+03  0.00000000000E+00 0.  1.
         11    1    1    2    0    0 -0.20776592834E+02  0.17497837221E+02 -0.14845783869E+03  0.15092240055E+03  0.00000000000E+00 0. -1.
</event>
<event>
 7    1  0.6473813E-006  0.1113251E+03  0.7561462E-02  0.1258136E+00
         -3   -1    0    0    0  501 -0.00000000000E+00  0.00000000000E+00  0.18343986134E+03  0.18343986134E+03  0.00000000000E+00 0. -1.
          3   -1    0    0  501    0  0.00000000000E+00 -0.00000000000E+00 -0.80763671155E+02  0.80763671155E+02  0.00000000000E+00 0.  1.
         23    2    1    2    0    0  0.54359068686E-01  0.46680374647E+02  0.85296584896E+02  0.15843908833E+03  0.12509347298E+03 0.  0.
          5    1    3    3  502    0 -0.61451162854E+02  0.34692348044E+02  0.46722974647E+02  0.84736728688E+02  0.41800000000E+01 0.  1.
         -5    1    3    3    0  502  0.61505521923E+02  0.11988026603E+02  0.38573610249E+02  0.73702359640E+02  0.41800000000E+01 0.  1.
        -11    1    1    2    0    0 -0.36372460832E+02 -0.10419512386E+02  0.34961402094E+02  0.51515257757E+02  0.00000000000E+00 0. -1.
         11    1    1    2    0    0  0.36318101764E+02 -0.36260862261E+02 -0.17581796803E+02  0.54249186413E+02  0.00000000000E+00 0.  1.
</event>
<event>
 7    1  0.6473813E-006  0.1328641E+03  0.7561462E-02  0.1223267E+00
         -2   -1    0    0    0  501 -0.00000000000E+00  0.00000000000E+00  0.28388548906E+03  0.28388548906E+03  0.00000000000E+00 0.  1.
          2   -1    0    0  501    0  0.00000000000E+00 -0.00000000000E+00 -0.68454831119E+02  0.68454831119E+02  0.00000000000E+00 0. -1.
         23    2    1    2    0    0  0.77594535707E+02  0.42709528528E+02  0.12558932780E+03  0.19785173876E+03  0.12460985304E+03 0.  0.
          5    1    3    3  502    0 -0.21980204005E+02 -0.19109251255E+02  0.53832656942E+01  0.29912285121E+02  0.41800000000E+01 0. -1.
         -5    1    3    3    0  502  0.99574739712E+02  0.61818779782E+02  0.12020606210E+03  0.16793945364E+03  0.41800000000E+01 0.  1.
        -11    1    1    2    0    0 -0.95375582406E+01 -0.49703997682E+02  0.63442466276E+02  0.81156632076E+02  0.00000000000E+00 0.  1.
         11    1    1    2    0    0 -0.68056977467E+02  0.69944691541E+01  0.26398863865E+02  0.73331949340E+02  0.00000000000E+00 0. -1.
</event>
<event>
 7    1  0.6473813E-006  0.1031250E+03  0.7561462E-02  0.1273858E+00
          1   -1    0    0  501    0  0.00000000000E+00  0.00000000000E+00  0.34081971792E+02  0.34081971792E+02  0.00000000000E+00 0. -1.
         -1   -1    0    0    0  501 -0.00000000000E+00 -0.00000000000E+00 -0.65359545096E+03  0.65359545096E+03  0.00000000000E+00 0.  1.
         23    2    1    2    0    0  0.55845156431E+02  0.52675062588E+02 -0.48786583053E+03  0.50947459833E+03  0.12513174672E+03 0.  0.
          5    1    3    3  502    0  0.27653873528E+02 -0.11271077729E+01 -0.40843928705E+03  0.40939727735E+03  0.41800000000E+01 0.  1.
         -5    1    3    3    0  502  0.28191282903E+02  0.53802170361E+02 -0.79426543479E+02  0.10007732099E+03  0.41800000000E+01 0.  1.
        -11    1    1    2    0    0 -0.74015390843E+02 -0.14961256967E+02 -0.10197816581E+03  0.12689233071E+03  0.00000000000E+00 0.  1.
         11    1    1    2    0    0  0.18170234412E+02 -0.37713805621E+02 -0.29669482834E+02  0.51310493709E+02  0.00000000000E+00 0. -1.
</event>
<event>
 6    1  0.6473813E-006  0.1058281E+03  0.7561462E-02  0.1268497E+00
         -1   -1    0    0    0  501 -0.00000000000E+00  0.00000000000E+00  0.17154116726E+03  0.17154116726E+03  0.00000000000E+00 0.  1.
          1   -1    0    0  501    0  0.00000000000E+00 -0.00000000000E+00 -0.10924940567E+03  0.10924940567E+03  0.00000000000E+00 0. -1.
          5    1    1    2  502    0  0.31615961319E+02 -0.92789366796E+01  0.46775875226E+02  0.57368306400E+02  0.41800000000E+01 0. -1.
         -5    1    1    2    0  502 -0.10475378511E+03  0.73924590687E+01  0.15249065409E+02  0.10619797711E+03  0.41800000000E+01 0.  1.
        -11    1    1    2    0    0  0.36221192254E+02 -0.16558576002E+01  0.45853629371E+02  0.58457437159E+02  0.00000000000E+00 0.  1.
         11    1    1    2    0    0  0.36916631541E+02  0.35423352111E+01 -0.45586808417E+02  0.58766852261E+02  0.00000000000E+00 0. -1.
</event>
<event>
 7    1  0.6473813E-006  0.9655058E+02  0.7561462E-02  0.1287721E+00
          2   -1    0    0  501    0  0.00000000000E+00  0.00000000000E+00  0.15736676600E+03  0.15736676600E+03  0.00000000000E+00 0. -1.
         -2   -1    0    0    0  501 -0.00000000000E+00 -0.00000000000E+00 -0.85569023421E+02  0.85569023421E+02  0.00000000000E+00 0.  1.
         23    2    1    2    0    0 -0.11053094153E+01  0.13900178989E+02  0.15037094748E+01  0.12587406340E+03  0.12509029542E+03 0.  0.
          5    1    3    3  502    0  0.16466439575E+02  0.66943744083E+02  0.77198853729E+01  0.69495881419E+02  0.41800000000E+01 0.  1.
         -5    1    3    3    0  502 -0.17571748990E+02 -0.53043565094E+02 -0.62161758981E+01  0.56378181979E+02  0.41800000000E+01 0.  1.
        -11    1    1    2    0    0  0.11232347813E+02  0.25210965057E+02  0.71500706034E+02  0.76642738468E+02  0.00000000000E+00 0. -1.
         11    1    1    2    0    0 -0.10127038397E+02 -0.39111144046E+02 -0.12066729328E+01  0.40418987553E+02  0.00000000000E+00 0.  1.
</event>
<event>
 7    1  0.6473813E-006  0.1424583E+03  0.7561462E-02  0.1210059E+00
         -4   -1    0    0    0  501 -0.00000000000E+00  0.00000000000E+00  0.18472878704E+03  0.18472878704E+03  0.00000000000E+00 0.  1.
          4   -1    0    0  501    0  0.00000000000E+00 -0.00000000000E+00 -0.15476046543E+03  0.15476046543E+03  0.00000000000E+00 0. -1.
         23    2    1    2    0    0 -0.64906047213E+02  0.10667473416E+03  0.46392025935E+02  0.18279991008E+03  0.12518503577E+03 0.  0.
          5    1    3    3  502    0 -0.46999118796E+01  0.34443111369E+02  0.76371751286E+02  0.84015081306E+02  0.41800000000E+01 0.  1.
         -5    1    3    3    0  502 -0.60206135333E+02  0.72231622794E+02 -0.29979725351E+02  0.98784828771E+02  0.41800000000E+01 0.  1.
        -11    1    1    2    0    0  0.43507536949E+02  0.34023384045E+01 -0.63530291405E+01  0.44100370262E+02  0.00000000000E+00 0.  1.
         11    1    1    2    0    0  0.21398510263E+02 -0.11007707257E+03 -0.10070675189E+02  0.11258897213E+03  0.00000000000E+00 0. -1.
</event>
<event>
 7    1  0.6473813E-006  0.8692326E+02  0.7561462E-02  0.1310478E+00
         -1   -1    0    0    0  501 -0.00000000000E+00  0.00000000000E+00  0.32041646191E+02  0.32041646191E+02  0.00000000000E+00 0.  1.
          1   -1    0    0  501    0  0.00000000000E+00 -0.00000000000E+00 -0.44326062145E+03  0.44326062145E+03  0.00000000000E+00 0. -1.
         23    2    1    2    0    0 -0.60464889111E+00 -0.25615700024E+02 -0.20698811866E+03  0.24320281078E+03  0.12508795393E+03 0.  0.
          5    1    3    3  502    0  0.23968706427E+01 -0.44519207867E+02 -0.21674074669E+03  0.22131816133E+03  0.41800000000E+01 0.  1.
         -5    1    3    3    0  502 -0.30015195338E+01  0.18903507843E+02  0.97526280292E+01  0.21884649455E+02  0.41800000000E+01 0.  1.
        -11    1    1    2    0    0  0.14798211818E+01 -0.41914202014E+02 -0.92124038296E+02  0.10122168065E+03  0.00000000000E+00 0. -1.
         11    1    1    2    0    0 -0.87517229069E+00  0.67529902038E+02 -0.11210681830E+03  0.13087777621E+03  0.00000000000E+00 0.  1.
</event>
<event>
 7    1  0.6473813E-006  0.1236832E+03  0.7561462E-02  0.1237142E+00
         -2   -1    0    0    0  501 -0.00000000000E+00  0.00000000000E+00  0.15863958346E+02  0.15863958346E+02  0.00000000000E+00 0.  1.
          2   -1    0    0  501    0  0.00000000000E+00 -0.00000000000E+00 -0.10486517003E+04  0.10486517003E+04  0.00000000000E+00 0. -1.
         23    2    1    2    0    0  0.45307220892E+02  0.43097933068E+02 -0.45583664076E+03  0.47680651824E+03  0.12508891505E+03 0.  0.
          5    1    3    3  502    0 -0.27378772238E+02  0.55081816515E+02 -0.14959997025E+03  0.16180614073E+03  0.41800000000E+01 0.  1.
         -5    1    3    3    0  502  0.72685993130E+02 -0.11983883447E+02 -0.30623667052E+03  0.31500037751E+03  0.41800000000E+01 0.  1.
        -11    1    1    2    0    0 -0.74122046928E+02 -0.35167142060E+02 -0.41991554434E+03  0.42785496386E+03  0.00000000000E+00 0.  1.
         11    1    1    2    0    0  0.28814826035E+02 -0.79307910076E+01 -0.15703555684E+03  0.15985417654E+03  0.00000000000E+00 0. -1.
</event>
<event>
 7    1  0.6473813E-006  0.1400812E+03  0.7561462E-02  0.1213220E+00
         -1   -1    0    0    0  501 -0.00000000000E+00  0.00000000000E+00  0.16335925892E+03  0.16335925892E+03  0.00000000000E+00 0.  1.
          1   -1    0    0  501    0  0.00000000000E+00 -0.00000000000E+00 -0.16513790047E+03  0.16513790047E+03  0.00000000000E+00 0. -1.
         23    2    1    2    0    0  0.32499475017E+00 -0.11562445560E+03  0.40466715294E+02  0.17508323292E+03  0.12508981993E+03 0.  0.
          5    1    3    3  502    0 -0.26564691336E+02 -0.99825451798E+02  0.75481676616E+02  0.12800687309E+03  0.41800000000E+01 0. -1.
         -5    1    3    3    0  502  0.26889686087E+02 -0.15799003801E+02 -0.35014961322E+02  0.47076359835E+02  0.41800000000E+01 0. -1.
        -11    1    1    2    0    0 -0.47288984901E+00 -0.14839886912E+02  0.33333856865E+01  0.15217007869E+02  0.00000000000E+00 0.  1.
         11    1    1    2    0    0  0.14789509885E+00  0.13046434251E+03 -0.45578742528E+02  0.13819691860E+03  0.00000000000E+00 0. -1.
</event>
<event>
 6    1  0.6473813E-006  0.1305355E+03  0.7561462E-02  0.1226663E+00
         -2   -1    0    0    0  501 -0.00000000000E+00  0.00000000000E+00  0.51502898117E+03  0.51502898117E+03  0.00000000000E+00 0.  1.
          2   -1    0    0  501    0  0.00000000000E+00 -0.00000000000E+00 -0.45194443253E+02  0.45194443253E+02  0.00000000000E+00 0. -1.
          5    1    1    2  502    0 -0.10307829255E+03  0.89182341546E+01  0.95687883736E+02  0.14099047056E+03  0.41800000000E+01 0. -1.
         -5    1    1    2    0  502  0.11503459013E+02 -0.49715822431E+02  0.23692242778E+03  0.24239162889E+03  0.41800000000E+01 0.  1.
        -11    1    1    2    0    0  0.15574659715E+02 -0.64237299245E+01  0.57357561796E+01  0.17797000599E+02  0.00000000000E+00 0. -1.
         11    1    1    2    0    0  0.76000173825E+02  0.47221318201E+02  0.13148847022E+03  0.15904432437E+03  0.00000000000E+00 0.  1.
</event>
<event>
 7    1  0.6473813E-006  0.9130029E+02  0.7561462E-02  0.1299733E+00
         -1   -1    0    0    0  501 -0.00000000000E+00  0.00000000000E+00  0.10110241730E+04  0.10110241730E+04  0.00000000000E+00 0.  1.
          1   -1    0    0  501    0  0.00000000000E+00 -0.00000000000E+00 -0.15268615301E+02  0.15268615301E+02  0.00000000000E+00 0. -1.
         23    2    1    2    0    0  0.17507472036E+02  0.26762417157E+02  0.79340113698E+03  0.80166335823E+03  0.11025442045E+03 0.  0.
          5    1    3    3  502    0 -0.42418408919E+01  0.56589010569E+02  0.22620774775E+03  0.23325463955E+03  0.41800000000E+01 0. -1.
         -5    1    3    3    0  502  0.21749312928E+02 -0.29826593412E+02  0.56719338923E+03  0.56840871868E+03  0.41800000000E+01 0.  1.
        -11    1    1    2    0    0  0.17060950155E+02 -0.45948112570E+02  0.15694732200E+03  0.16442252568E+03  0.00000000000E+00 0. -1.
         11    1    1    2    0    0 -0.34568422191E+02  0.19185695413E+02  0.45407098718E+02  0.60206904382E+02  0.00000000000E+00 0.  1.
</event>
<event>
 7    1  0.6473813E-006  0.1459250E+03  0.7561462E-02  0.1205572E+00
          1   -1    0    0  501    0  0.00000000000E+00  0.00000000000E+00  0.10147608244E+04  0.10147608244E+04  0.00000000000E+00 0. -1.
         -1   -1    0    0    0  501 -0.00000000000E+00 -0.00000000000E+00 -0.26473122064E+02  0.26473122064E+02  0.00000000000E+00 0.  1.
         23    2    1    2    0    0  0.92030251631E+02 -0.65773712526E+02  0.37850852538E+03  0.41438147318E+03  0.12509017969E+03 0.  0.
          5    1    3    3  502    0  0.47954144217E+02 -0.85484428287E+02  0.13970971406E+03  0.17071456889E+03  0.41800000000E+01 0.  1.
         -5    1    3    3    0  502  0.44076107414E+02  0.19710715761E+02  0.23879881132E+03  0.24366690429E+03  0.41800000000E+01 0.  1.
        -11    1    1    2    0    0 -0.55033483775E+02  0.86763480726E+02  0.42613513229E+03  0.43834659448E+03  0.00000000000E+00 0. -1.
         11    1    1    2    0    0 -0.36996767856E+02 -0.20989768200E+02  0.18364404471E+03  0.18850587885E+03  0.00000000000E+00 0.  1.
</event>
<event>
 7    1  0.6473813E-006  0.9023791E+02  0.7561462E-02  0.1302277E+00
         -1   -1    0    0    0  501 -0.00000000000E+00  0.00000000000E+00  0.63864084807E+02  0.63864084807E+02  0.00000000000E+00 0.  1.
          1   -1    0    0  501    0  0.00000000000E+00 -0.00000000000E+00 -0.26101003624E+03  0.26101003624E+03  0.00000000000E+00 0. -1.
         23    2    1    2    0    0 -0.68499660209E+02 -0.19149977044E+02 -0.10503321904E+03  0.17814637499E+03  0.12508088883E+03 0.  0.
          5    1    3    3  502    0 -0.42306601670E+02 -0.25955742069E+01 -0.13084464058E+03  0.13760224532E+03  0.41800000000E+01 0. -1.
         -5    1    3    3    0  502 -0.26193058538E+02 -0.16554402837E+02  0.25811421535E+02  0.40544129668E+02  0.41800000000E+01 0. -1.
        -11    1    1    2    0    0 -0.76061498159E+01 -0.19737343704E+02 -0.43584174065E+02  0.48445809731E+02  0.00000000000E+00 0. -1.
         11    1    1    2    0    0  0.76105810024E+02  0.38887320749E+02 -0.48528558325E+02  0.98281936324E+02  0.00000000000E+00 0.  1.
</event>
<event>
 7    1  0.6473813E-006  0.9529043E+02  0.7561462E-02  0.1290523E+00
         -2   -1    0    0    0  501 -0.00000000000E+00  0.00000000000E+00  0.11314709958E+03  0.11314709958E+03  0.00000000000E+00 0.  1.
          2   -1    0    0  501    0  0.00000000000E+00 -0.00000000000E+00 -0.12997825539E+03  0.12997825539E+03  0.00000000000E+00 0. -1.
         23    2    1    2    0    0  0.44304962415E+02  0.27311411382E+02  0.28061262494E+01  0.13551741207E+03  0.12509297240E+03 0.  0.
          5    1    3    3  502    0 -0.31544698822E+02 -0.24429880881E+02 -0.13178283181E+02  0.42225900242E+02  0.41800000000E+01 0.  1.
         -5    1    3    3    0  502  0.75849661236E+02  0.51741292263E+02  0.15984409431E+02  0.93291511830E+02  0.41800000000E+01 0.  1.
        -11    1    1    2    0    0 -0.20211474477E+02 -0.27899779293E+02 -0.54948813437E+02  0.64855789897E+02  0.00000000000E+00 0. -1.
         11    1    1    2    0    0 -0.24093487938E+02  0.58836791074E+00  0.35311531382E+02  0.42752153002E+02  0.00000000000E+00 0.  1.
</event>
<event>
 7    1  0.6473813E-006  0.1448818E+03  0.7561462E-02  0.1206907E+00
         -2   -1    0    0    0  501 -0.00000000000E+00  0.00000000000E+00  0.69171214906E+02  0.69171214906E+02  0.00000000000E+00 0.  1.
          2   -1    0    0  501    0  0.00000000000E+00 -0.00000000000E+00 -0.68528603881E+03  0.68528603881E+03  0.00000000000E+00 0. -1.
         23    2    1    2    0    0 -0.12401538892E+03 -0.34113140076E+01 -0.74550609082E+02  0.19130377715E+03  0.12509151884E+03 0.  0.
          5    1    3    3  502    0 -0.11606152936E+03  0.17929659764E+02 -0.45806604376E+01  0.11760189687E+03  0.41800000000E+01 0.  1.
         -5    1    3    3    0  502 -0.79538595510E+01 -0.21340973771E+02 -0.69969948644E+02  0.73701880278E+02  0.41800000000E+01 0.  1.
        -11    1    1    2    0    0  0.11341005013E+03  0.32630700360E+02 -0.35726090088E+03  0.37624719716E+03  0.00000000000E+00 0.  1.
         11    1    1    2    0    0  0.10605338782E+02 -0.29219386352E+02 -0.18430331394E+03  0.18690627940E+03  0.00000000000E+00 0. -1.
</event>
<event>
 7    1  0.6473813E-006  0.1200280E+03  0.7561462E-02  0.1243051E+00
          2   -1    0    0  501    0  0.00000000000E+00  0.00000000000E+00  0.16379560396E+03  0.16379560396E+03  0.00000000000E+00 0. -1.
         -2   -1    0    0    0  501 -0.00000000000E+00 -0.00000000000E+00 -0.11767338116E+03  0.11767338116E+03  0.00000000000E+00 0.  1.
         23    2    1    2    0    0 -0.52677001667E+02  0.63275011136E+02 -0.32750391240E+01  0.14978638338E+03  0.12508653495E+03 0.  0.
          5    1    3    3  502    0 -0.45931681031E+02  0.84054923223E+02  0.37812587345E+02  0.10306412374E+03  0.41800000000E+01 0.  1.
         -5    1    3    3    0  502 -0.67453206355E+01 -0.20779912087E+02 -0.41087626469E+02  0.46722259638E+02  0.41800000000E+01 0.  1.
        -11    1    1    2    0    0  0.56568063481E+01  0.22996579676E+02  0.72104173828E+01  0.24755448969E+02  0.00000000000E+00 0. -1.
         11    1    1    2    0    0  0.47020195319E+02 -0.86271590811E+02  0.42186844537E+02  0.10692715278E+03  0.00000000000E+00 0.  1.
</event>
<event>
 7    1  0.6473813E-006  0.1093419E+03  0.7561462E-02  0.1261793E+00
         -2   -1    0    0    0  501 -0.00000000000E+00  0.00000000000E+00  0.50912635626E+02  0.50912635626E+02  0.00000000000E+00 0.  1.
          2   -1    0    0  501    0  0.00000000000E+00 -0.00000000000E+00 -0.46626941805E+03  0.46626941805E+03  0.00000000000E+00 0. -1.
         23    2    1    2    0    0 -0.11572410310E+02  0.20171978473E+02 -0.44856667173E+02  0.13490706838E+03  0.12508783759E+03 0.  0.
          5    1    3    3  502    0  0.22667224750E+02  0.64881418026E+02 -0.12995578638E+02  0.70069672093E+02  0.41800000000E+01 0. -1.
         -5    1    3    3    0  502 -0.34239635061E+02 -0.44709439554E+02 -0.31861088535E+02  0.64837396284E+02  0.41800000000E+01 0. -1.
        -11    1    1    2    0    0 -0.31455590804E+02  0.17653266042E+02 -0.11981686948E+03  0.12512863064E+03  0.00000000000E+00 0. -1.
         11    1    1    2    0    0  0.43028001114E+02 -0.37825244515E+02 -0.25068324577E+03  0.25714635466E+03  0.00000000000E+00 0.  1.
</event>
<event>
 7    1  0.6473813E-006  0.1016045E+03  0.7561462E-02  0.1276958E+00
          2   -1    0    0  501    0  0.00000000000E+00  0.00000000000E+00  0.26230648288E+02  0.26230648288E+02  0.00000000000E+00 0. -1.
         -2   -1    0    0    0  501 -0.00000000000E+00 -0.00000000000E+00 -0.52379198551E+03  0.52379198551E+03  0.00000000000E+00 0.  1.
         23    2    1    2    0    0  0.26497903603E+02  0.21672112009E+02 -0.34119399227E+03  0.36500937526E+03  0.12508670725E+03 0.  0.
          5    1    3    3  502    0 -0.23560228568E+02 -0.29518194161E+02 -0.22702090226E+03  0.23017899691E+03  0.41800000000E+01 0. -1.
         -5    1    3    3    0  502  0.50058132171E+02  0.51190306170E+02 -0.11417309001E+03  0.13483037835E+03  0.41800000000E+01 0. -1.
        -11    1    1    2    0    0  0.92055426978E+01 -0.48161743064E+02 -0.11171979039E+03  0.12200658620E+03  0.00000000000E+00 0.  1.
         11    1    1    2    0    0 -0.35703446301E+02  0.26489631056E+02 -0.44647554563E+02  0.63006672343E+02  0.00000000000E+00 0. -1.
</event>
<event>
 7    1  0.6473813E-006  0.8911099E+02  0.7561462E-02  0.1305019E+00
          1   -1    0    0  501    0  0.00000000000E+00  0.00000000000E+00  0.11842353276E+03  0.11842353276E+03  0.00000000000E+00 0. -1.
         -1   -1    0    0    0  501 -0.00000000000E+00 -0.00000000000E+00 -0.10979547456E+03  0.10979547456E+03  0.00000000000E+00 0.  1.
         23    2    1    2    0    0  0.20857707316E+02  0.21637358467E+02 -0.19598721257E+02  0.13013549491E+03  0.12509163810E+03 0.  0.
          5    1    3    3  502    0  0.28756041652E+02 -0.47943560833E+02 -0.21274467872E+02  0.59963074805E+02  0.41800000000E+01 0. -1.
         -5    1    3    3    0  502 -0.78983343357E+01  0.69580919300E+02  0.16757466155E+01  0.70172420100E+02  0.41800000000E+01 0. -1.
        -11    1    1    2    0    0  0.11044615063E+02 -0.16258072553E+02 -0.27407277435E+02  0.33726359149E+02  0.00000000000E+00 0.  1.
         11    1    1    2    0    0 -0.31902322379E+02 -0.53792859140E+01  0.55634056896E+02  0.64357153269E+02  0.00000000000E+00 0. -1.
</event>
<event>
 7    1  0.1750180E-005  0.2877594E+03  0.7561462E-02  0.1091525E+00
          1   -1    0    0  501    0  0.00000000000E+00  0.00000000000E+00  0.31882123700E+04  0.31882123700E+04  0.00000000000E+00 0. -1.
         -1   -1    0    0    0  501 -0.00000000000E+00 -0.00000000000E+00 -0.27621770201E+02  0.27621770201E+02  0.00000000000E+00 0.  1.
         23    2    1    2    0    0  0.19474684202E+03  0.19391613244E+03  0.17540191595E+04  0.17798201326E+04  0.12508674418E+03 0.  0.
          5    1    3    3  502    0  0.68759117270E+02  0.16539122948E+02  0.23983128229E+03  0.25007573885E+03  0.41800000000E+01 0.  1.
         -5    1    3    3    0  502  0.12598772475E+03  0.17737700949E+03  0.15141878772E+04  0.15297443938E+04  0.41800000000E+01 0.  1.
        -11    1    1    2    0    0 -0.12503606076E+03 -0.65991666836E+02  0.78186950158E+03  0.79454945352E+03  0.00000000000E+00 0.  1.
         11    1    1    2    0    0 -0.69710781258E+02 -0.12792446560E+03  0.62470193865E+03  0.64146455403E+03  0.00000000000E+00 0. -1.
</event>
<event>
 7    1  0.6473813E-006  0.9527101E+02  0.7561462E-02  0.1290567E+00
          3   -1    0    0  501    0  0.00000000000E+00  0.00000000000E+00  0.56521418477E+02  0.56521418477E+02  0.00000000000E+00 0. -1.
         -3   -1    0    0    0  501 -0.00000000000E+00 -0.00000000000E+00 -0.23531840511E+03  0.23531840511E+03  0.00000000000E+00 0.  1.
         23    2    1    2    0    0  0.32910439425E+02 -0.79224150773E+00 -0.13354620869E+03  0.18591840199E+03  0.12508931878E+03 0.  0.
          5    1    3    3  502    0 -0.27838732867E+02  0.45053457239E+02 -0.54386612749E+02  0.76027528588E+02  0.41800000000E+01 0.  1.
         -5    1    3    3    0  502  0.60749172292E+02 -0.45845698747E+02 -0.79159595943E+02  0.10989087340E+03  0.41800000000E+01 0.  1.
        -11    1    1    2    0    0  0.68955831887E+01  0.16900650447E+02 -0.58259814890E+02  0.61052330701E+02  0.00000000000E+00 0.  1.
         11    1    1    2    0    0 -0.39806022613E+02 -0.16108408940E+02  0.13009036953E+02  0.44869090890E+02  0.00000000000E+00 0. -1.
</event>
<event>
 7    1  0.6473813E-006  0.1161418E+03  0.7561462E-02  0.1249601E+00
          1   -1    0    0  501    0  0.00000000000E+00  0.00000000000E+00  0.74874836666E+02  0.74874836666E+02  0.00000000000E+00 0. -1.
         -1   -1    0    0    0  501 -0.00000000000E+00 -0.00000000000E+00 -0.28750326110E+03  0.28750326110E+03  0.00000000000E+00 0.  1.
         23    2    1    2    0    0  0.22992526156E+02 -0.61079308259E+02 -0.20712793731E+03  0.25061587391E+03  0.12508795180E+03 0.  0.
          5    1    3    3  502    0 -0.25000257438E+02  0.27752287087E+02 -0.37017777602E+02  0.52754057371E+02  0.41800000000E+01 0.  1.
         -5    1    3    3    0  502  0.47992783594E+02 -0.88831595345E+02 -0.17011015971E+03  0.19786181654E+03  0.41800000000E+01 0.  1.
        -11    1    1    2    0    0 -0.30519293945E+01  0.71211829249E+02 -0.31100891588E+02  0.77766987570E+02  0.00000000000E+00 0.  1.
         11    1    1    2    0    0 -0.19940596761E+02 -0.10132520991E+02  0.25600404469E+02  0.33995236281E+02  0.00000000000E+00 0. -1.
</event>
<event>
 7    1  0.6473813E-006  0.1200109E+03  0.7561462E-02  0.1243079E+00
         -2   -1    0    0    0  501 -0.00000000000E+00  0.00000000000E+00  0.48065415525E+02  0.48065415525E+02  0.00000000000E+00 0. -1.
          2   -1    0    0  501    0  0.00000000000E+00 -0.00000000000E+00 -0.46981884744E+03  0.46981884744E+03  0.00000000000E+00 0.  1.
         23    2    1    2    0    0  0.37285890209E+02 -0.73277866487E+02 -0.12136291543E+03  0.19270848928E+03  0.12509085208E+03 0.  0.
          5    1    3    3  502    0  0.64863455872E+02 -0.60948066046E+02 -0.13298202235E+03  0.16007381213E+03  0.41800000000E+01 0.  1.
         -5    1    3    3    0  502 -0.27577565663E+02 -0.12329800441E+02  0.11619106924E+02  0.32634677148E+02  0.41800000000E+01 0.  1.
        -11    1    1    2    0    0  0.23843682989E+02  0.49290593165E+02 -0.17866541239E+03  0.18686736841E+03  0.00000000000E+00 0. -1.
         11    1    1    2    0    0 -0.61129573198E+02  0.23987273323E+02 -0.12172510410E+03  0.13830840527E+03  0.00000000000E+00 0.  1.
</event>
<event>
 7    1  0.6473813E-006  0.1611553E+03  0.7561462E-02  0.1187399E+00
          2   -1    0    0  501    0  0.00000000000E+00  0.00000000000E+00  0.41912428625E+03  0.41912428625E+03  0.00000000000E+00 0. -1.
         -2   -1    0    0    0  501 -0.00000000000E+00 -0.00000000000E+00 -0.89926233843E+02  0.89926233843E+02  0.00000000000E+00 0.  1.
         23    2    1    2    0    0  0.10558759958E+03 -0.81083883002E+02  0.54072394832E+02  0.19051220438E+03  0.12509092240E+03 0.  0.
          5    1    3    3  502    0 -0.23341522200E+02 -0.40381381257E+02  0.73381966402E+01  0.47400465618E+02  0.41800000000E+01 0.  1.
         -5    1    3    3    0  502  0.12892912178E+03 -0.40702501745E+02  0.46734198192E+02  0.14311173876E+03  0.41800000000E+01 0.  1.
        -11    1    1    2    0    0 -0.27790284354E+02 -0.76573021661E-01  0.83132994882E+01  0.29007183874E+02  0.00000000000E+00 0.  1.
         11    1    1    2    0    0 -0.77797315221E+02  0.81160456024E+02  0.26681235809E+03  0.28953113184E+03  0.00000000000E+00 0. -1.
</event>
<event>
 7    1  0.6473813E-006  0.1108860E+03  0.7561462E-02  0.1258938E+00
         -1   -1    0    0    0  501 -0.00000000000E+00  0.00000000000E+00  0.14429548458E+03  0.14429548458E+03  0.00000000000E+00 0.  1.
          1   -1    0    0  501    0  0.00000000000E+00 -0.00000000000E+00 -0.10093771529E+03  0.10093771529E+03  0.00000000000E+00 0. -1.
         23    2    1    2    0    0 -0.32763106705E+02 -0.73146364788E+01  0.60412907698E+02  0.14580316842E+03  0.12838192800E+03 0.  0.
          5    1    3    3  502    0 -0.73127621890E+02 -0.37251099768E+02  0.34745082861E+02  0.89218757558E+02  0.41800000000E+01 0. -1.
         -5    1    3    3    0  502  0.40364515185E+02  0.29936463289E+02  0.25667824837E+02  0.56584410859E+02  0.41800000000E+01 0.  1.
        -11    1    1    2    0    0 -0.50546821702E+01  0.39309130000E+02  0.12732092560E+02  0.41627679423E+02  0.00000000000E+00 0. -1.
         11    1    1    2    0    0  0.37817788876E+02 -0.31994493521E+02 -0.29787230974E+02  0.57802352030E+02  0.00000000000E+00 0.  1.
</event>
<event>
 7    1  0.6473813E-006  0.1203498E+03  0.7561462E-02  0.1242521E+00
          2   -1    0    0  501    0  0.00000000000E+00  0.00000000000E+00  0.69359495744E+03  0.69359495744E+03  0.00000000000E+00 0. -1.
         -2   -1    0    0    0  501 -0.00000000000E+00 -0.00000000000E+00 -0.33768593180E+02  0.33768593180E+02  0.00000000000E+00 0.  1.
         23    2    1    2    0    0 -0.57171964449E+02 -0.68647525444E+02  0.18087105237E+03  0.23212059142E+03  0.11482384382E+03 0.  0.
          5    1    3    3  502    0  0.17063733349E+02 -0.91250319488E+01  0.11409669348E+03  0.11580140356E+03  0.41800000000E+01 0. -1.
         -5    1    3    3    0  502 -0.74235697798E+02 -0.59522493495E+02  0.66774358888E+02  0.11631918786E+03  0.41800000000E+01 0.  1.
        -11    1    1    2    0    0 -0.19986912938E+02  0.37415173856E+02  0.14572723858E+03  0.15177549205E+03  0.00000000000E+00 0.  1.
         11    1    1    2    0    0  0.77158877387E+02  0.31232351588E+02  0.33322807331E+03  0.34346746715E+03  0.00000000000E+00 0. -1.
</event>
<event>
 7    1  0.6473813E-006  0.9804206E+02  0.7561462E-02  0.1284468E+00
          2   -1    0    0  501    0  0.00000000000E+00  0.00000000000E+00  0.74161121568E+02  0.74161121568E+02  0.00000000000E+00 0. -1.
         -2   -1    0    0    0  501 -0.00000000000E+00 -0.00000000000E+00 -0.23041849772E+03  0.23041849772E+03  0.00000000000E+00 0.  1.
         23    2    1    2    0    0  0.31752672874E+02  0.57461988424E+02 -0.12023623218E+03  0.18551335768E+03  0.12509333316E+03 0.  0.
          5    1    3    3  502    0  0.73454800479E+02  0.35460772886E+02 -0.11013263745E+03  0.13711215978E+03  0.41800000000E+01 0.  1.
         -5    1    3    3    0  502 -0.41702127605E+02  0.22001215537E+02 -0.10103594727E+02  0.48401197901E+02  0.41800000000E+01 0.  1.
        -11    1    1    2    0    0 -0.23459978134E+02 -0.28309589164E+02 -0.66560231083E+02  0.76039909091E+02  0.00000000000E+00 0.  1.
         11    1    1    2    0    0 -0.82926947403E+01 -0.29152399259E+02  0.30539087115E+02  0.43026352512E+02  0.00000000000E+00 0. -1.
</event>
<event>
 7    1  0.6473813E-006  0.1672913E+03  0.7561462E-02  0.1180702E+00
         -2   -1    0    0    0  501 -0.00000000000E+00  0.00000000000E+00  0.34940930551E+02  0.34940930551E+02  0.00000000000E+00 0.  1.
          2   -1    0    0  501    0  0.00000000000E+00 -0.00000000000E+00 -0.95797521194E+03  0.95797521194E+03  0.00000000000E+00 0. -1.
         23    2    1    2    0    0 -0.88704189123E+02  0.11623022621E+03 -0.48032294222E+03  0.51744422669E+03  0.12514192046E+03 0.  0.
          5    1    3    3  502    0 -0.11211111653E+03  0.65422283433E+02 -0.39063664048E+03  0.41165936756E+03  0.41800000000E+01 0.  1.
         -5    1    3    3    0  502  0.23406927403E+02  0.50807942781E+02 -0.89686301743E+02  0.10578485913E+03  0.41800000000E+01 0.  1.
        -11    1    1    2    0    0  0.25182542017E+02 -0.15629812821E+02 -0.18607778213E+02  0.34995726614E+02  0.00000000000E+00 0.  1.
         11    1    1    2    0    0  0.63521647106E+02 -0.10060041339E+03 -0.42410356096E+03  0.44047618919E+03  0.00000000000E+00 0. -1.
</event>
<event>
 7    1  0.6473813E-006  0.1258321E+03  0.7561462E-02  0.1233775E+00
          1   -1    0    0  501    0  0.00000000000E+00  0.00000000000E+00  0.92617345948E+02  0.92617345948E+02  0.00000000000E+00 0. -1.
         -1   -1    0    0    0  501 -0.00000000000E+00 -0.00000000000E+00 -0.27027558347E+03  0.27027558347E+03  0.00000000000E+00 0.  1.
         23    2    1    2    0    0  0.78363692424E+02 -0.33836530442E+02 -0.17596109786E+03  0.23215410194E+03  0.12508972781E+03 0.  0.
          5    1    3    3  502    0  0.11185211246E+03 -0.35996365580E+02 -0.13895598617E+03  0.18202437169E+03  0.41800000000E+01 0.  1.
         -5    1    3    3    0  502 -0.33488420031E+02  0.21598351375E+01 -0.37005111682E+02  0.50129730247E+02  0.41800000000E+01 0.  1.
        -11    1    1    2    0    0 -0.63830539518E+02  0.48087035053E+02  0.36190909486E+02  0.87729599593E+02  0.00000000000E+00 0. -1.
         11    1    1    2    0    0 -0.14533152907E+02 -0.14250504610E+02 -0.37888049154E+02  0.43009227891E+02  0.00000000000E+00 0.  1.
</event>
<event>
 6    1  0.6473813E-006  0.1365783E+03  0.7561462E-02  0.1218009E+00
          2   -1    0    0  501    0  0.00000000000E+00  0.00000000000E+00  0.88520037716E+03  0.88520037716E+03  0.00000000000E+00 0. -1.
         -2   -1    0    0    0  501 -0.00000000000E+00 -0.00000000000E+00 -0.24282261951E+02  0.24282261951E+02  0.00000000000E+00 0.  1.
          5    1    1    2  502    0  0.35632781510E+02  0.76462922933E+02  0.41042666866E+03  0.41902720252E+03  0.41800000000E+01 0. -1.
         -5    1    1    2    0  502 -0.73040045555E+02 -0.72741493863E+01  0.12429785635E+03  0.14441326461E+03  0.41800000000E+01 0.  1.
        -11    1    1    2    0    0  0.40276853272E+02  0.53059285378E+01  0.12795638589E+03  0.13425056602E+03  0.00000000000E+00 0. -1.
         11    1    1    2    0    0 -0.28695892260E+01 -0.74494702084E+02  0.19823720431E+03  0.21179160596E+03  0.00000000000E+00 0.  1.
</event>
<event>
 7    1  0.6473813E-006  0.8615935E+02  0.7561462E-02  0.1312428E+00
         -1   -1    0    0    0  501 -0.00000000000E+00  0.00000000000E+00  0.18363583866E+02  0.18363583866E+02  0.00000000000E+00 0.  1.
          1   -1    0    0  501    0  0.00000000000E+00 -0.00000000000E+00 -0.75345300982E+03  0.75345300982E+03  0.00000000000E+00 0. -1.
         23    2    1    2    0    0  0.41361142123E+02  0.20509164258E+02 -0.46050889849E+03  0.47942377086E+03  0.12508931441E+03 0.  0.
          5    1    3    3  502    0  0.50950859666E+02  0.36843714757E+02 -0.45488317268E+03  0.45922720151E+03  0.41800000000E+01 0.  1.
         -5    1    3    3    0  502 -0.95897175434E+01 -0.16334550499E+02 -0.56257258075E+01  0.20196569348E+02  0.41800000000E+01 0.  1.
        -11    1    1    2    0    0 -0.31344618431E+02  0.26989281024E+02 -0.63363004943E+02  0.75668862752E+02  0.00000000000E+00 0.  1.
         11    1    1    2    0    0 -0.10016523692E+02 -0.47498445282E+02 -0.21121752252E+03  0.21672396008E+03  0.00000000000E+00 0. -1.
</event>
<event>
 7    1  0.6473813E-006  0.1557164E+03  0.7561462E-02  0.1193620E+00
         -1   -1    0    0    0  501 -0.00000000000E+00  0.00000000000E+00  0.78218261076E+02  0.78218261076E+02  0.00000000000E+00 0.  1.
          1   -1    0    0  501    0  0.00000000000E+00 -0.00000000000E+00 -0.37196346324E+03  0.37196346324E+03  0.00000000000E+00 0. -1.
         23    2    1    2    0    0  0.44248840648E+02 -0.10504666471E+03 -0.74235440876E+02  0.18480177562E+03  0.12509210177E+03 0.  0.
          5    1    3    3  502    0  0.86849967997E+01  0.26875870877E+02  0.13804983180E+01  0.28585307072E+02  0.41800000000E+01 0. -1.
         -5    1    3    3    0  502  0.35563843848E+02 -0.13192253559E+03 -0.75615939194E+02  0.15621646855E+03  0.41800000000E+01 0. -1.
        -11    1    1    2    0    0 -0.11984540748E+02 -0.16520045837E+02 -0.15154245474E+02  0.25420312494E+02  0.00000000000E+00 0.  1.
         11    1    1    2    0    0 -0.32264299899E+02  0.12156671055E+03 -0.20435551582E+03  0.23995963620E+03  0.00000000000E+00 0. -1.
</event>
<event>
 7    1  0.6473813E-006  0.9942148E+02  0.7561462E-02  0.1281517E+00
          1   -1    0    0  501    0  0.00000000000E+00  0.00000000000E+00  0.20142368673E+03  0.20142368673E+03  0.00000000000E+00 0. -1.
         -1   -1    0    0    0  501 -0.00000000000E+00 -0.00000000000E+00 -0.10451408593E+03  0.10451408593E+03  0.00000000000E+00 0.  1.
         23    2    1    2    0    0 -0.28282606320E+02  0.35197451947E+02 -0.36901541436E+02  0.13801263601E+03  0.12508795903E+03 0.  0.
          5    1    3    3  502    0  0.41829765486E+02  0.24567366650E+02 -0.45270792436E+02  0.66484598461E+02  0.41800000000E+01 0. -1.
         -5    1    3    3    0  502 -0.70112371806E+02  0.10630085296E+02  0.83692510007E+01  0.71528037552E+02  0.41800000000E+01 0. -1.
        -11    1    1    2    0    0  0.18429548483E+02 -0.54452229289E+02  0.13451545146E+03  0.14628431294E+03  0.00000000000E+00 0. -1.
         11    1    1    2    0    0  0.98530578373E+01  0.19254777342E+02 -0.70430923003E+00  0.21640823707E+02  0.00000000000E+00 0.  1.
</event>
<event>
 7    1  0.6473813E-006  0.1390677E+03  0.7561462E-02  0.1214589E+00
         -4   -1    0    0    0  501 -0.00000000000E+00  0.00000000000E+00  0.12951129092E+03  0.12951129092E+03  0.00000000000E+00 0.  1.
          4   -1    0    0  501    0  0.00000000000E+00 -0.00000000000E+00 -0.18918326809E+03  0.18918326809E+03  0.00000000000E+00 0. -1.
         23    2    1    2    0    0 -0.93075153353E+02 -0.38018977890E+02  0.22715565918E+02  0.16208652763E+03  0.12509044189E+03 0.  0.
          5    1    3    3  502    0 -0.70158148262E+02  0.36896780948E+02 -0.32553033721E+01  0.79445626764E+02  0.41800000000E+01 0. -1.
         -5    1    3    3    0  502 -0.22917005091E+02 -0.74915758838E+02  0.25970869290E+02  0.82640900868E+02  0.41800000000E+01 0. -1.
        -11    1    1    2    0    0 -0.74109084568E+01  0.15709429010E+02  0.84581538581E+01  0.19319629672E+02  0.00000000000E+00 0.  1.
         11    1    1    2    0    0  0.10048606181E+03  0.22309548880E+02 -0.90845696945E+02  0.13728840170E+03  0.00000000000E+00 0. -1.
</event>
<event>
 6    1  0.6473813E-006  0.1235063E+03  0.7561462E-02  0.1237422E+00
          2   -1    0    0  501    0  0.00000000000E+00  0.00000000000E+00  0.28032102081E+02  0.28032102081E+02  0.00000000000E+00 0. -1.
         -2   -1    0    0    0  501 -0.00000000000E+00 -0.00000000000E+00 -0.55299201856E+03  0.55299201856E+03  0.00000000000E+00 0.  1.
          5    1    1    2  502    0  0.78021776632E+02 -0.22221380813E+02 -0.16301148100E+03  0.18213018073E+03  0.41800000000E+01 0. -1.
         -5    1    1    2    0  502 -0.55202128227E+02  0.42126610076E+02 -0.16533798691E+03  0.17937683394E+03  0.41800000000E+01 0.  1.
        -11    1    1    2    0    0  0.23860261761E+02  0.22759745903E+02 -0.85992648083E+02  0.92098065393E+02  0.00000000000E+00 0. -1.
         11    1    1    2    0    0 -0.46679910166E+02 -0.42664975167E+02 -0.11061780048E+03  0.12741904058E+03  0.00000000000E+00 0.  1.
</event>
<event>
 7    1  0.6473813E-006  0.9619756E+02  0.7561462E-02  0.1288501E+00
         -1   -1    0    0    0  501 -0.00000000000E+00  0.00000000000E+00  0.24790491884E+02  0.24790491884E+02  0.00000000000E+00 0.  1.
          1   -1    0    0  501    0  0.00000000000E+00 -0.00000000000E+00 -0.80677875693E+03  0.80677875693E+03  0.00000000000E+00 0. -1.
         23    2    1    2    0    0 -0.10990904351E+02  0.81538977193E+02 -0.31118416370E+03  0.34533019765E+03  0.12509179386E+03 0.  0.
          5    1    3    3  502    0  0.12224048146E+02  0.48986395143E+02 -0.25288839519E+02  0.56622363660E+02  0.41800000000E+01 0.  1.
         -5    1    3    3    0  502 -0.23214952497E+02  0.32552582050E+02 -0.28589532419E+03  0.28870783399E+03  0.41800000000E+01 0.  1.
        -11    1    1    2    0    0  0.23656142502E+02 -0.85140650218E+02 -0.46205745190E+03  0.47043132576E+03  0.00000000000E+00 0. -1.
         11    1    1    2    0    0 -0.12665238151E+02  0.36016730254E+01 -0.87466494436E+01  0.15807725405E+02  0.00000000000E+00 0.  1.
</event>
<event>
 7    1  0.6473813E-006  0.1224827E+03  0.7561462E-02  0.1239057E+00
         -1   -1    0    0    0  501 -0.00000000000E+00  0.00000000000E+00  0.25523920790E+02  0.25523920790E+02  0.00000000000E+00 0.  1.
          1   -1    0    0  501    0  0.00000000000E+00 -0.00000000000E+00 -0.65970729843E+03  0.65970729843E+03  0.00000000000E+00 0. -1.
         23    2    1    2    0    0  0.51572667436E+02  0.41966662003E+02 -0.39689262665E+03  0.42141674388E+03  0.12508946473E+03 0.  0.
          5    1    3    3  502    0  0.22932714225E+01 -0.42789835777E+02 -0.13748075811E+03  0.14406477845E+03  0.41800000000E+01 0.  1.
         -5    1    3    3    0  502  0.49279396014E+02  0.84756497781E+02 -0.25941186854E+03  0.27735196543E+03  0.41800000000E+01 0.  1.
        -11    1    1    2    0    0 -0.70104657516E+02 -0.16048229810E+02 -0.10188638910E+03  0.12471184775E+03  0.00000000000E+00 0.  1.
         11    1    1    2    0    0  0.18531990080E+02 -0.25918432193E+02 -0.13540436189E+03  0.13910262759E+03  0.00000000000E+00 0. -1.
</event>
<event>
 7    1  0.6473813E-006  0.6827981E+02  0.7561462E-02  0.1366042E+00
          3   -1    0    0  501    0  0.00000000000E+00  0.00000000000E+00  0.43519461599E+02  0.43519461599E+02  0.00000000000E+00 0. -1.
         -3   -1    0    0    0  501 -0.00000000000E+00 -0.00000000000E+00 -0.37945681749E+03  0.37945681749E+03  0.00000000000E+00 0.  1.
         23    2    1    2    0    0  0.33348666092E+02 -0.54057183382E+01 -0.28283918416E+03  0.31110197716E+03  0.12508029731E+03 0.  0.
          5    1    3    3  502    0 -0.10702228057E+02 -0.32555413440E+00 -0.26143293457E+03  0.26168548937E+03  0.41800000000E+01 0. -1.
         -5    1    3    3    0  502  0.44050894148E+02 -0.50801642038E+01 -0.21406249595E+02  0.49416487788E+02  0.41800000000E+01 0. -1.
        -11    1    1    2    0    0 -0.14411501000E+02  0.39212326408E+02 -0.59395934842E+02  0.72616630183E+02  0.00000000000E+00 0.  1.
         11    1    1    2    0    0 -0.18937165092E+02 -0.33806608070E+02  0.62977631118E+01  0.39257671749E+02  0.00000000000E+00 0. -1.
</event>
<event>
 7    1  0.6473813E-006  0.8200218E+02  0.7561462E-02  0.1323464E+00
          3   -1    0    0  501    0  0.00000000000E+00  0.00000000000E+00  0.39169461478E+03  0.39169461478E+03  0.00000000000E+00 0. -1.
         -3   -1    0    0    0  501 -0.00000000000E+00 -0.00000000000E+00 -0.47424239391E+02  0.47424239391E+02  0.00000000000E+00 0.  1.
         23    2    1    2    0    0 -0.62711738508E+01 -0.84939051554E+01  0.53578726230E+02  0.13445291783E+03  0.12286347367E+03 0.  0.
          5    1    3    3  502    0  0.18313565463E+02 -0.36684200969E+02  0.78951802262E+02  0.89061645848E+02  0.41800000000E+01 0. -1.
         -5    1    3    3    0  502 -0.24584739314E+02  0.28190295814E+02 -0.25373076032E+02  0.45391271986E+02  0.41800000000E+01 0.  1.
        -11    1    1    2    0    0  0.38509650062E+02 -0.18854042486E+02  0.20083577964E+03  0.20536182325E+03  0.00000000000E+00 0. -1.
         11    1    1    2    0    0 -0.32238476212E+02  0.27347947642E+02  0.89855869517E+02  0.99304113084E+02  0.00000000000E+00 0.  1.
</event>
<event>
 7    1  0.6473813E-006  0.1155262E+03  0.7561462E-02  0.1250665E+00
          2   -1    0    0  501    0  0.00000000000E+00  0.00000000000E+00  0.39955314767E+03  0.39955314767E+03  0.00000000000E+00 0. -1.
         -2   -1    0    0    0  501 -0.00000000000E+00 -0.00000000000E+00 -0.69649100207E+02  0.69649100207E+02  0.00000000000E+00 0.  1.
         23    2    1    2    0    0  0.29794766816E+01 -0.13253200334E+02  0.22677748941E+02  0.12785818787E+03  0.12509560867E+03 0.  0.
          5    1    3    3  502    0  0.87284911400E+01 -0.54230989907E+02  0.52956743218E+02  0.76413846102E+02  0.41800000000E+01 0.  1.
         -5    1    3    3    0  502 -0.57490144584E+01  0.40977789573E+02 -0.30278994277E+02  0.51444341768E+02  0.41800000000E+01 0.  1.
        -11    1    1    2    0    0 -0.65298949734E+02 -0.13290964815E+02  0.79382812109E+02  0.10364474632E+03  0.00000000000E+00 0. -1.
         11    1    1    2    0    0  0.62319473053E+02  0.26544165149E+02  0.22784348641E+03  0.23769931368E+03  0.00000000000E+00 0.  1.
</event>
<event>
 7    1  0.6473813E-006  0.2173758E+03  0.7561462E-02  0.1135855E+00
         -1   -1    0    0    0  501 -0.00000000000E+00  0.00000000000E+00  0.61907466602E+02  0.61907466602E+02  0.00000000000E+00 0.  1.
          1   -1    0    0  501    0  0.00000000000E+00 -0.00000000000E+00 -0.93475940256E+03  0.93475940256E+03  0.00000000000E+00 0. -1.
         23    2    1    2    0    0  0.19043795926E+03 -0.69104964167E+02 -0.30521399876E+03  0.38709474778E+03  0.12507856059E+03 0.  0.
          5    1    3    3  502    0  0.12530114527E+03 -0.61454686835E+01 -0.25306024026E+03  0.28248026726E+03  0.41800000000E+01 0.  1.
         -5    1    3    3    0  502  0.65136813992E+02 -0.62959495483E+02 -0.52153758501E+02  0.10461448052E+03  0.41800000000E+01 0.  1.
        -11    1    1    2    0    0 -0.18911494248E+03  0.44991253138E+02 -0.53303183615E+03  0.56737255192E+03  0.00000000000E+00 0.  1.
         11    1    1    2    0    0 -0.13230167834E+01  0.24113711029E+02 -0.34606101050E+02  0.42199569463E+02  0.00000000000E+00 0. -1.
</event>
<event>
 7    1  0.6473813E-006  0.1001504E+03  0.7561462E-02  0.1279980E+00
         -2   -1    0    0    0  501 -0.00000000000E+00  0.00000000000E+00  0.74710162795E+02  0.74710162795E+02  0.00000000000E+00 0.  1.
          2   -1    0    0  501    0  0.00000000000E+00 -0.00000000000E+00 -0.21553426971E+03  0.21553426971E+03  0.00000000000E+00 0. -1.
         23    2    1    2    0    0 -0.60510189686E+02  0.24768703333E+02 -0.90480521839E+02  0.16765318050E+03  0.12508354159E+03 0.  0.
          5    1    3    3  502    0 -0.13628901777E+02  0.58958327534E+02 -0.68610248151E+00  0.60661144779E+02  0.41800000000E+01 0. -1.
         -5    1    3    3    0  502 -0.46881287909E+02 -0.34189624202E+02 -0.89794419358E+02  0.10699203572E+03  0.41800000000E+01 0. -1.
        -11    1    1    2    0    0 -0.19402168770E+01  0.98678011270E+01 -0.50180782181E+02  0.51178597489E+02  0.00000000000E+00 0. -1.
         11    1    1    2    0    0  0.62450406563E+02 -0.34636504460E+02 -0.16280289573E+00  0.71412654522E+02  0.00000000000E+00 0.  1.
</event>
<event>
 7    1  0.6473813E-006  0.1311946E+03  0.7561462E-02  0.1225694E+00
         -1   -1    0    0    0  501 -0.00000000000E+00  0.00000000000E+00  0.11992818578E+04  0.11992818578E+04  0.00000000000E+00 0.  1.
          1   -1    0    0  501    0  0.00000000000E+00 -0.00000000000E+00 -0.18690226252E+02  0.18690226252E+02  0.00000000000E+00 0. -1.
         23    2    1    2    0    0 -0.32241405460E+02  0.73731870201E+02  0.90422928352E+03  0.91638190996E+03  0.12509720550E+03 0.  0.
          5    1    3    3  502    0  0.77915977584E+01 -0.33222669893E+02  0.22274372712E+03  0.22538122184E+03  0.41800000000E+01 0. -1.
         -5    1    3    3    0  502 -0.40033003219E+02  0.10695454009E+03  0.68148555640E+03  0.69100068812E+03  0.41800000000E+01 0. -1.
        -11    1    1    2    0    0  0.14009518286E+02 -0.88911508477E+02  0.16728400175E+03  0.18996173347E+03  0.00000000000E+00 0. -1.
         11    1    1    2    0    0  0.18231887174E+02  0.15179638276E+02  0.10907834632E+03  0.11162844066E+03  0.00000000000E+00 0.  1.
</event>
<event>
 7    1  0.6473813E-006  0.1011983E+03  0.7561462E-02  0.1277796E+00
          2   -1    0    0  501    0  0.00000000000E+00  0.00000000000E+00  0.12742984524E+03  0.12742984524E+03  0.00000000000E+00 0. -1.
         -2   -1    0    0    0  501 -0.00000000000E+00 -0.00000000000E+00 -0.98617601510E+02  0.98617601510E+02  0.00000000000E+00 0.  1.
         23    2    1    2    0    0  0.13835476331E+01  0.63799120190E+01 -0.12166203919E+02  0.12585063776E+03  0.12509096301E+03 0.  0.
          5    1    3    3  502    0  0.58098863036E+02  0.40357600666E+01 -0.30731007682E+02  0.65982061794E+02  0.41800000000E+01 0.  1.
         -5    1    3    3    0  502 -0.56715315403E+02  0.23441519525E+01  0.18564803764E+02  0.59868575968E+02  0.41800000000E+01 0.  1.
        -11    1    1    2    0    0 -0.44091636632E+02 -0.16664243200E+01  0.54796796101E+01  0.44462076870E+02  0.00000000000E+00 0.  1.
         11    1    1    2    0    0  0.42708088999E+02 -0.47134876991E+01  0.35498768042E+02  0.55734732123E+02  0.00000000000E+00 0. -1.
</event>
<event>
 7    1  0.6473813E-006  0.1015369E+03  0.7561462E-02  0.1277097E+00
         -2   -1    0    0    0  501 -0.00000000000E+00  0.00000000000E+00  0.19442132112E+02  0.19442132112E+02  0.00000000000E+00 0.  1.
          2   -1    0    0  501    0  0.00000000000E+00 -0.00000000000E+00 -0.77201687414E+03  0.77201687414E+03  0.00000000000E+00 0. -1.
         23    2    1    2    0    0 -0.53115994192E+02 -0.16333812098E+02 -0.36470948428E+03  0.38954740306E+03  0.12508424778E+03 0.  0.
          5    1    3    3  502    0  0.21041624419E+02  0.69108555527E+01 -0.71938907636E+01  0.23658705522E+02  0.41800000000E+01 0.  1.
         -5    1    3    3    0  502 -0.74157618611E+02 -0.23244667651E+02 -0.35751559352E+03  0.36588869753E+03  0.41800000000E+01 0.  1.
        -11    1    1    2    0    0  0.76801168544E+02  0.18267035371E+02 -0.25508137203E+03  0.26701799645E+03  0.00000000000E+00 0.  1.
         11    1    1    2    0    0 -0.23685174352E+02 -0.19332232724E+01 -0.13278388572E+03  0.13489360675E+03  0.00000000000E+00 0. -1.
</event>
<event>
 7    1  0.6473813E-006  0.1253600E+03  0.7561462E-02  0.1234508E+00
          1   -1    0    0  501    0  0.00000000000E+00  0.00000000000E+00  0.12536202639E+03  0.12536202639E+03  0.00000000000E+00 0. -1.
         -1   -1    0    0    0  501 -0.00000000000E+00 -0.00000000000E+00 -0.12838544003E+03  0.12838544003E+03  0.00000000000E+00 0.  1.
         23    2    1    2    0    0  0.31321418364E+02  0.58414084531E+02  0.26840317050E+01  0.14159593554E+03  0.12509583692E+03 0.  0.
          5    1    3    3  502    0  0.48304061889E+02 -0.25012013279E+02 -0.98550595426E+01  0.55438955634E+02  0.41800000000E+01 0.  1.
         -5    1    3    3    0  502 -0.16982643525E+02  0.83426097810E+02  0.12539091248E+02  0.86156979904E+02  0.41800000000E+01 0.  1.
        -11    1    1    2    0    0  0.28918247823E+02 -0.37069340864E+02  0.52587142346E+01  0.47308087730E+02  0.00000000000E+00 0.  1.
         11    1    1    2    0    0 -0.60239666187E+02 -0.21344743666E+02 -0.10966159582E+02  0.64843443157E+02  0.00000000000E+00 0. -1.
</event>
<event>
 7    1  0.6473813E-006  0.6943791E+02  0.7561462E-02  0.1362015E+00
          2   -1    0    0  501    0  0.00000000000E+00  0.00000000000E+00  0.62103268783E+03  0.62103268783E+03  0.00000000000E+00 0. -1.
         -2   -1    0    0    0  501 -0.00000000000E+00 -0.00000000000E+00 -0.25008497295E+02  0.25008497295E+02  0.00000000000E+00 0.  1.
         23    2    1    2    0    0 -0.30003575340E+02  0.15775843114E+02  0.16446951552E+03  0.20350319632E+03  0.11495319752E+03 0.  0.
          5    1    3    3  502    0 -0.27699627272E+02  0.26965181263E+01  0.18026432173E+03  0.18244790667E+03  0.41800000000E+01 0. -1.
         -5    1    3    3    0  502 -0.23039480683E+01  0.13079324987E+02 -0.15794806214E+02  0.21055289648E+02  0.41800000000E+01 0.  1.
        -11    1    1    2    0    0 -0.15743465812E+02  0.28872740322E+02  0.11588254646E+03  0.12045852574E+03  0.00000000000E+00 0.  1.
         11    1    1    2    0    0  0.45747041153E+02 -0.44648583436E+02  0.31567212856E+03  0.32207946306E+03  0.00000000000E+00 0. -1.
</event>
<event>
 7    1  0.6473813E-006  0.7490573E+02  0.7561462E-02  0.1344163E+00
         -3   -1    0    0    0  501 -0.00000000000E+00  0.00000000000E+00  0.57259428404E+02  0.57259428404E+02  0.00000000000E+00 0.  1.
          3   -1    0    0  501    0  0.00000000000E+00 -0.00000000000E+00 -0.24997603823E+03  0.24997603823E+03  0.00000000000E+00 0. -1.
         23    2    1    2    0    0  0.13395076599E+02  0.29662682104E+02 -0.99410274063E+02  0.16306226182E+03  0.12509035076E+03 0.  0.
          5    1    3    3  502    0 -0.19482326160E+02  0.37122744972E+02  0.14216302237E+02  0.44466109299E+02  0.41800000000E+01 0. -1.
         -5    1    3    3    0  502  0.32877402759E+02 -0.74600628685E+01 -0.11362657630E+03  0.11859615252E+03  0.41800000000E+01 0. -1.
        -11    1    1    2    0    0  0.20723981151E+02 -0.33480909692E+02  0.53279595505E+01  0.39734643091E+02  0.00000000000E+00 0.  1.
         11    1    1    2    0    0 -0.34119057749E+02  0.38182275886E+01 -0.98634295311E+02  0.10443856172E+03  0.00000000000E+00 0. -1.
</event>
<event>
 7    1  0.6473813E-006  0.8975129E+02  0.7561462E-02  0.1303455E+00
          2   -1    0    0  501    0  0.00000000000E+00  0.00000000000E+00  0.20605790606E+02  0.20605790606E+02  0.00000000000E+00 0.  1.
         -2   -1    0    0    0  501 -0.00000000000E+00 -0.00000000000E+00 -0.67492987733E+03  0.67492987733E+03  0.00000000000E+00 0. -1.
         23    2    1    2    0    0  0.29066538627E+02  0.27697089294E+02 -0.47115784849E+03  0.48913105442E+03  0.12508987882E+03 0.  0.
          5    1    3    3  502    0  0.37748517719E+02  0.65314590916E+02 -0.17741854567E+03  0.19283609393E+03  0.41800000000E+01 0. -1.
         -5    1    3    3    0  502 -0.86819790915E+01 -0.37617501621E+02 -0.29373930282E+03  0.29629496049E+03  0.41800000000E+01 0. -1.
        -11    1    1    2    0    0 -0.19007599435E+02  0.13108464594E+02 -0.53658385441E+01  0.23704702140E+02  0.00000000000E+00 0.  1.
         11    1    1    2    0    0 -0.10058939193E+02 -0.40805553888E+02 -0.17780039969E+03  0.18269991137E+03  0.00000000000E+00 0. -1.
</event>
<event>
 7    1  0.6473813E-006  0.1095284E+03  0.7561462E-02  0.1261446E+00
         -2   -1    0    0    0  501 -0.00000000000E+00  0.00000000000E+00  0.14561448963E+02  0.14561448963E+02  0.00000000000E+00 0.  1.
          2   -1    0    0  501    0  0.00000000000E+00 -0.00000000000E+00 -0.85083706774E+03  0.85083706774E+03  0.00000000000E+00 0. -1.
         23    2    1    2    0    0  0.24316329142E+02  0.71257976579E+01 -0.45188965243E+03  0.46957756043E+03  0.12512700119E+03 0.  0.
          5    1    3    3  502    0  0.56336798403E+02  0.47570268668E+02 -0.22305527908E+03  0.23496360408E+03  0.41800000000E+01 0.  1.
         -5    1    3    3    0  502 -0.32020469261E+02 -0.40444471010E+02 -0.22883437335E+03  0.23461395635E+03  0.41800000000E+01 0.  1.
        -11    1    1    2    0    0 -0.57374473197E+02  0.64019847068E+01 -0.20850317771E+03  0.21634784653E+03  0.00000000000E+00 0.  1.
         11    1    1    2    0    0  0.33058144055E+02 -0.13527782365E+02 -0.17588278863E+03  0.17947310975E+03  0.00000000000E+00 0. -1.
</event>
<event>
 7    1  0.6473813E-006  0.1114798E+03  0.7561462E-02  0.1257854E+00
         -1   -1    0    0    0  501 -0.00000000000E+00  0.00000000000E+00  0.97553999787E+02  0.97553999787E+02  0.00000000000E+00 0.  1.
          1   -1    0    0  501    0  0.00000000000E+00 -0.00000000000E+00 -0.19281957206E+03  0.19281957206E+03  0.00000000000E+00 0. -1.
         23    2    1    2    0    0  0.32573564288E+02  0.68100369750E+02 -0.12722272299E+02  0.14665381285E+03  0.12508711828E+03 0.  0.
          5    1    3    3  502    0  0.49563220601E+02 -0.21080272676E+02  0.42996782205E+01  0.54192715057E+02  0.41800000000E+01 0. -1.
         -5    1    3    3    0  502 -0.16989656313E+02  0.89180642426E+02 -0.17021950520E+02  0.92461097791E+02  0.41800000000E+01 0. -1.
        -11    1    1    2    0    0 -0.27006613622E+02 -0.33589972544E+02  0.10470647015E+02  0.44354006400E+02  0.00000000000E+00 0.  1.
         11    1    1    2    0    0 -0.55669506661E+01 -0.34510397206E+02 -0.93013946991E+02  0.99365752601E+02  0.00000000000E+00 0. -1.
</event>
<event>
 7    1  0.6473813E-006  0.1459198E+03  0.7561462E-02  0.1205578E+00
          2   -1    0    0  501    0  0.00000000000E+00  0.00000000000E+00  0.49491730190E+03  0.49491730190E+03  0.00000000000E+00 0. -1.
         -2   -1    0    0    0  501 -0.00000000000E+00 -0.00000000000E+00 -0.55894945988E+02  0.55894945988E+02  0.00000000000E+00 0.  1.
         23    2    1    2    0    0  0.82631017216E+02 -0.95978969586E+02  0.25073700227E+03  0.30750411871E+03  0.12509952479E+03 0.  0.
          5    1    3    3  502    0  0.12672845254E+01 -0.39807799706E+02  0.18361041696E+03  0.18792691278E+03  0.41800000000E+01 0.  1.
         -5    1    3    3    0  502  0.81363732691E+02 -0.56171169880E+02  0.67126585309E+02  0.11957720593E+03  0.41800000000E+01 0.  1.
        -11    1    1    2    0    0 -0.36732981710E+02 -0.93805813766E+01  0.33995818431E+02  0.50921733308E+02  0.00000000000E+00 0. -1.
         11    1    1    2    0    0 -0.45898035506E+02  0.10535955096E+03  0.15428953521E+03  0.19238639587E+03  0.00000000000E+00 0.  1.
</event>
<event>
 7    1  0.6473813E-006  0.1089317E+03  0.7561462E-02  0.1262561E+00
         -3   -1    0    0    0  501 -0.00000000000E+00  0.00000000000E+00  0.62694400257E+03  0.62694400257E+03  0.00000000000E+00 0.  1.
          3   -1    0    0  501    0  0.00000000000E+00 -0.00000000000E+00 -0.22534860043E+02  0.22534860043E+02  0.00000000000E+00 0. -1.
         23    2    1    2    0    0 -0.21764682042E+02 -0.40952196169E+02  0.38502137448E+03  0.40748020791E+03  0.12509147563E+03 0.  0.
          5    1    3    3  502    0  0.34879394342E+02  0.13160221401E+02  0.23704879041E+03  0.23999867710E+03  0.41800000000E+01 0. -1.
         -5    1    3    3    0  502 -0.56644076384E+02 -0.54112417570E+02  0.14797258408E+03  0.16748153081E+03  0.41800000000E+01 0. -1.
        -11    1    1    2    0    0 -0.27257383668E+02  0.45107914117E+02  0.10521323103E+03  0.11767545566E+03  0.00000000000E+00 0.  1.
         11    1    1    2    0    0  0.49022065710E+02 -0.41557179480E+01  0.11417453701E+03  0.12432319904E+03  0.00000000000E+00 0. -1.
</event>
<event>
 7    1  0.6473813E-006  0.1671761E+03  0.7561462E-02  0.1180825E+00
          1   -1    0    0  501    0  0.00000000000E+00  0.00000000000E+00  0.14250130839E+04  0.14250130839E+04  0.00000000000E+00 0. -1.
         -1   -1    0    0    0  501 -0.00000000000E+00 -0.00000000000E+00 -0.22388895127E+02  0.22388895127E+02  0.00000000000E+00 0.  1.
         23    2    1    2    0    0  0.68328052417E+02 -0.12094169004E+03  0.62835988816E+03  0.65557698474E+03  0.12509763683E+03 0.  0.
          5    1    3    3  502    0  0.47282999193E+02 -0.13693093416E+03  0.59706411807E+03  0.61440116880E+03  0.41800000000E+01 0. -1.
         -5    1    3    3    0  502  0.21045053224E+02  0.15989244120E+02  0.31295770096E+02  0.41175815944E+02  0.41800000000E+01 0. -1.
        -11    1    1    2    0    0 -0.27893130947E+02 -0.67749271216E+01  0.86594824120E+02  0.91228230038E+02  0.00000000000E+00 0.  1.
         11    1    1    2    0    0 -0.40434921470E+02  0.12771661716E+03  0.68766947650E+03  0.70059676425E+03  0.00000000000E+00 0. -1.
</event>
<event>
 7    1  0.6473813E-006  0.2986796E+03  0.7561462E-02  0.1085903E+00
          2   -1    0    0  501    0  0.00000000000E+00  0.00000000000E+00  0.65349926208E+03  0.65349926208E+03  0.00000000000E+00 0. -1.
         -2   -1    0    0    0  501 -0.00000000000E+00 -0.00000000000E+00 -0.21353137464E+03  0.21353137464E+03  0.00000000000E+00 0.  1.
         23    2    1    2    0    0 -0.13810078296E+03  0.25097459501E+03 -0.25354945189E+02  0.31364113234E+03  0.12517113506E+03 0.  0.
          5    1    3    3  502    0  0.17071197492E+02  0.32488893649E+01 -0.10915372415E+02  0.20942751034E+02  0.41800000000E+01 0. -1.
         -5    1    3    3    0  502 -0.15517198046E+03  0.24772570564E+03 -0.14439572774E+02  0.29269838130E+03  0.41800000000E+01 0. -1.
        -11    1    1    2    0    0  0.30888674455E+02 -0.40483034953E+02  0.15652726368E+03  0.16460185480E+03  0.00000000000E+00 0. -1.
         11    1    1    2    0    0  0.10721210851E+03 -0.21049156006E+03  0.30879556895E+03  0.38878764959E+03  0.00000000000E+00 0.  1.
</event>
<event>
 7    1  0.6473813E-006  0.1466430E+03  0.7561462E-02  0.1204660E+00
         -1   -1    0    0    0  501 -0.00000000000E+00  0.00000000000E+00  0.12908486283E+03  0.12908486283E+03  0.00000000000E+00 0.  1.
          1   -1    0    0  501    0  0.00000000000E+00 -0.00000000000E+00 -0.45285273610E+03  0.45285273610E+03  0.00000000000E+00 0. -1.
         23    2    1    2    0    0 -0.12994812486E+03 -0.15168042396E+02  0.37185434948E+02  0.18478781947E+03  0.12508875644E+03 0.  0.
          5    1    3    3  502    0 -0.10563128188E+03 -0.29130371401E+02  0.78375703085E+02  0.13478415887E+03  0.41800000000E+01 0.  1.
         -5    1    3    3    0  502 -0.24316842982E+02  0.13962329006E+02 -0.41190268137E+02  0.50003660597E+02  0.41800000000E+01 0.  1.
        -11    1    1    2    0    0  0.22763811125E+02  0.39297988735E+02 -0.50945867154E+02  0.68249574326E+02  0.00000000000E+00 0. -1.
         11    1    1    2    0    0  0.10718431373E+03 -0.24129946340E+02 -0.31000744107E+03  0.32890020513E+03  0.00000000000E+00 0.  1.
</event>
<event>
 7    1  0.6473813E-006  0.1292522E+03  0.7561462E-02  0.1228570E+00
          2   -1    0    0  501    0  0.00000000000E+00  0.00000000000E+00  0.42135421372E+03  0.42135421372E+03  0.00000000000E+00 0. -1.
         -2   -1    0    0    0  501 -0.00000000000E+00 -0.00000000000E+00 -0.77620480185E+02  0.77620480185E+02  0.00000000000E+00 0.  1.
         23    2    1    2    0    0 -0.13996759919E+02 -0.12764226279E+03  0.90848958991E+02  0.20097189573E+03  0.12509081895E+03 0.  0.
          5    1    3    3  502    0 -0.12560196390E+02 -0.37908491558E+02  0.10277586676E+03  0.11034112313E+03  0.41800000000E+01 0. -1.
         -5    1    3    3    0  502 -0.14365635290E+01 -0.89733771228E+02 -0.11926907764E+02  0.90630772602E+02  0.41800000000E+01 0. -1.
        -11    1    1    2    0    0  0.36290867128E+01  0.56305479968E+02  0.20208880247E+03  0.20981744786E+03  0.00000000000E+00 0. -1.
         11    1    1    2    0    0  0.10367673206E+02  0.71336782819E+02  0.50795972075E+02  0.88185350312E+02  0.00000000000E+00 0.  1.
</event>
<event>
 7    1  0.6473813E-006  0.1450685E+03  0.7561462E-02  0.1206667E+00
          1   -1    0    0  501    0  0.00000000000E+00  0.00000000000E+00  0.37751960739E+03  0.37751960739E+03  0.00000000000E+00 0. -1.
         -1   -1    0    0    0  501 -0.00000000000E+00 -0.00000000000E+00 -0.66598594761E+02  0.66598594761E+02  0.00000000000E+00 0.  1.
         23    2    1    2    0    0  0.90512573346E+02  0.46128388318E+02  0.90139158483E+02  0.18465035707E+03  0.12510128829E+03 0.  0.
          5    1    3    3  502    0 -0.24349868124E+02 -0.16355890094E+02  0.23581094497E+02  0.37867817947E+02  0.41800000000E+01 0.  1.
         -5    1    3    3    0  502  0.11486244147E+03  0.62484278411E+02  0.66558063986E+02  0.14678253912E+03  0.41800000000E+01 0.  1.
        -11    1    1    2    0    0 -0.44139642514E+02  0.20368855983E+02  0.46585182292E+02  0.67330361238E+02  0.00000000000E+00 0.  1.
         11    1    1    2    0    0 -0.46372930832E+02 -0.66497244301E+02  0.17419667185E+03  0.19213748385E+03  0.00000000000E+00 0. -1.
</event>
<event>
 7    1  0.6473813E-006  0.1039434E+03  0.7561462E-02  0.1272215E+00
          2   -1    0    0  501    0  0.00000000000E+00  0.00000000000E+00  0.90474978280E+02  0.90474978280E+02  0.00000000000E+00 0. -1.
         -2   -1    0    0    0  501 -0.00000000000E+00 -0.00000000000E+00 -0.18029467140E+03  0.18029467140E+03  0.00000000000E+00 0.  1.
         23    2    1    2    0    0  0.29468807256E+02  0.38595357263E+02 -0.99955665902E+02  0.16730469233E+03  0.12506683304E+03 0.  0.
          5    1    3    3  502    0 -0.21703546798E+02 -0.18098584580E+02 -0.84597835790E+02  0.89290922986E+02  0.41800000000E+01 0. -1.
         -5    1    3    3    0  502  0.51172354054E+02  0.56693941843E+02 -0.15357830112E+02  0.78013769342E+02  0.41800000000E+01 0. -1.
        -11    1    1    2    0    0 -0.43389971444E+02  0.16185572420E+02  0.71979022781E+01  0.46866535755E+02  0.00000000000E+00 0. -1.
         11    1    1    2    0    0  0.13921164188E+02 -0.54780929683E+02  0.29380705002E+01  0.56598421600E+02  0.00000000000E+00 0.  1.
</event>
<event>
 7    1  0.6473813E-006  0.1245009E+03  0.7561462E-02  0.1235851E+00
          4   -1    0    0  501    0  0.00000000000E+00  0.00000000000E+00  0.95110737381E+02  0.95110737381E+02  0.00000000000E+00 0. -1.
         -4   -1    0    0    0  501 -0.00000000000E+00 -0.00000000000E+00 -0.22618809978E+03  0.22618809978E+03  0.00000000000E+00 0.  1.
         23    2    1    2    0    0  0.21888316374E+02  0.88797603950E+02 -0.11106377464E+03  0.19065108737E+03  0.12509421337E+03 0.  0.
          5    1    3    3  502    0  0.56644217842E+02  0.26924983142E+02 -0.10084593172E+03  0.11883137833E+03  0.41800000000E+01 0.  1.
         -5    1    3    3    0  502 -0.34755901468E+02  0.61872620807E+02 -0.10217842919E+02  0.71819709038E+02  0.41800000000E+01 0.  1.
        -11    1    1    2    0    0 -0.45942180801E+02 -0.41131877449E+02  0.18995788785E+02  0.64524067686E+02  0.00000000000E+00 0. -1.
         11    1    1    2    0    0  0.24053864427E+02 -0.47665726500E+02 -0.39009376550E+02  0.66123682108E+02  0.00000000000E+00 0.  1.
</event>
<event>
 7    1  0.6473813E-006  0.9886234E+02  0.7561462E-02  0.1282707E+00
          2   -1    0    0  501    0  0.00000000000E+00  0.00000000000E+00  0.18425535404E+03  0.18425535404E+03  0.00000000000E+00 0. -1.
         -2   -1    0    0    0  501 -0.00000000000E+00 -0.00000000000E+00 -0.80246390853E+02  0.80246390853E+02  0.00000000000E+00 0.  1.
         23    2    1    2    0    0 -0.77257105607E+00  0.52330040324E+02  0.36299693656E+02  0.14037450594E+03  0.12509318196E+03 0.  0.
          5    1    3    3  502    0  0.18216017706E+01  0.73529722131E+02 -0.23023947182E+02  0.77184926077E+02  0.41800000000E+01 0. -1.
         -5    1    3    3    0  502 -0.25941728267E+01 -0.21199681807E+02  0.59323640838E+02  0.63189579866E+02  0.41800000000E+01 0. -1.
        -11    1    1    2    0    0  0.39723997225E+02 -0.35719710995E+01  0.15603107961E+02  0.42827700278E+02  0.00000000000E+00 0. -1.
         11    1    1    2    0    0 -0.38951426169E+02 -0.48758069224E+02  0.52106161571E+02  0.81299538674E+02  0.00000000000E+00 0.  1.
</event>
<event>
 7    1  0.6473813E-006  0.7117899E+02  0.7561462E-02  0.1356129E+00
         -2   -1    0    0    0  501 -0.00000000000E+00  0.00000000000E+00  0.23467538783E+03  0.23467538783E+03  0.00000000000E+00 0.  1.
          2   -1    0    0  501    0  0.00000000000E+00 -0.00000000000E+00 -0.55967648252E+02  0.55967648252E+02  0.00000000000E+00 0. -1.
         23    2    1    2    0    0 -0.35385646007E+02  0.88243873404E+01  0.10910946337E+03  0.16995247030E+03  0.12509577694E+03 0.  0.
          5    1    3    3  502    0  0.27158591186E+02  0.14133528291E+02  0.10207814375E+03  0.10665254582E+03  0.41800000000E+01 0. -1.
         -5    1    3    3    0  502 -0.62544237193E+02 -0.53091409509E+01  0.70313196200E+01  0.63299924481E+02  0.41800000000E+01 0. -1.
        -11    1    1    2    0    0  0.11807631146E+01 -0.13917650798E+02  0.82579485632E+02  0.83752412817E+02  0.00000000000E+00 0.  1.
         11    1    1    2    0    0  0.34204882893E+02  0.50932634577E+01 -0.12981209428E+02  0.36938152966E+02  0.00000000000E+00 0. -1.
</event>
<event>
 7    1  0.6473813E-006  0.1152938E+03  0.7561462E-02  0.1251069E+00
         -2   -1    0    0    0  501 -0.00000000000E+00  0.00000000000E+00  0.92463212788E+02  0.92463212788E+02  0.00000000000E+00 0. -1.
          2   -1    0    0  501    0  0.00000000000E+00 -0.00000000000E+00 -0.20231810961E+03  0.20231810961E+03  0.00000000000E+00 0.  1.
         23    2    1    2    0    0  0.59372479609E+02 -0.54845529399E+02 -0.18060347517E+02  0.15002268443E+03  0.12508999265E+03 0.  0.
          5    1    3    3  502    0  0.91114780141E+02 -0.32381642183E+02  0.16070543452E+02  0.98113244150E+02  0.41800000000E+01 0.  1.
         -5    1    3    3    0  502 -0.31742300532E+02 -0.22463887216E+02 -0.34130890969E+02  0.51909440281E+02  0.41800000000E+01 0.  1.
        -11    1    1    2    0    0 -0.54535711421E+02  0.17856813263E+02 -0.14891275955E+02  0.59285408826E+02  0.00000000000E+00 0. -1.
         11    1    1    2    0    0 -0.48367681886E+01  0.36988716137E+02 -0.76903273348E+02  0.85473229140E+02  0.00000000000E+00 0.  1.
</event>
<event>
 7    1  0.6473813E-006  0.9465158E+02  0.7561462E-02  0.1291963E+00
          2   -1    0    0  501    0  0.00000000000E+00  0.00000000000E+00  0.10510928928E+04  0.10510928928E+04  0.00000000000E+00 0. -1.
         -2   -1    0    0    0  501 -0.00000000000E+00 -0.00000000000E+00 -0.12132843979E+02  0.12132843979E+02  0.00000000000E+00 0.  1.
         23    2    1    2    0    0  0.13459774715E+02  0.30126439295E+02  0.56935080153E+03  0.58386241089E+03  0.12508481829E+03 0.  0.
          5    1    3    3  502    0 -0.29456121793E+02  0.39087521619E+02  0.90340079187E+02  0.10283141429E+03  0.41800000000E+01 0.  1.
         -5    1    3    3    0  502  0.42915896508E+02 -0.89610823244E+01  0.47901072234E+03  0.48103099660E+03  0.41800000000E+01 0.  1.
        -11    1    1    2    0    0  0.27333487734E+02  0.18245951601E+02  0.16924810885E+03  0.17240927078E+03  0.00000000000E+00 0. -1.
         11    1    1    2    0    0 -0.40793262450E+02 -0.48372390896E+02  0.30036113840E+03  0.30695405506E+03  0.00000000000E+00 0.  1.
</event>
<event>
 7    1  0.6473813E-006  0.1121948E+03  0.7561462E-02  0.1256559E+00
         -2   -1    0    0    0  501 -0.00000000000E+00  0.00000000000E+00  0.40874383905E+03  0.40874383905E+03  0.00000000000E+00 0.  1.
          2   -1    0    0  501    0  0.00000000000E+00 -0.00000000000E+00 -0.37872417274E+02  0.37872417274E+02  0.00000000000E+00 0. -1.
         23    2    1    2    0    0 -0.26513183484E+02  0.30651754188E+02  0.29524428590E+03  0.32320178928E+03  0.12509088418E+03 0.  0.
          5    1    3    3  502    0 -0.73854649693E+02 -0.78597817751E+00  0.15221560317E+03  0.16924003454E+03  0.41800000000E+01 0.  1.
         -5    1    3    3    0  502  0.47341466209E+02  0.31437732365E+02  0.14302868274E+03  0.15396175475E+03  0.41800000000E+01 0.  1.
        -11    1    1    2    0    0  0.20535591368E+02 -0.60032269286E+02  0.66868151701E+02  0.92178813077E+02  0.00000000000E+00 0.  1.
         11    1    1    2    0    0  0.59775921166E+01  0.29380515098E+02  0.87589841756E+01  0.31235653966E+02  0.00000000000E+00 0. -1.
</event>
<event>
 7    1  0.6473813E-006  0.7853021E+02  0.7561462E-02  0.1333275E+00
         -1   -1    0    0    0  501 -0.00000000000E+00  0.00000000000E+00  0.27644951839E+02  0.27644951839E+02  0.00000000000E+00 0. -1.
          1   -1    0    0  501    0  0.00000000000E+00 -0.00000000000E+00 -0.62371275538E+03  0.62371275538E+03  0.00000000000E+00 0.  1.
         23    2    1    2    0    0 -0.17820660360E+02 -0.29674684824E+02 -0.16950701020E+03  0.21349690151E+03  0.12510050996E+03 0.  0.
          5    1    3    3  502    0 -0.28690934433E+02 -0.35451489584E+02 -0.18653426226E+03  0.19207415555E+03  0.41800000000E+01 0.  1.
         -5    1    3    3    0  502  0.10870274073E+02  0.57768047607E+01  0.17027252064E+02  0.21422745961E+02  0.41800000000E+01 0.  1.
        -11    1    1    2    0    0 -0.11864663033E+02 -0.29644057929E+02 -0.16149768286E+03  0.16462394106E+03  0.00000000000E+00 0.  1.
         11    1    1    2    0    0  0.29685323393E+02  0.59318742752E+02 -0.26506311048E+03  0.27323686465E+03  0.00000000000E+00 0. -1.
</event>
<event>
 7    1  0.6473813E-006  0.7982215E+02  0.7561462E-02  0.1329557E+00
          1   -1    0    0  501    0  0.00000000000E+00  0.00000000000E+00  0.12892415243E+03  0.12892415243E+03  0.00000000000E+00 0. -1.
         -1   -1    0    0    0  501 -0.00000000000E+00 -0.00000000000E+00 -0.95769997926E+02  0.95769997926E+02  0.00000000000E+00 0.  1.
         23    2    1    2    0    0  0.95251025897E+01 -0.10630836270E+02 -0.41495216249E+01  0.12596964728E+03  0.12508953292E+03 0.  0.
          5    1    3    3  502    0 -0.39485295966E+02 -0.17600616317E+02  0.40343559042E+02  0.59278541214E+02  0.41800000000E+01 0. -1.
         -5    1    3    3    0  502  0.49010398556E+02  0.69697800468E+01 -0.44493080667E+02  0.66691106062E+02  0.41800000000E+01 0. -1.
        -11    1    1    2    0    0 -0.37495234924E+02  0.34388318623E+01  0.53646295913E+02  0.65541157083E+02  0.00000000000E+00 0. -1.
         11    1    1    2    0    0  0.27970132334E+02  0.71920044080E+01 -0.16342619784E+02  0.33183345998E+02  0.00000000000E+00 0.  1.
</event>
<event>
 7    1  0.6473813E-006  0.1024002E+03  0.7561462E-02  0.1275328E+00
         -2   -1    0    0    0  501 -0.00000000000E+00  0.00000000000E+00  0.46007128120E+02  0.46007128120E+02  0.00000000000E+00 0.  1.
          2   -1    0    0  501    0  0.00000000000E+00 -0.00000000000E+00 -0.31895749042E+03  0.31895749042E+03  0.00000000000E+00 0. -1.
         23    2    1    2    0    0 -0.30390514251E+02 -0.40848824517E+02 -0.12432627592E+03  0.18356718883E+03  0.12509068754E+03 0.  0.
          5    1    3    3  502    0 -0.36766543797E+02 -0.65608477969E+02 -0.22669924909E+02  0.78661610838E+02  0.41800000000E+01 0.  1.
         -5    1    3    3    0  502  0.63760295468E+01  0.24759653453E+02 -0.10165635101E+03  0.10490557799E+03  0.41800000000E+01 0.  1.
        -11    1    1    2    0    0 -0.41953362768E+01  0.62581619166E+02 -0.81820619403E+02  0.10309545899E+03  0.00000000000E+00 0.  1.
         11    1    1    2    0    0  0.34585850527E+02 -0.21732794650E+02 -0.66803466981E+02  0.78301970733E+02  0.00000000000E+00 0. -1.
</event>
<event>
 7    1  0.6473813E-006  0.9191817E+02  0.7561462E-02  0.1298272E+00
         -2   -1    0    0    0  501 -0.00000000000E+00  0.00000000000E+00  0.12680207683E+03  0.12680207683E+03  0.00000000000E+00 0.  1.
          2   -1    0    0  501    0  0.00000000000E+00 -0.00000000000E+00 -0.13475461874E+03  0.13475461874E+03  0.00000000000E+00 0. -1.
         23    2    1    2    0    0  0.24600468051E+01 -0.64463670300E+01  0.70579045651E+02  0.14379302421E+03  0.12508966643E+03 0.  0.
          5    1    3    3  502    0 -0.44519782425E+02  0.10651612194E+02  0.80455870396E+02  0.92661142615E+02  0.41800000000E+01 0.  1.
         -5    1    3    3    0  502  0.46979829230E+02 -0.17097979224E+02 -0.98768247451E+01  0.51131881592E+02  0.41800000000E+01 0.  1.
        -11    1    1    2    0    0 -0.41979167302E+02 -0.12602738328E+02 -0.41332695072E+02  0.60245092602E+02  0.00000000000E+00 0.  1.
         11    1    1    2    0    0  0.39519120497E+02  0.19049105358E+02 -0.37198892489E+02  0.57518578756E+02  0.00000000000E+00 0. -1.
</event>
<event>
 7    1  0.6473813E-006  0.1166069E+03  0.7561462E-02  0.1248802E+00
          2   -1    0    0  501    0  0.00000000000E+00  0.00000000000E+00  0.37692406549E+03  0.37692406549E+03  0.00000000000E+00 0. -1.
         -2   -1    0    0    0  501 -0.00000000000E+00 -0.00000000000E+00 -0.54645510333E+02  0.54645510333E+02  0.00000000000E+00 0.  1.
         23    2    1    2    0    0 -0.44411015125E+02  0.68159283357E+02  0.11803937340E+03  0.19025946832E+03  0.12508934983E+03 0.  0.
          5    1    3    3  502    0  0.30723755640E+02  0.70893850852E+01  0.80100488418E+02  0.86184506649E+02  0.41800000000E+01 0.  1.
         -5    1    3    3    0  502 -0.75134770765E+02  0.61069898272E+02  0.37938884985E+02  0.10407496167E+03  0.41800000000E+01 0.  1.
        -11    1    1    2    0    0  0.10826855926E+01 -0.60480053697E+02  0.18243272617E+03  0.19219965838E+03  0.00000000000E+00 0. -1.
         11    1    1    2    0    0  0.43328329532E+02 -0.76792296603E+01  0.21806455587E+02  0.49110449128E+02  0.00000000000E+00 0.  1.
</event>
<event>
 7    1  0.6473813E-006  0.2214730E+03  0.7561462E-02  0.1132790E+00
         -2   -1    0    0    0  501 -0.00000000000E+00  0.00000000000E+00  0.13796996286E+03  0.13796996286E+03  0.00000000000E+00 0. -1.
          2   -1    0    0  501    0  0.00000000000E+00 -0.00000000000E+00 -0.39228153047E+03  0.39228153047E+03  0.00000000000E+00 0.  1.
         23    2    1    2    0    0  0.89796601063E+02  0.17634012114E+03 -0.68912609670E+02  0.24404006306E+03  0.12508931498E+03 0.  0.
          5    1    3    3  502    0  0.70838245698E+01 -0.16822007956E+02  0.78340995073E+01  0.20297931848E+02  0.41800000000E+01 0.  1.
         -5    1    3    3    0  502  0.82712776493E+02  0.19316212910E+03 -0.76746709178E+02  0.22374213122E+03  0.41800000000E+01 0.  1.
        -11    1    1    2    0    0 -0.16309218145E+02 -0.12090908686E+03 -0.78196995850E+02  0.14491296712E+03  0.00000000000E+00 0. -1.
         11    1    1    2    0    0 -0.73487382918E+02 -0.55431034284E+02 -0.10720196209E+03  0.14129846314E+03  0.00000000000E+00 0.  1.
</event>
<event>
 7    1  0.6473813E-006  0.1150544E+03  0.7561462E-02  0.1251486E+00
          2   -1    0    0  501    0  0.00000000000E+00  0.00000000000E+00  0.85206358150E+02  0.85206358150E+02  0.00000000000E+00 0. -1.
         -2   -1    0    0    0  501 -0.00000000000E+00 -0.00000000000E+00 -0.23096328921E+03  0.23096328921E+03  0.00000000000E+00 0.  1.
         23    2    1    2    0    0 -0.43625954874E+02 -0.13649270820E+02 -0.16348718855E+03  0.21086759032E+03  0.12509018064E+03 0.  0.
          5    1    3    3  502    0 -0.63035792240E+02 -0.53877057375E+02 -0.13242927562E+03  0.15630493868E+03  0.41800000000E+01 0. -1.
         -5    1    3    3    0  502  0.19409837366E+02  0.40227786556E+02 -0.31057912933E+02  0.54562651636E+02  0.41800000000E+01 0. -1.
        -11    1    1    2    0    0  0.22709755214E+02 -0.39243787809E+02  0.16987158144E+02  0.48418709249E+02  0.00000000000E+00 0. -1.
         11    1    1    2    0    0  0.20916199660E+02  0.52893058629E+02  0.74309935235E+00  0.56883347791E+02  0.00000000000E+00 0.  1.
</event>
<event>
 7    1  0.6473813E-006  0.1612713E+03  0.7561462E-02  0.1187269E+00
         -1   -1    0    0    0  501 -0.00000000000E+00  0.00000000000E+00  0.44737297222E+02  0.44737297222E+02  0.00000000000E+00 0.  1.
          1   -1    0    0  501    0  0.00000000000E+00 -0.00000000000E+00 -0.75017405291E+03  0.75017405291E+03  0.00000000000E+00 0. -1.
         23    2    1    2    0    0  0.13839829882E+03 -0.16878761744E+02 -0.27075653950E+03  0.32923480371E+03  0.12508985003E+03 0.  0.
          5    1    3    3  502    0  0.43969086039E+02 -0.53456910230E+02 -0.47505366874E+02  0.84054470793E+02  0.41800000000E+01 0.  1.
         -5    1    3    3    0  502  0.94429212784E+02  0.36578148486E+02 -0.22325117262E+03  0.24518033292E+03  0.41800000000E+01 0.  1.
        -11    1    1    2    0    0 -0.73351396267E+02  0.39084785206E+02 -0.33105291306E+03  0.34132693860E+03  0.00000000000E+00 0. -1.
         11    1    1    2    0    0 -0.65046902557E+02 -0.22206023462E+02 -0.10362730313E+03  0.12434960782E+03  0.00000000000E+00 0.  1.
</event>
<event>
 7    1  0.6473813E-006  0.3418309E+03  0.7561462E-02  0.1066019E+00
          2   -1    0    0  501    0  0.00000000000E+00  0.00000000000E+00  0.49071566342E+03  0.49071566342E+03  0.00000000000E+00 0. -1.
         -2   -1    0    0    0  501 -0.00000000000E+00 -0.00000000000E+00 -0.25426761258E+03  0.25426761258E+03  0.00000000000E+00 0.  1.
         23    2    1    2    0    0  0.26799411401E+03  0.19503937529E+03  0.17772547992E+03  0.39635565891E+03  0.12510099551E+03 0.  0.
          5    1    3    3  502    0  0.19432024284E+03  0.19000465145E+03  0.10149292751E+03  0.29013860668E+03  0.41800000000E+01 0. -1.
         -5    1    3    3    0  502  0.73673871172E+02  0.50347238436E+01  0.76232552415E+02  0.10621705223E+03  0.41800000000E+01 0. -1.
        -11    1    1    2    0    0 -0.10286448067E+03 -0.36990663776E+02 -0.10455433548E+02  0.10981223374E+03  0.00000000000E+00 0.  1.
         11    1    1    2    0    0 -0.16512963335E+03 -0.15804871152E+03  0.69178004458E+02  0.23881538335E+03  0.00000000000E+00 0. -1.
</event>
<event>
 7    1  0.6473813E-006  0.1017761E+03  0.7561462E-02  0.1276605E+00
         -2   -1    0    0    0  501 -0.00000000000E+00  0.00000000000E+00  0.12304571402E+03  0.12304571402E+03  0.00000000000E+00 0.  1.
          2   -1    0    0  501    0  0.00000000000E+00 -0.00000000000E+00 -0.12690507003E+03  0.12690507003E+03  0.00000000000E+00 0. -1.
         23    2    1    2    0    0 -0.36810827502E+02 -0.45593618685E+02  0.22717047744E+02  0.13999010681E+03  0.12508937069E+03 0.  0.
          5    1    3    3  502    0 -0.79565011866E+02 -0.18558244111E+02  0.32980795628E+02  0.88205469320E+02  0.41800000000E+01 0. -1.
         -5    1    3    3    0  502  0.42754184364E+02 -0.27035374573E+02 -0.10263747884E+02  0.51784637486E+02  0.41800000000E+01 0. -1.
        -11    1    1    2    0    0  0.42556002817E+02  0.24455757056E+02 -0.55233474595E+02  0.73890690515E+02  0.00000000000E+00 0. -1.
         11    1    1    2    0    0 -0.57451753148E+01  0.21137861628E+02  0.28657070837E+02  0.36069986728E+02  0.00000000000E+00 0.  1.
</event>
<event>
 7    1  0.6473813E-006  0.1316348E+03  0.7561462E-02  0.1225050E+00
         -3   -1    0    0    0  501 -0.00000000000E+00  0.00000000000E+00  0.91042401301E+03  0.91042401301E+03  0.00000000000E+00 0.  1.
          3   -1    0    0  501    0  0.00000000000E+00 -0.00000000000E+00 -0.26691464455E+02  0.26691464455E+02  0.00000000000E+00 0. -1.
         23    2    1    2    0    0 -0.10417747549E+03 -0.20160852547E+02  0.57837708656E+03  0.60118775998E+03  0.12508901682E+03 0.  0.
          5    1    3    3  502    0 -0.56863446866E+02 -0.59200518594E+02  0.17729340755E+03  0.19541898002E+03  0.41800000000E+01 0. -1.
         -5    1    3    3    0  502 -0.47314028620E+02  0.39039666047E+02  0.40108367900E+03  0.40576877996E+03  0.41800000000E+01 0. -1.
        -11    1    1    2    0    0  0.56708654503E+02  0.38675956182E+02  0.25580651420E+03  0.26485594913E+03  0.00000000000E+00 0.  1.
         11    1    1    2    0    0  0.47468820983E+02 -0.18515103635E+02  0.49548947793E+02  0.71071768344E+02  0.00000000000E+00 0. -1.
</event>
<event>
 7    1  0.6473813E-006  0.1136282E+03  0.7561462E-02  0.1253995E+00
          1   -1    0    0  501    0  0.00000000000E+00  0.00000000000E+00  0.90838697936E+02  0.90838697936E+02  0.00000000000E+00 0. -1.
         -1   -1    0    0    0  501 -0.00000000000E+00 -0.00000000000E+00 -0.17727156373E+03  0.17727156373E+03  0.00000000000E+00 0.  1.
         23    2    1    2    0    0 -0.71644390542E+00 -0.53606735505E+02 -0.81465514363E+02  0.15861528270E+03  0.12509189619E+03 0.  0.
          5    1    3    3  502    0  0.37933335119E+02 -0.66707736524E+02 -0.88262715369E+02  0.11703264224E+03  0.41800000000E+01 0.  1.
         -5    1    3    3    0  502 -0.38649779024E+02  0.13101001019E+02  0.67972010065E+01  0.41582640463E+02  0.41800000000E+01 0.  1.
        -11    1    1    2    0    0 -0.39595410965E+02  0.56468231884E+02 -0.28220445048E+01  0.69024790596E+02  0.00000000000E+00 0.  1.
         11    1    1    2    0    0  0.40311854871E+02 -0.28614963788E+01 -0.21453069254E+01  0.40470188367E+02  0.00000000000E+00 0. -1.
</event>
<event>
 7    1  0.6473813E-006  0.1794214E+03  0.7561462E-02  0.1168364E+00
          2   -1    0    0  501    0  0.00000000000E+00  0.00000000000E+00  0.52928255098E+02  0.52928255098E+02  0.00000000000E+00 0. -1.
         -2   -1    0    0    0  501 -0.00000000000E+00 -0.00000000000E+00 -0.71830646489E+03  0.71830646489E+03  0.00000000000E+00 0.  1.
         23    2    1    2    0    0 -0.11149094704E+02 -0.15893077263E+03 -0.40152745818E+03  0.44972841736E+03  0.12509219365E+03 0.  0.
          5    1    3    3  502    0 -0.47466773740E+02 -0.12600469841E+03 -0.36314940923E+03  0.38733092370E+03  0.41800000000E+01 0. -1.
         -5    1    3    3    0  502  0.36317679036E+02 -0.32926074225E+02 -0.38378048944E+02  0.62397493661E+02  0.41800000000E+01 0. -1.
        -11    1    1    2    0    0  0.41509941531E+02  0.10708150752E+03 -0.21623963800E+03  0.24484506436E+03  0.00000000000E+00 0.  1.
         11    1    1    2    0    0 -0.30360846827E+02  0.51849265112E+02 -0.47611113617E+02  0.76661238267E+02  0.00000000000E+00 0. -1.
</event>
<event>
 7    1  0.6473813E-006  0.1018085E+03  0.7561462E-02  0.1276538E+00
         -3   -1    0    0    0  501 -0.00000000000E+00  0.00000000000E+00  0.56284474433E+03  0.56284474433E+03  0.00000000000E+00 0.  1.
          3   -1    0    0  501    0  0.00000000000E+00 -0.00000000000E+00 -0.26589665148E+02  0.26589665148E+02  0.00000000000E+00 0. -1.
         23    2    1    2    0    0 -0.29860023401E+01 -0.47996861313E+02  0.37055320985E+03  0.39402996610E+03  0.12504926209E+03 0.  0.
          5    1    3    3  502    0 -0.31239848006E+02 -0.67783952579E+02  0.33883810535E+03  0.34698606077E+03  0.41800000000E+01 0. -1.
         -5    1    3    3    0  502  0.28253845666E+02  0.19787091265E+02  0.31715104506E+02  0.47043905338E+02  0.41800000000E+01 0. -1.
        -11    1    1    2    0    0  0.29877392051E+02  0.58147484297E+02  0.71347349230E+02  0.96768965728E+02  0.00000000000E+00 0.  1.
         11    1    1    2    0    0 -0.26891389711E+02 -0.10150622984E+02  0.94354520101E+02  0.98635477649E+02  0.00000000000E+00 0. -1.
</event>
<event>
 7    1  0.6473813E-006  0.1047865E+03  0.7561462E-02  0.1270541E+00
         -2   -1    0    0    0  501 -0.00000000000E+00  0.00000000000E+00  0.47358804316E+03  0.47358804316E+03  0.00000000000E+00 0.  1.
          2   -1    0    0  501    0  0.00000000000E+00 -0.00000000000E+00 -0.46691262710E+02  0.46691262710E+02  0.00000000000E+00 0. -1.
         23    2    1    2    0    0 -0.71407021682E+02 -0.43020482015E+02  0.33054182325E+03  0.36311917018E+03  0.12509160730E+03 0.  0.
          5    1    3    3  502    0 -0.24276258108E+02 -0.24279386635E+02  0.66094291541E+01  0.35213382070E+02  0.41800000000E+01 0. -1.
         -5    1    3    3    0  502 -0.47130763574E+02 -0.18741095380E+02  0.32393239409E+03  0.32790578811E+03  0.41800000000E+01 0. -1.
        -11    1    1    2    0    0  0.38853311107E+02 -0.26702933223E+02  0.34171997657E+02  0.58226727975E+02  0.00000000000E+00 0.  1.
         11    1    1    2    0    0  0.32553710575E+02  0.69723415238E+02  0.62182959543E+02  0.98933407715E+02  0.00000000000E+00 0. -1.
</event>
<event>
 6    1  0.6473813E-006  0.2232256E+03  0.7561462E-02  0.1131501E+00
         -2   -1    0    0    0  501 -0.00000000000E+00  0.00000000000E+00  0.48120417466E+02  0.48120417466E+02  0.00000000000E+00 0.  1.
          2   -1    0    0  501    0  0.00000000000E+00 -0.00000000000E+00 -0.10892696833E+04  0.10892696833E+04  0.00000000000E+00 0. -1.
          5    1    1    2  502    0 -0.85597794137E+02  0.18042782351E+03 -0.36952302247E+03  0.42005466119E+03  0.41800000000E+01 0. -1.
         -5    1    1    2    0  502  0.39391457500E+02  0.29034842639E+01 -0.66201262311E+02  0.77202310046E+02  0.41800000000E+01 0.  1.
        -11    1    1    2    0    0  0.70500068607E+02 -0.12031406358E+03 -0.37848885249E+03  0.40336031662E+03  0.00000000000E+00 0.  1.
         11    1    1    2    0    0 -0.24293731970E+02 -0.63017244192E+02 -0.22693612854E+03  0.23677281288E+03  0.00000000000E+00 0. -1.
</event>
<event>
 7    1  0.6473813E-006  0.9736737E+02  0.7561462E-02  0.1285931E+00
          3   -1    0    0  501    0  0.00000000000E+00  0.00000000000E+00  0.17816388511E+03  0.17816388511E+03  0.00000000000E+00 0. -1.
         -3   -1    0    0    0  501 -0.00000000000E+00 -0.00000000000E+00 -0.80515940435E+02  0.80515940435E+02  0.00000000000E+00 0.  1.
         23    2    1    2    0    0  0.85414714305E+01  0.10612436106E+00 -0.59635919969E+00  0.12537960247E+03  0.12508685412E+03 0.  0.
          5    1    3    3  502    0  0.56026590379E+02  0.33559402575E+02  0.99562192755E+01  0.66195249323E+02  0.41800000000E+01 0.  1.
         -5    1    3    3    0  502 -0.47485118948E+02 -0.33453278214E+02 -0.10552578475E+02  0.59184353145E+02  0.41800000000E+01 0.  1.
        -11    1    1    2    0    0 -0.39779045323E+02  0.11212666371E+01  0.11999817480E+02  0.41564712260E+02  0.00000000000E+00 0.  1.
         11    1    1    2    0    0  0.31237573893E+02 -0.12273909982E+01  0.86244486393E+02  0.91735510816E+02  0.00000000000E+00 0. -1.
</event>
<event>
 7    1  0.6473813E-006  0.1080079E+03  0.7561462E-02  0.1264304E+00
         -1   -1    0    0    0  501 -0.00000000000E+00  0.00000000000E+00  0.28332170578E+03  0.28332170578E+03  0.00000000000E+00 0.  1.
          1   -1    0    0  501    0  0.00000000000E+00 -0.00000000000E+00 -0.54294305221E+02  0.54294305221E+02  0.00000000000E+00 0. -1.
         23    2    1    2    0    0 -0.52574415740E+02 -0.31245932113E+02  0.14579139456E+03  0.20161993799E+03  0.12512030692E+03 0.  0.
          5    1    3    3  502    0 -0.23016553807E+02 -0.74002594422E+02  0.12130901902E+03  0.14401213916E+03  0.41800000000E+01 0.  1.
         -5    1    3    3    0  502 -0.29557861934E+02  0.42756662310E+02  0.24482375547E+02  0.57607798833E+02  0.41800000000E+01 0.  1.
        -11    1    1    2    0    0  0.42441732520E+02 -0.10150532413E+02  0.82546910790E+02  0.93371978926E+02  0.00000000000E+00 0.  1.
         11    1    1    2    0    0  0.10132683220E+02  0.41396464526E+02  0.68909520930E+00  0.42624094086E+02  0.00000000000E+00 0. -1.
</event>
<event>
 7    1  0.8691841E-006  0.1544063E+03  0.7561462E-02  0.1195161E+00
         -2   -1    0    0    0  501 -0.00000000000E+00  0.00000000000E+00  0.17416669000E+02  0.17416669000E+02  0.00000000000E+00 0. -1.
          2   -1    0    0  501    0  0.00000000000E+00 -0.00000000000E+00 -0.14771727564E+04  0.14771727564E+04  0.00000000000E+00 0.  1.
         23    2    1    2    0    0 -0.61810075647E+02  0.10098273068E+03 -0.74716440613E+03  0.76675957546E+03  0.12509036501E+03 0.  0.
          5    1    3    3  502    0 -0.95506695364E+02  0.86210889666E+02 -0.47683102444E+03  0.49390195851E+03  0.41800000000E+01 0.  1.
         -5    1    3    3    0  502  0.33696619716E+02  0.14771841019E+02 -0.27033338169E+03  0.27285761695E+03  0.41800000000E+01 0.  1.
        -11    1    1    2    0    0  0.74118019516E+02 -0.47177465186E+02 -0.52447186690E+03  0.53177996691E+03  0.00000000000E+00 0.  1.
         11    1    1    2    0    0 -0.12307943869E+02 -0.53805265499E+02 -0.18811981435E+03  0.19604988301E+03  0.00000000000E+00 0. -1.
</event>
<event>
 7    1  0.6473813E-006  0.2086566E+03  0.7561462E-02  0.1142634E+00
         -2   -1    0    0    0  501 -0.00000000000E+00  0.00000000000E+00  0.50699146243E+02  0.50699146243E+02  0.00000000000E+00 0.  1.
          2   -1    0    0  501    0  0.00000000000E+00 -0.00000000000E+00 -0.97045523803E+03  0.97045523803E+03  0.00000000000E+00 0. -1.
         23    2    1    2    0    0  0.57848612309E+01 -0.18105525161E+03 -0.32247695450E+03  0.39045223527E+03  0.12508834114E+03 0.  0.
          5    1    3    3  502    0 -0.45643000487E+02 -0.15268195457E+03 -0.21182847706E+03  0.26511099344E+03  0.41800000000E+01 0.  1.
         -5    1    3    3    0  502  0.51427861718E+02 -0.28373297037E+02 -0.11064847744E+03  0.12534124184E+03  0.41800000000E+01 0.  1.
        -11    1    1    2    0    0 -0.43392675098E+02  0.11630958347E+03 -0.31277449118E+03  0.33650962214E+03  0.00000000000E+00 0.  1.
         11    1    1    2    0    0  0.37607813867E+02  0.64745668140E+02 -0.28450464611E+03  0.29419252687E+03  0.00000000000E+00 0. -1.
</event>
<event>
 7    1  0.6473813E-006  0.1232702E+03  0.7561462E-02  0.1237798E+00
         -2   -1    0    0    0  501 -0.00000000000E+00  0.00000000000E+00  0.50358839845E+03  0.50358839845E+03  0.00000000000E+00 0.  1.
          2   -1    0    0  501    0  0.00000000000E+00 -0.00000000000E+00 -0.80254761542E+02  0.80254761542E+02  0.00000000000E+00 0. -1.
         23    2    1    2    0    0 -0.33578921166E+02  0.63294528721E+02  0.44271360107E+03  0.46559263031E+03  0.12508966191E+03 0.  0.
          5    1    3    3  502    0 -0.73728419926E+02  0.38960715251E+02  0.36722762703E+03  0.37659981372E+03  0.41800000000E+01 0.  1.
         -5    1    3    3    0  502  0.40149498761E+02  0.24333813470E+02  0.75485974038E+02  0.88992816593E+02  0.41800000000E+01 0.  1.
        -11    1    1    2    0    0 -0.24065901176E+02 -0.51821559355E+02 -0.16199413409E+02  0.59389078189E+02  0.00000000000E+00 0.  1.
         11    1    1    2    0    0  0.57644822341E+02 -0.11472969366E+02 -0.31805507501E+01  0.58861451493E+02  0.00000000000E+00 0. -1.
</event>
<event>
 7    1  0.6473813E-006  0.1157997E+03  0.7561462E-02  0.1250192E+00
         -1   -1    0    0    0  501 -0.00000000000E+00  0.00000000000E+00  0.84771180105E+02  0.84771180105E+02  0.00000000000E+00 0.  1.
          1   -1    0    0  501    0  0.00000000000E+00 -0.00000000000E+00 -0.24593612709E+03  0.24593612709E+03  0.00000000000E+00 0. -1.
         23    2    1    2    0    0 -0.51768115289E+01 -0.82230492835E+02 -0.34846770384E+02  0.15378472641E+03  0.12508713499E+03 0.  0.
          5    1    3    3  502    0  0.58833371378E+02 -0.49979348353E+02 -0.25361012033E+02  0.81363100856E+02  0.41800000000E+01 0.  1.
         -5    1    3    3    0  502 -0.64010182907E+02 -0.32251144482E+02 -0.94857583506E+01  0.72421625553E+02  0.41800000000E+01 0.  1.
        -11    1    1    2    0    0  0.52843924243E+01  0.53282884742E+02 -0.13619012697E+03  0.14633776442E+03  0.00000000000E+00 0. -1.
         11    1    1    2    0    0 -0.10758089543E+00  0.28947608093E+02  0.98719503749E+01  0.30584816366E+02  0.00000000000E+00 0.  1.
</event>
<event>
 7    1  0.6473813E-006  0.1111559E+03  0.7561462E-02  0.1258444E+00
         -2   -1    0    0    0  501 -0.00000000000E+00  0.00000000000E+00  0.50871074138E+02  0.50871074138E+02  0.00000000000E+00 0. -1.
          2   -1    0    0  501    0  0.00000000000E+00 -0.00000000000E+00 -0.33624934788E+03  0.33624934788E+03  0.00000000000E+00 0.  1.
         23    2    1    2    0    0  0.51222463040E+02 -0.23419365893E+01 -0.82740090056E+02  0.15850294241E+03  0.12509210552E+03 0.  0.
          5    1    3    3  502    0  0.61896756377E+02  0.47977451692E+02 -0.28008478793E+02  0.83276596984E+02  0.41800000000E+01 0. -1.
         -5    1    3    3    0  502 -0.10674293338E+02 -0.50319388281E+02 -0.54731611262E+02  0.75226345429E+02  0.41800000000E+01 0. -1.
        -11    1    1    2    0    0 -0.71732386561E+02  0.22522622772E+01 -0.19308562783E+03  0.20599191159E+03  0.00000000000E+00 0.  1.
         11    1    1    2    0    0  0.20509923521E+02  0.89674312084E-01 -0.95525558511E+01  0.22625568007E+02  0.00000000000E+00 0. -1.
</event>
<event>
 7    1  0.6473813E-006  0.9553675E+02  0.7561462E-02  0.1289972E+00
          3   -1    0    0  501    0  0.00000000000E+00  0.00000000000E+00  0.40558869013E+03  0.40558869013E+03  0.00000000000E+00 0. -1.
         -3   -1    0    0    0  501 -0.00000000000E+00 -0.00000000000E+00 -0.35851696446E+02  0.35851696446E+02  0.00000000000E+00 0.  1.
         23    2    1    2    0    0  0.20628551209E+02  0.34355797778E+02  0.15118152606E+03  0.20027402625E+03  0.12509186146E+03 0.  0.
          5    1    3    3  502    0 -0.49563469252E+02 -0.28296312463E+01  0.41828083910E+02  0.65050790163E+02  0.41800000000E+01 0. -1.
         -5    1    3    3    0  502  0.70192020461E+02  0.37185429024E+02  0.10935344215E+03  0.13522323609E+03  0.41800000000E+01 0. -1.
        -11    1    1    2    0    0 -0.20608750505E+01  0.11790137894E+02 -0.43830164392E+01  0.12746191221E+02  0.00000000000E+00 0.  1.
         11    1    1    2    0    0 -0.18567676158E+02 -0.46145935672E+02  0.22293848406E+03  0.22842016910E+03  0.00000000000E+00 0. -1.
</event>
<event>
 7    1  0.6473813E-006  0.1494086E+03  0.7561462E-02  0.1201202E+00
         -2   -1    0    0    0  501 -0.00000000000E+00  0.00000000000E+00  0.14468157052E+03  0.14468157052E+03  0.00000000000E+00 0.  1.
          2   -1    0    0  501    0  0.00000000000E+00 -0.00000000000E+00 -0.21095770270E+03  0.21095770270E+03  0.00000000000E+00 0. -1.
         23    2    1    2    0    0  0.17514246797E+02  0.12889317348E+03 -0.17292985253E+02  0.18115339272E+03  0.12488917225E+03 0.  0.
          5    1    3    3  502    0  0.19730281894E+02  0.90601409004E+02  0.48617135053E+02  0.10478071176E+03  0.41800000000E+01 0. -1.
         -5    1    3    3    0  502 -0.22160350975E+01  0.38291764475E+02 -0.65910120306E+02  0.76372680959E+02  0.41800000000E+01 0. -1.
        -11    1    1    2    0    0 -0.48575332878E+02 -0.12736823838E+03 -0.38148067439E+02  0.14155389843E+03  0.00000000000E+00 0.  1.
         11    1    1    2    0    0  0.31061086081E+02 -0.15249351003E+01 -0.10835079485E+02  0.32931982070E+02  0.00000000000E+00 0. -1.
</event>
<event>
 7    1  0.6473813E-006  0.1248794E+03  0.7561462E-02  0.1235258E+00
         -4   -1    0    0    0  501 -0.00000000000E+00  0.00000000000E+00  0.14142736804E+03  0.14142736804E+03  0.00000000000E+00 0.  1.
          4   -1    0    0  501    0  0.00000000000E+00 -0.00000000000E+00 -0.13170280987E+03  0.13170280987E+03  0.00000000000E+00 0. -1.
         23    2    1    2    0    0  0.60261446654E+02  0.28969834034E+02  0.54187719954E+02  0.15183853964E+03  0.12509172590E+03 0.  0.
          5    1    3    3  502    0 -0.24007709369E+02  0.44957249635E+02  0.16412741885E+01  0.51163371516E+02  0.41800000000E+01 0.  1.
         -5    1    3    3    0  502  0.84269156023E+02 -0.15987415601E+02  0.52546445765E+02  0.10067516812E+03  0.41800000000E+01 0.  1.
        -11    1    1    2    0    0  0.95148520312E+01 -0.40870746009E+02 -0.14085131886E+02  0.44264446554E+02  0.00000000000E+00 0.  1.
         11    1    1    2    0    0 -0.69776298685E+02  0.11900911975E+02 -0.30378029900E+02  0.77027191722E+02  0.00000000000E+00 0. -1.
</event>
<event>
 7    1  0.6473813E-006  0.2803060E+03  0.7561462E-02  0.1095522E+00
         -2   -1    0    0    0  501 -0.00000000000E+00  0.00000000000E+00  0.31527847537E+02  0.31527847537E+02  0.00000000000E+00 0.  1.
          2   -1    0    0  501    0  0.00000000000E+00 -0.00000000000E+00 -0.26374995053E+04  0.26374995053E+04  0.00000000000E+00 0. -1.
         23    2    1    2    0    0  0.90111799165E+02  0.24874089818E+03 -0.11724302889E+04  0.12083963628E+04  0.12504725734E+03 0.  0.
          5    1    3    3  502    0 -0.22911214168E+02  0.36844379327E+02 -0.31346242502E+03  0.31647842947E+03  0.41800000000E+01 0.  1.
         -5    1    3    3    0  502  0.11302301333E+03  0.21189651885E+03 -0.85896786390E+03  0.89191793337E+03  0.41800000000E+01 0.  1.
        -11    1    1    2    0    0 -0.12766747554E+02 -0.15400622538E+03 -0.90722127686E+03  0.92028873322E+03  0.00000000000E+00 0. -1.
         11    1    1    2    0    0 -0.77345051611E+02 -0.94734672795E+02 -0.52632009200E+03  0.54034225680E+03  0.00000000000E+00 0.  1.
</event>
<event>
 7    1  0.6473813E-006  0.9601817E+02  0.7561462E-02  0.1288899E+00
         -2   -1    0    0    0  501 -0.00000000000E+00  0.00000000000E+00  0.28736814932E+02  0.28736814932E+02  0.00000000000E+00 0.  1.
          2   -1    0    0  501    0  0.00000000000E+00 -0.00000000000E+00 -0.52279619234E+03  0.52279619234E+03  0.00000000000E+00 0. -1.
         23    2    1    2    0    0  0.49159265976E+02  0.23461681520E+02 -0.28749191339E+03  0.31822519771E+03  0.12509433343E+03 0.  0.
          5    1    3    3  502    0  0.51798370743E+02 -0.27064910376E+02 -0.24533895348E+03  0.25223848849E+03  0.41800000000E+01 0. -1.
         -5    1    3    3    0  502 -0.26391047668E+01  0.50526591897E+02 -0.42152959920E+02  0.65986709212E+02  0.41800000000E+01 0. -1.
        -11    1    1    2    0    0 -0.33667077694E+02  0.18168705523E+02 -0.23432076930E+02  0.44862414225E+02  0.00000000000E+00 0.  1.
         11    1    1    2    0    0 -0.15492188282E+02 -0.41630387043E+02 -0.18313538709E+03  0.18844539534E+03  0.00000000000E+00 0. -1.
</event>
<event>
 7    1  0.6473813E-006  0.1607176E+03  0.7561462E-02  0.1187889E+00
         -1   -1    0    0    0  501 -0.00000000000E+00  0.00000000000E+00  0.40306621492E+02  0.40306621492E+02  0.00000000000E+00 0.  1.
          1   -1    0    0  501    0  0.00000000000E+00 -0.00000000000E+00 -0.10977468411E+04  0.10977468411E+04  0.00000000000E+00 0. -1.
         23    2    1    2    0    0 -0.64961832927E+02 -0.98176288822E+02 -0.18353112805E+03  0.25137165148E+03  0.12508160849E+03 0.  0.
          5    1    3    3  502    0 -0.96667038349E+02 -0.10050864090E+03 -0.14450094316E+03  0.20085939902E+03  0.41800000000E+01 0.  1.
         -5    1    3    3    0  502  0.31705205422E+02  0.23323520782E+01 -0.39030184889E+02  0.50512252469E+02  0.41800000000E+01 0.  1.
        -11    1    1    2    0    0  0.68718918650E+02  0.19971332462E+02 -0.40108694404E+03  0.40742101146E+03  0.00000000000E+00 0. -1.
         11    1    1    2    0    0 -0.37570857228E+01  0.78204956360E+02 -0.47282214749E+03  0.47926079962E+03  0.00000000000E+00 0.  1.
</event>
<event>
 7    1  0.6473813E-006  0.1094261E+03  0.7561462E-02  0.1261636E+00
          1   -1    0    0  501    0  0.00000000000E+00  0.00000000000E+00  0.42975384985E+03  0.42975384985E+03  0.00000000000E+00 0. -1.
         -1   -1    0    0    0  501 -0.00000000000E+00 -0.00000000000E+00 -0.29869612092E+02  0.29869612092E+02  0.00000000000E+00 0.  1.
         23    2    1    2    0    0 -0.17970977695E+02 -0.29908733360E+02  0.22897756089E+03  0.26324186854E+03  0.12509224433E+03 0.  0.
          5    1    3    3  502    0 -0.67721729909E+02 -0.73322738796E+01  0.16761597415E+03  0.18097674473E+03  0.41800000000E+01 0. -1.
         -5    1    3    3    0  502  0.49750752215E+02 -0.22576459480E+02  0.61361586746E+02  0.82265123816E+02  0.41800000000E+01 0. -1.
        -11    1    1    2    0    0 -0.29319824425E+02  0.37831827336E+02  0.71893246202E+02  0.86368617642E+02  0.00000000000E+00 0. -1.
         11    1    1    2    0    0  0.47290802119E+02 -0.79230939765E+01  0.99013430659E+02  0.11001297575E+03  0.00000000000E+00 0.  1.
</event>
<event>
 7    1  0.6473813E-006  0.2599783E+03  0.7561462E-02  0.1107156E+00
         -1   -1    0    0    0  501 -0.00000000000E+00  0.00000000000E+00  0.67383727174E+03  0.67383727174E+03  0.00000000000E+00 0.  1.
          1   -1    0    0  501    0  0.00000000000E+00 -0.00000000000E+00 -0.20760803959E+03  0.20760803959E+03  0.00000000000E+00 0. -1.
         23    2    1    2    0    0 -0.11000099915E+03  0.23365682110E+03  0.52757788431E+03  0.60056702524E+03  0.12508636191E+03 0.  0.
          5    1    3    3  502    0 -0.10049404481E+03  0.17325972264E+03  0.48824100469E+03  0.52774495317E+03  0.41800000000E+01 0. -1.
         -5    1    3    3    0  502 -0.95069543405E+01  0.60397098461E+02  0.39336879619E+02  0.72822072077E+02  0.41800000000E+01 0. -1.
        -11    1    1    2    0    0  0.98738252329E+02 -0.20484626596E+03 -0.84126155493E+02  0.24246328627E+03  0.00000000000E+00 0.  1.
         11    1    1    2    0    0  0.11262746819E+02 -0.28810555144E+02  0.22777503328E+02  0.38414999824E+02  0.00000000000E+00 0. -1.
</event>
<event>
 7    1  0.6473813E-006  0.7272888E+02  0.7561462E-02  0.1351052E+00
         -1   -1    0    0    0  501 -0.00000000000E+00  0.00000000000E+00  0.33505463445E+02  0.33505463445E+02  0.00000000000E+00 0.  1.
          1   -1    0    0  501    0  0.00000000000E+00 -0.00000000000E+00 -0.47698401941E+03  0.47698401941E+03  0.00000000000E+00 0. -1.
         23    2    1    2    0    0 -0.40040301307E+02 -0.25621584427E+02 -0.15699955584E+03  0.20629385804E+03  0.12509438044E+03 0.  0.
          5    1    3    3  502    0 -0.14526038974E+02 -0.52884126200E+01  0.20363907464E+02  0.25906258771E+02  0.41800000000E+01 0.  1.
         -5    1    3    3    0  502 -0.25514262333E+02 -0.20333171807E+02 -0.17736346330E+03  0.18038759927E+03  0.41800000000E+01 0.  1.
        -11    1    1    2    0    0  0.24585209263E+02  0.56723126830E+02 -0.22750541892E+03  0.23575551164E+03  0.00000000000E+00 0.  1.
         11    1    1    2    0    0  0.15455092044E+02 -0.31101542403E+02 -0.58973581208E+02  0.68440113168E+02  0.00000000000E+00 0. -1.
</event>
<event>
 7    1  0.6473813E-006  0.1739730E+03  0.7561462E-02  0.1173767E+00
         -1   -1    0    0    0  501 -0.00000000000E+00  0.00000000000E+00  0.49980369204E+02  0.49980369204E+02  0.00000000000E+00 0.  1.
          1   -1    0    0  501    0  0.00000000000E+00 -0.00000000000E+00 -0.66190129460E+03  0.66190129460E+03  0.00000000000E+00 0. -1.
         23    2    1    2    0    0 -0.83098745300E+02  0.11873460256E+03 -0.35548058799E+03  0.40375397980E+03  0.12509004936E+03 0.  0.
          5    1    3    3  502    0 -0.41274357588E+02  0.13384056717E+03 -0.21753992600E+03  0.25876236554E+03  0.41800000000E+01 0.  1.
         -5    1    3    3    0  502 -0.41824387712E+02 -0.15105964615E+02 -0.13794066199E+03  0.14499161426E+03  0.41800000000E+01 0.  1.
        -11    1    1    2    0    0  0.78192573547E+02 -0.46947054197E+02 -0.96675801323E+02  0.13290716691E+03  0.00000000000E+00 0.  1.
         11    1    1    2    0    0  0.49061717525E+01 -0.71787548362E+02 -0.15976453608E+03  0.17522051709E+03  0.00000000000E+00 0. -1.
</event>
<event>
 7    1  0.6473813E-006  0.1088653E+03  0.7561462E-02  0.1262686E+00
         -1   -1    0    0    0  501 -0.00000000000E+00  0.00000000000E+00  0.69708970779E+02  0.69708970779E+02  0.00000000000E+00 0.  1.
          1   -1    0    0  501    0  0.00000000000E+00 -0.00000000000E+00 -0.19245721644E+03  0.19245721644E+03  0.00000000000E+00 0. -1.
         23    2    1    2    0    0  0.24914566846E+02  0.42821611605E+02 -0.69254598590E+02  0.14400450430E+03  0.11613213066E+03 0.  0.
          5    1    3    3  502    0  0.54959377330E+02  0.65472694931E+02 -0.33425502041E+02  0.91880049656E+02  0.41800000000E+01 0. -1.
         -5    1    3    3    0  502 -0.30044810483E+02 -0.22651083326E+02 -0.35829096549E+02  0.52124454648E+02  0.41800000000E+01 0.  1.
        -11    1    1    2    0    0  0.19711310322E+02  0.12401277987E+02 -0.39412578534E+02  0.45778584481E+02  0.00000000000E+00 0. -1.
         11    1    1    2    0    0 -0.44625877169E+02 -0.55222889592E+02 -0.14081068537E+02  0.72383098435E+02  0.00000000000E+00 0.  1.
</event>
<event>
 7    1  0.6473813E-006  0.1896850E+03  0.7561462E-02  0.1158746E+00
          1   -1    0    0  501    0  0.00000000000E+00  0.00000000000E+00  0.61177908780E+03  0.61177908780E+03  0.00000000000E+00 0. -1.
         -1   -1    0    0    0  501 -0.00000000000E+00 -0.00000000000E+00 -0.72488046399E+02  0.72488046399E+02  0.00000000000E+00 0.  1.
         23    2    1    2    0    0 -0.22652477854E+02 -0.16533719130E+03  0.16947981361E+03  0.26873443143E+03  0.12508103707E+03 0.  0.
          5    1    3    3  502    0  0.44810514702E+02 -0.57204729961E+02  0.99482177510E+02  0.12326613241E+03  0.41800000000E+01 0.  1.
         -5    1    3    3    0  502 -0.67462992556E+02 -0.10813246134E+03  0.69997636098E+02  0.14546829902E+03  0.41800000000E+01 0.  1.
        -11    1    1    2    0    0  0.33160395975E+02  0.34671516188E+02  0.47183113355E+02  0.67290207919E+02  0.00000000000E+00 0.  1.
         11    1    1    2    0    0 -0.10507918121E+02  0.13066567511E+03  0.32262811444E+03  0.34824249485E+03  0.00000000000E+00 0. -1.
</event>
<event>
 7    1  0.6473813E-006  0.1218563E+03  0.7561462E-02  0.1240066E+00
          1   -1    0    0  501    0  0.00000000000E+00  0.00000000000E+00  0.57394298118E+03  0.57394298118E+03  0.00000000000E+00 0. -1.
         -1   -1    0    0    0  501 -0.00000000000E+00 -0.00000000000E+00 -0.89406976466E+02  0.89406976466E+02  0.00000000000E+00 0.  1.
         23    2    1    2    0    0 -0.68667949238E+02 -0.52703353398E+02 -0.80754539464E+01  0.15233109049E+03  0.12508643996E+03 0.  0.
          5    1    3    3  502    0 -0.41720000796E+02  0.20194693350E+02  0.39558643576E+02  0.61079806708E+02  0.41800000000E+01 0.  1.
         -5    1    3    3    0  502 -0.26947948442E+02 -0.72898046748E+02 -0.47634097522E+02  0.91251283781E+02  0.41800000000E+01 0.  1.
        -11    1    1    2    0    0 -0.70222303321E+01  0.42372189726E+02  0.74567923645E+02  0.86052829225E+02  0.00000000000E+00 0.  1.
         11    1    1    2    0    0  0.75690179570E+02  0.10331163672E+02  0.41804353501E+03  0.42496603793E+03  0.00000000000E+00 0. -1.
</event>
<event>
 7    1  0.6473813E-006  0.1239383E+03  0.7561462E-02  0.1236738E+00
          2   -1    0    0  501    0  0.00000000000E+00  0.00000000000E+00  0.56268438137E+03  0.56268438137E+03  0.00000000000E+00 0. -1.
         -2   -1    0    0    0  501 -0.00000000000E+00 -0.00000000000E+00 -0.40560170180E+02  0.40560170180E+02  0.00000000000E+00 0.  1.
         23    2    1    2    0    0 -0.64364118214E+02 -0.13294860359E+02  0.11853995636E+03  0.18440701925E+03  0.12503893182E+03 0.  0.
          5    1    3    3  502    0 -0.96383386745E+02 -0.31042671852E+02  0.68743245310E+02  0.12246024209E+03  0.41800000000E+01 0. -1.
         -5    1    3    3    0  502  0.32019268531E+02  0.17747811493E+02  0.49796711046E+02  0.61946777164E+02  0.41800000000E+01 0. -1.
        -11    1    1    2    0    0  0.50671406945E+02  0.49585546358E+02  0.21783474689E+03  0.22908141532E+03  0.00000000000E+00 0.  1.
         11    1    1    2    0    0  0.13692711269E+02 -0.36290685999E+02  0.18574950794E+03  0.18975611699E+03  0.00000000000E+00 0. -1.
</event>
<event>
 7    1  0.6473813E-006  0.9665245E+02  0.7561462E-02  0.1287497E+00
          2   -1    0    0  501    0  0.00000000000E+00  0.00000000000E+00  0.58675522284E+03  0.58675522284E+03  0.00000000000E+00 0. -1.
         -2   -1    0    0    0  501 -0.00000000000E+00 -0.00000000000E+00 -0.29283870442E+02  0.29283870442E+02  0.00000000000E+00 0.  1.
         23    2    1    2    0    0 -0.52827703463E+02 -0.40486439769E+02  0.23984029991E+03  0.27856978203E+03  0.12509131041E+03 0.  0.
          5    1    3    3  502    0 -0.15021568594E+02 -0.40974480818E+02  0.91773124709E+01  0.44791194063E+02  0.41800000000E+01 0.  1.
         -5    1    3    3    0  502 -0.37806134868E+02  0.48804104912E+00  0.23066298744E+03  0.23377858797E+03  0.41800000000E+01 0.  1.
        -11    1    1    2    0    0 -0.13422640095E+02  0.43080572242E+02  0.16502487227E+03  0.17108276196E+03  0.00000000000E+00 0. -1.
         11    1    1    2    0    0  0.66250343557E+02 -0.25941324727E+01  0.15260618021E+03  0.16638654929E+03  0.00000000000E+00 0.  1.
</event>
<event>
 7    1  0.6473813E-006  0.8620181E+02  0.7561462E-02  0.1312319E+00
         -2   -1    0    0    0  501 -0.00000000000E+00  0.00000000000E+00  0.99312650048E+02  0.99312650048E+02  0.00000000000E+00 0.  1.
          2   -1    0    0  501    0  0.00000000000E+00 -0.00000000000E+00 -0.14820171132E+03  0.14820171132E+03  0.00000000000E+00 0. -1.
         23    2    1    2    0    0  0.52460607172E+02  0.19138965623E+02 -0.94298681341E+01  0.13732055808E+03  0.12509835310E+03 0.  0.
          5    1    3    3  502    0  0.81186341129E+02  0.22579464226E+02 -0.41416877182E+02  0.93988745635E+02  0.41800000000E+01 0. -1.
         -5    1    3    3    0  502 -0.28725733957E+02 -0.34404986034E+01  0.31987009048E+02  0.43331812446E+02  0.41800000000E+01 0. -1.
        -11    1    1    2    0    0 -0.14000490247E+02  0.31477156266E+01 -0.59664739268E+02  0.61366138487E+02  0.00000000000E+00 0. -1.
         11    1    1    2    0    0 -0.38460116924E+02 -0.22286681250E+02  0.20205546133E+02  0.48827664797E+02  0.00000000000E+00 0.  1.
</event>
<event>
 7    1  0.6473813E-006  0.1208695E+03  0.7561462E-02  0.1241669E+00
         -1   -1    0    0    0  501 -0.00000000000E+00  0.00000000000E+00  0.12986641055E+03  0.12986641055E+03  0.00000000000E+00 0.  1.
          1   -1    0    0  501    0  0.00000000000E+00 -0.00000000000E+00 -0.12630073371E+03  0.12630073371E+03  0.00000000000E+00 0. -1.
         23    2    1    2    0    0  0.55683985111E+02  0.39917310214E+02  0.32115200196E+02  0.14619667502E+03  0.12509190162E+03 0.  0.
          5    1    3    3  502    0 -0.35972036359E+02  0.33784019713E+02  0.24986831109E+01  0.49588942366E+02  0.41800000000E+01 0.  1.
         -5    1    3    3    0  502  0.91656021470E+02  0.61332905010E+01  0.29616517086E+02  0.96607732653E+02  0.41800000000E+01 0.  1.
        -11    1    1    2    0    0 -0.50937736820E+02 -0.60526588973E+02 -0.64326308972E+01  0.79369387961E+02  0.00000000000E+00 0.  1.
         11    1    1    2    0    0 -0.47462482911E+01  0.20609278759E+02 -0.22116892459E+02  0.30601081286E+02  0.00000000000E+00 0. -1.
</event>
<event>
 7    1  0.6473813E-006  0.1359853E+03  0.7561462E-02  0.1218835E+00
          2   -1    0    0  501    0  0.00000000000E+00  0.00000000000E+00  0.50501129634E+03  0.50501129634E+03  0.00000000000E+00 0. -1.
         -2   -1    0    0    0  501 -0.00000000000E+00 -0.00000000000E+00 -0.69365034093E+02  0.69365034093E+02  0.00000000000E+00 0.  1.
         23    2    1    2    0    0  0.99419826062E+02  0.27876730427E+02  0.60319564452E+02  0.17305462877E+03  0.12509212913E+03 0.  0.
          5    1    3    3  502    0  0.77784917857E+02 -0.25689593504E+02 -0.92336127581E+01  0.82541993343E+02  0.41800000000E+01 0.  1.
         -5    1    3    3    0  502  0.21634908204E+02  0.53566323931E+02  0.69553177210E+02  0.90512635430E+02  0.41800000000E+01 0.  1.
        -11    1    1    2    0    0 -0.70531853028E+02  0.22431507838E+02  0.28099743518E+03  0.29058126817E+03  0.00000000000E+00 0. -1.
         11    1    1    2    0    0 -0.28887973034E+02 -0.50308238265E+02  0.94329262616E+02  0.11074043349E+03  0.00000000000E+00 0.  1.
</event>
<event>
 7    1  0.6473813E-006  0.1615083E+03  0.7561462E-02  0.1187004E+00
         -1   -1    0    0    0  501 -0.00000000000E+00  0.00000000000E+00  0.29343954655E+02  0.29343954655E+02  0.00000000000E+00 0.  1.
          1   -1    0    0  501    0  0.00000000000E+00 -0.00000000000E+00 -0.11003843947E+04  0.11003843947E+04  0.00000000000E+00 0. -1.
         23    2    1    2    0    0 -0.12574149625E+03  0.39350220674E+02 -0.39200725536E+03  0.43205984023E+03  0.12508658419E+03 0.  0.
          5    1    3    3  502    0 -0.14170348495E+03  0.24481833803E+02 -0.38102985995E+03  0.40728425504E+03  0.41800000000E+01 0. -1.
         -5    1    3    3    0  502  0.15961988705E+02  0.14868386870E+02 -0.10977395408E+02  0.24775585190E+02  0.41800000000E+01 0. -1.
        -11    1    1    2    0    0  0.42969791840E+02 -0.57914227232E+02 -0.24362415129E+03  0.25407319382E+03  0.00000000000E+00 0.  1.
         11    1    1    2    0    0  0.82771704407E+02  0.18564006559E+02 -0.43540903337E+03  0.44359531527E+03  0.00000000000E+00 0. -1.
</event>
<event>
 7    1  0.6473813E-006  0.8990862E+02  0.7561462E-02  0.1303073E+00
         -1   -1    0    0    0  501 -0.00000000000E+00  0.00000000000E+00  0.95109362103E+02  0.95109362103E+02  0.00000000000E+00 0.  1.
          1   -1    0    0  501    0  0.00000000000E+00 -0.00000000000E+00 -0.25811795154E+03  0.25811795154E+03  0.00000000000E+00 0. -1.
         23    2    1    2    0    0 -0.30938214667E+02  0.40121699147E+02  0.25537850534E+02  0.13735333553E+03  0.12508730192E+03 0.  0.
          5    1    3    3  502    0  0.15520549584E+02 -0.21386524135E+02  0.49718300191E+02  0.56459300809E+02  0.41800000000E+01 0. -1.
         -5    1    3    3    0  502 -0.46458764251E+02  0.61508223282E+02 -0.24180449657E+02  0.80894034717E+02  0.41800000000E+01 0. -1.
        -11    1    1    2    0    0  0.44118336738E+02 -0.13458620184E+02 -0.31071288859E+02  0.55614630135E+02  0.00000000000E+00 0.  1.
         11    1    1    2    0    0 -0.13180122070E+02 -0.26663078963E+02 -0.15747515111E+03  0.16025934798E+03  0.00000000000E+00 0. -1.
</event>
<event>
 6    1  0.6473813E-006  0.1422279E+03  0.7561462E-02  0.1210362E+00
          2   -1    0    0  501    0  0.00000000000E+00  0.00000000000E+00  0.54420697258E+03  0.54420697258E+03  0.00000000000E+00 0. -1.
         -2   -1    0    0    0  501 -0.00000000000E+00 -0.00000000000E+00 -0.50366647109E+02  0.50366647109E+02  0.00000000000E+00 0.  1.
          5    1    1    2  502    0 -0.21281685508E+02  0.32759203578E+02  0.87643556227E+02  0.96046555925E+02  0.41800000000E+01 0. -1.
         -5    1    1    2    0  502 -0.97098176203E+01 -0.11787433286E+03  0.67864425551E+02  0.13642467357E+03  0.41800000000E+01 0.  1.
        -11    1    1    2    0    0  0.48643282778E+02  0.10001849444E+02  0.16634602827E+03  0.17360071161E+03  0.00000000000E+00 0.  1.
         11    1    1    2    0    0 -0.17651779650E+02  0.75113279835E+02  0.17198631542E+03  0.18850167857E+03  0.00000000000E+00 0. -1.
</event>
<event>
 7    1  0.6473813E-006  0.1327085E+03  0.7561462E-02  0.1223491E+00
          2   -1    0    0  501    0  0.00000000000E+00  0.00000000000E+00  0.70111327448E+03  0.70111327448E+03  0.00000000000E+00 0. -1.
         -2   -1    0    0    0  501 -0.00000000000E+00 -0.00000000000E+00 -0.30187517060E+02  0.30187517060E+02  0.00000000000E+00 0.  1.
         23    2    1    2    0    0  0.20183564952E+02  0.92850511063E+02  0.31238173366E+03  0.34965473188E+03  0.12508992887E+03 0.  0.
          5    1    3    3  502    0  0.62400732894E+02  0.95803545402E+02  0.23438827920E+03  0.26082083621E+03  0.41800000000E+01 0. -1.
         -5    1    3    3    0  502 -0.42217167942E+02 -0.29530343384E+01  0.77993454461E+02  0.88833895668E+02  0.41800000000E+01 0. -1.
        -11    1    1    2    0    0  0.16235899734E+02 -0.48199412483E+02  0.65172087916E+02  0.82669152937E+02  0.00000000000E+00 0.  1.
         11    1    1    2    0    0 -0.36419464686E+02 -0.44651098580E+02  0.29337193584E+03  0.29897690672E+03  0.00000000000E+00 0. -1.
</event>
<event>
 7    1  0.6473813E-006  0.1863143E+03  0.7561462E-02  0.1161828E+00
         -1   -1    0    0    0  501 -0.00000000000E+00  0.00000000000E+00  0.34289396661E+04  0.34289396661E+04  0.00000000000E+00 0.  1.
          1   -1    0    0  501    0  0.00000000000E+00 -0.00000000000E+00 -0.18202748091E+02  0.18202748091E+02  0.00000000000E+00 0. -1.
         23    2    1    2    0    0  0.12863907919E+03  0.84109652610E+02  0.28875403771E+04  0.28943322171E+04  0.12508839793E+03 0.  0.
          5    1    3    3  502    0  0.14531021602E+03  0.95296926577E+02  0.23596043618E+04  0.23659980515E+04  0.41800000000E+01 0.  1.
         -5    1    3    3    0  502 -0.16671136835E+02 -0.11187273966E+02  0.52793601529E+03  0.52833416561E+03  0.41800000000E+01 0.  1.
        -11    1    1    2    0    0 -0.82202925279E+02  0.22504564353E-01  0.25452365858E+03  0.26746890326E+03  0.00000000000E+00 0. -1.
         11    1    1    2    0    0 -0.46436153908E+02 -0.84132157175E+02  0.26867288234E+03  0.28534129383E+03  0.00000000000E+00 0.  1.
</event>
<event>
 7    1  0.6473813E-006  0.6548178E+02  0.7561462E-02  0.1376168E+00
          1   -1    0    0  501    0  0.00000000000E+00  0.00000000000E+00  0.10055305708E+04  0.10055305708E+04  0.00000000000E+00 0. -1.
         -1   -1    0    0    0  501 -0.00000000000E+00 -0.00000000000E+00 -0.12087966075E+02  0.12087966075E+02  0.00000000000E+00 0.  1.
         23    2    1    2    0    0 -0.78244221368E+00  0.22666834287E+02  0.57752384993E+03  0.59135030713E+03  0.12508793274E+03 0.  0.
          5    1    3    3  502    0 -0.15329393657E+02  0.11551547750E+02  0.75158170516E+01  0.21033032860E+02  0.41800000000E+01 0.  1.
         -5    1    3    3    0  502  0.14546951444E+02  0.11115286537E+02  0.57000803288E+03  0.57031727427E+03  0.41800000000E+01 0.  1.
        -11    1    1    2    0    0 -0.38897408273E+02 -0.33580389556E+02  0.20253932889E+03  0.20895652820E+03  0.00000000000E+00 0.  1.
         11    1    1    2    0    0  0.39679850487E+02  0.10913555269E+02  0.21337942589E+03  0.21731170152E+03  0.00000000000E+00 0. -1.
</event>
<event>
 7    1  0.6473813E-006  0.8799454E+02  0.7561462E-02  0.1307782E+00
          1   -1    0    0  501    0  0.00000000000E+00  0.00000000000E+00  0.32085586486E+02  0.32085586486E+02  0.00000000000E+00 0. -1.
         -1   -1    0    0    0  501 -0.00000000000E+00 -0.00000000000E+00 -0.56376871193E+03  0.56376871193E+03  0.00000000000E+00 0.  1.
         23    2    1    2    0    0 -0.63091887595E+02 -0.40926009893E+02 -0.32097611007E+03  0.35259380226E+03  0.12506478957E+03 0.  0.
          5    1    3    3  502    0 -0.55990028094E+01 -0.16333549568E+02 -0.27322976907E+03  0.27380670697E+03  0.41800000000E+01 0.  1.
         -5    1    3    3    0  502 -0.57492884785E+02 -0.24592460325E+02 -0.47746341001E+02  0.78787095293E+02  0.41800000000E+01 0.  1.
        -11    1    1    2    0    0  0.62128031411E+02  0.80328406620E+01 -0.19851890780E+03  0.20816862292E+03  0.00000000000E+00 0.  1.
         11    1    1    2    0    0  0.96385618403E+00  0.32893169231E+02 -0.12188107577E+02  0.35091873235E+02  0.00000000000E+00 0. -1.
</event>
<event>
 7    1  0.6473813E-006  0.1047868E+03  0.7561462E-02  0.1270540E+00
          3   -1    0    0  501    0  0.00000000000E+00  0.00000000000E+00  0.39735301372E+03  0.39735301372E+03  0.00000000000E+00 0. -1.
         -3   -1    0    0    0  501 -0.00000000000E+00 -0.00000000000E+00 -0.33781273840E+02  0.33781273840E+02  0.00000000000E+00 0.  1.
         23    2    1    2    0    0 -0.31327351484E+01  0.10436460375E+02  0.13342133897E+03  0.18321988591E+03  0.12509811816E+03 0.  0.
          5    1    3    3  502    0 -0.37610392271E+02  0.54816131998E+02  0.53532048129E+02  0.85454681035E+02  0.41800000000E+01 0.  1.
         -5    1    3    3    0  502  0.34477657122E+02 -0.44379671623E+02  0.79889290837E+02  0.97765204876E+02  0.41800000000E+01 0.  1.
        -11    1    1    2    0    0 -0.22438682557E+02  0.30789185027E+02  0.14492510413E+03  0.14984910476E+03  0.00000000000E+00 0. -1.
         11    1    1    2    0    0  0.25571417705E+02 -0.41225645402E+02  0.85225296787E+02  0.98065296893E+02  0.00000000000E+00 0.  1.
</event>
<event>
 7    1  0.6473813E-006  0.1255038E+03  0.7561462E-02  0.1234284E+00
         -1   -1    0    0    0  501 -0.00000000000E+00  0.00000000000E+00  0.46596770317E+03  0.46596770317E+03  0.00000000000E+00 0.  1.
          1   -1    0    0  501    0  0.00000000000E+00 -0.00000000000E+00 -0.50714902521E+02  0.50714902521E+02  0.00000000000E+00 0. -1.
         23    2    1    2    0    0 -0.26712904635E+02  0.65429061563E+02  0.36138937387E+03  0.38889887029E+03  0.12508201468E+03 0.  0.
          5    1    3    3  502    0  0.30416373935E+02  0.77890458615E+02  0.18606535578E+03  0.20403398827E+03  0.41800000000E+01 0.  1.
         -5    1    3    3    0  502 -0.57129278570E+02 -0.12461397052E+02  0.17532401809E+03  0.18486488202E+03  0.41800000000E+01 0.  1.
        -11    1    1    2    0    0  0.56275052234E+02 -0.50184423025E+02  0.56787979680E+02  0.94394027642E+02  0.00000000000E+00 0.  1.
         11    1    1    2    0    0 -0.29562147599E+02 -0.15244638538E+02 -0.29245528973E+01  0.33389707763E+02  0.00000000000E+00 0. -1.
</event>
<event>
 7    1  0.6473813E-006  0.1139221E+03  0.7561462E-02  0.1253474E+00
         -1   -1    0    0    0  501 -0.00000000000E+00  0.00000000000E+00  0.26087465967E+02  0.26087465967E+02  0.00000000000E+00 0.  1.
          1   -1    0    0  501    0  0.00000000000E+00 -0.00000000000E+00 -0.61709769359E+03  0.61709769359E+03  0.00000000000E+00 0. -1.
         23    2    1    2    0    0  0.70255994868E+02 -0.51464955558E+02 -0.31927100466E+03  0.35378725604E+03  0.12508757596E+03 0.  0.
          5    1    3    3  502    0  0.41526610991E+02 -0.85629782279E+02 -0.27393923912E+03  0.29002947809E+03  0.41800000000E+01 0.  1.
         -5    1    3    3    0  502  0.28729383877E+02  0.34164826721E+02 -0.45331765540E+02  0.63757777955E+02  0.41800000000E+01 0.  1.
        -11    1    1    2    0    0 -0.21057595966E+02  0.21756957963E+02 -0.37431622393E+02  0.48144718533E+02  0.00000000000E+00 0.  1.
         11    1    1    2    0    0 -0.49198398902E+02  0.29707997596E+02 -0.23430760058E+03  0.24125318498E+03  0.00000000000E+00 0. -1.
</event>
<event>
 7    1  0.6473813E-006  0.9506175E+02  0.7561462E-02  0.1291037E+00
         -1   -1    0    0    0  501 -0.00000000000E+00  0.00000000000E+00  0.73361344903E+02  0.73361344903E+02  0.00000000000E+00 0.  1.
          1   -1    0    0  501    0  0.00000000000E+00 -0.00000000000E+00 -0.17417684659E+03  0.17417684659E+03  0.00000000000E+00 0. -1.
         23    2    1    2    0    0 -0.73754343416E+01  0.32593964598E+02 -0.51863366060E+02  0.13485476900E+03  0.11991345389E+03 0.  0.
          5    1    3    3  502    0  0.29026961405E+02 -0.18018478758E+02 -0.62615976390E+02  0.71452522450E+02  0.41800000000E+01 0. -1.
         -5    1    3    3    0  502 -0.36402395747E+02  0.50612443357E+02  0.10752610330E+02  0.63402246550E+02  0.41800000000E+01 0.  1.
        -11    1    1    2    0    0 -0.66915480119E+01  0.29142758405E+02  0.39659115720E+01  0.30162984548E+02  0.00000000000E+00 0.  1.
         11    1    1    2    0    0  0.14066982354E+02 -0.61736723003E+02 -0.52918047202E+02  0.82520437950E+02  0.00000000000E+00 0. -1.
</event>
<event>
 7    1  0.6473813E-006  0.9154664E+02  0.7561462E-02  0.1299149E+00
         -4   -1    0    0    0  501 -0.00000000000E+00  0.00000000000E+00  0.21935511000E+02  0.21935511000E+02  0.00000000000E+00 0.  1.
          4   -1    0    0  501    0  0.00000000000E+00 -0.00000000000E+00 -0.50347689190E+03  0.50347689190E+03  0.00000000000E+00 0. -1.
         23    2    1    2    0    0 -0.32919077990E+02  0.36448967069E+02 -0.26588568894E+03  0.29791671821E+03  0.12508788314E+03 0.  0.
          5    1    3    3  502    0 -0.17930372693E+02  0.71235841396E+02 -0.24200833703E+03  0.25294574706E+03  0.41800000000E+01 0.  1.
         -5    1    3    3    0  502 -0.14988705297E+02 -0.34786874326E+02 -0.23877351911E+02  0.44970971150E+02  0.41800000000E+01 0.  1.
        -11    1    1    2    0    0  0.14654264299E+01 -0.39754295341E+02 -0.10082565164E+03  0.10838986807E+03  0.00000000000E+00 0.  1.
         11    1    1    2    0    0  0.31453651560E+02  0.33053282715E+01 -0.11483004033E+03  0.11910581662E+03  0.00000000000E+00 0. -1.
</event>
<event>
 7    1  0.6473813E-006  0.1199862E+03  0.7561462E-02  0.1243120E+00
         -2   -1    0    0    0  501 -0.00000000000E+00  0.00000000000E+00  0.29468907401E+02  0.29468907401E+02  0.00000000000E+00 0.  1.
          2   -1    0    0  501    0  0.00000000000E+00 -0.00000000000E+00 -0.71515120339E+03  0.71515120339E+03  0.00000000000E+00 0. -1.
         23    2    1    2    0    0  0.16761933051E+02  0.93453788442E+02 -0.32196149804E+03  0.35821894326E+03  0.12508809740E+03 0.  0.
          5    1    3    3  502    0  0.40890632799E+01  0.10822050633E+03 -0.14971008296E+03  0.18482148081E+03  0.41800000000E+01 0. -1.
         -5    1    3    3    0  502  0.12672869771E+02 -0.14766717885E+02 -0.17225141508E+03  0.17339746245E+03  0.41800000000E+01 0. -1.
        -11    1    1    2    0    0  0.22158937745E+02 -0.36786913895E+02 -0.24886863174E+03  0.25254681035E+03  0.00000000000E+00 0. -1.
         11    1    1    2    0    0 -0.38920870796E+02 -0.56666874547E+02 -0.11485216621E+03  0.13385435719E+03  0.00000000000E+00 0.  1.
</event>
<event>
 7    1  0.6473813E-006  0.1537904E+03  0.7561462E-02  0.1195891E+00
          1   -1    0    0  501    0  0.00000000000E+00  0.00000000000E+00  0.45202645472E+02  0.45202645472E+02  0.00000000000E+00 0. -1.
         -1   -1    0    0    0  501 -0.00000000000E+00 -0.00000000000E+00 -0.95307787926E+03  0.95307787926E+03  0.00000000000E+00 0.  1.
         23    2    1    2    0    0  0.12104039422E+03 -0.45580796768E+02 -0.68926713959E+03  0.71236527694E+03  0.12508681787E+03 0.  0.
          5    1    3    3  502    0  0.90838427246E+02 -0.84823748769E+02 -0.40078739762E+03  0.41963638868E+03  0.41800000000E+01 0. -1.
         -5    1    3    3    0  502  0.30201966978E+02  0.39242952001E+02 -0.28847974197E+03  0.29272888826E+03  0.41800000000E+01 0. -1.
        -11    1    1    2    0    0 -0.68782516744E+02  0.43189132337E+02 -0.21902759130E+03  0.23360098783E+03  0.00000000000E+00 0.  1.
         11    1    1    2    0    0 -0.52257877479E+02  0.23916644307E+01  0.41949710874E+00  0.52314259961E+02  0.00000000000E+00 0. -1.
</event>
<event>
 7    1  0.6473813E-006  0.9656920E+02  0.7561462E-02  0.1287680E+00
         -1   -1    0    0    0  501 -0.00000000000E+00  0.00000000000E+00  0.71406802164E+02  0.71406802164E+02  0.00000000000E+00 0.  1.
          1   -1    0    0  501    0  0.00000000000E+00 -0.00000000000E+00 -0.23498625830E+03  0.23498625830E+03  0.00000000000E+00 0. -1.
         23    2    1    2    0    0  0.19693103640E+02  0.33303841986E+02 -0.25929680131E+02  0.13348256153E+03  0.12509309213E+03 0.  0.
          5    1    3    3  502    0 -0.22850469164E+02 -0.16808596153E+02 -0.54579601988E+02  0.61652884756E+02  0.41800000000E+01 0.  1.
         -5    1    3    3    0  502  0.42543572804E+02  0.50112438139E+02  0.28649921857E+02  0.71829676774E+02  0.41800000000E+01 0.  1.
        -11    1    1    2    0    0 -0.51447809759E+02  0.15177107424E+01 -0.42574923042E+02  0.66796741290E+02  0.00000000000E+00 0.  1.
         11    1    1    2    0    0  0.31754706119E+02 -0.34821552728E+02 -0.95074852965E+02  0.10611375764E+03  0.00000000000E+00 0. -1.
</event>
<event>
 7    1  0.6473813E-006  0.1191356E+03  0.7561462E-02  0.1244530E+00
         -2   -1    0    0    0  501 -0.00000000000E+00  0.00000000000E+00  0.25948211508E+02  0.25948211508E+02  0.00000000000E+00 0.  1.
          2   -1    0    0  501    0  0.00000000000E+00 -0.00000000000E+00 -0.57851877356E+03  0.57851877356E+03  0.00000000000E+00 0. -1.
         23    2    1    2    0    0 -0.73428464953E+01  0.57794250034E+02 -0.27336961575E+03  0.30621963089E+03  0.12508166451E+03 0.  0.
          5    1    3    3  502    0  0.55385991773E+02  0.13439166437E+02 -0.15339135409E+03  0.16369055926E+03  0.41800000000E+01 0.  1.
         -5    1    3    3    0  502 -0.62728838268E+02  0.44355083597E+02 -0.11997826166E+03  0.14252907164E+03  0.41800000000E+01 0.  1.
        -11    1    1    2    0    0  0.42615377937E+02 -0.53880065133E+02 -0.16733913114E+03  0.18089089714E+03  0.00000000000E+00 0.  1.
         11    1    1    2    0    0 -0.35272531442E+02 -0.39141849014E+01 -0.11186181515E+03  0.11735645703E+03  0.00000000000E+00 0. -1.
</event>
<event>
 7    1  0.6473813E-006  0.1011223E+03  0.7561462E-02  0.1277954E+00
          1   -1    0    0  501    0  0.00000000000E+00  0.00000000000E+00  0.96120055517E+02  0.96120055517E+02  0.00000000000E+00 0. -1.
         -1   -1    0    0    0  501 -0.00000000000E+00 -0.00000000000E+00 -0.16058558719E+03  0.16058558719E+03  0.00000000000E+00 0.  1.
         23    2    1    2    0    0 -0.57735608045E+02 -0.29058369489E+02 -0.66734810738E+02  0.14485551014E+03  0.11113862775E+03 0.  0.
          5    1    3    3  502    0 -0.58447619443E+02 -0.67600133044E+02 -0.51265524203E+02  0.10310930403E+03  0.41800000000E+01 0.  1.
         -5    1    3    3    0  502  0.71201139810E+00  0.38541763556E+02 -0.15469286536E+02  0.41746206105E+02  0.41800000000E+01 0. -1.
        -11    1    1    2    0    0  0.14178521339E+02 -0.84687032184E+01 -0.38149509260E+02  0.41570836632E+02  0.00000000000E+00 0.  1.
         11    1    1    2    0    0  0.43557086706E+02  0.37527072707E+02  0.40418788323E+02  0.70279295940E+02  0.00000000000E+00 0. -1.
</event>
<event>
 7    1  0.6473813E-006  0.8621144E+02  0.7561462E-02  0.1312295E+00
          1   -1    0    0  501    0  0.00000000000E+00  0.00000000000E+00  0.38584674219E+03  0.38584674219E+03  0.00000000000E+00 0. -1.
         -1   -1    0    0    0  501 -0.00000000000E+00 -0.00000000000E+00 -0.34580887307E+02  0.34580887307E+02  0.00000000000E+00 0.  1.
         23    2    1    2    0    0 -0.11129275778E+02 -0.25506485346E+02  0.13511249703E+03  0.18621604906E+03  0.12508632420E+03 0.  0.
          5    1    3    3  502    0  0.16504361300E+02 -0.62943693250E+02  0.12093462327E+03  0.13739344223E+03  0.41800000000E+01 0. -1.
         -5    1    3    3    0  502 -0.27633637079E+02  0.37437207904E+02  0.14177873757E+02  0.48822606834E+02  0.41800000000E+01 0. -1.
        -11    1    1    2    0    0  0.22545688007E+02 -0.89066194179E+01  0.12345601122E+02  0.27203856054E+02  0.00000000000E+00 0.  1.
         11    1    1    2    0    0 -0.11416412229E+02  0.34413104764E+02  0.20380775674E+03  0.20700772438E+03  0.00000000000E+00 0. -1.
</event>
<event>
 7    1  0.6473813E-006  0.1355219E+03  0.7561462E-02  0.1219485E+00
         -1   -1    0    0    0  501 -0.00000000000E+00  0.00000000000E+00  0.40508541805E+02  0.40508541805E+02  0.00000000000E+00 0.  1.
          1   -1    0    0  501    0  0.00000000000E+00 -0.00000000000E+00 -0.64275204926E+03  0.64275204926E+03  0.00000000000E+00 0. -1.
         23    2    1    2    0    0  0.20852547699E+02  0.11694908207E+03 -0.32894663001E+03  0.37143122420E+03  0.12507338795E+03 0.  0.
          5    1    3    3  502    0  0.46557081030E+01  0.10237521515E+03 -0.33338517759E+03  0.34880583328E+03  0.41800000000E+01 0. -1.
         -5    1    3    3    0  502  0.16196839596E+02  0.14573866921E+02  0.44385475717E+01  0.22625390924E+02  0.41800000000E+01 0. -1.
        -11    1    1    2    0    0  0.26547912974E+02 -0.85201430334E+02 -0.13087061766E+03  0.15840200119E+03  0.00000000000E+00 0.  1.
         11    1    1    2    0    0 -0.47400460673E+02 -0.31747651732E+02 -0.14242625978E+03  0.15342736567E+03  0.00000000000E+00 0. -1.
</event>
<event>
 7    1  0.6473813E-006  0.1155062E+03  0.7561462E-02  0.1250700E+00
         -2   -1    0    0    0  501 -0.00000000000E+00  0.00000000000E+00  0.97081646523E+02  0.97081646523E+02  0.00000000000E+00 0. -1.
          2   -1    0    0  501    0  0.00000000000E+00 -0.00000000000E+00 -0.23959969059E+03  0.23959969059E+03  0.00000000000E+00 0.  1.
         23    2    1    2    0    0  0.89793549095E+02 -0.48061294016E+02 -0.43184031339E+02  0.16698632389E+03  0.12508717905E+03 0.  0.
          5    1    3    3  502    0  0.14781123701E+02  0.56748978507E+00 -0.71489345403E+02  0.73123201302E+02  0.41800000000E+01 0.  1.
         -5    1    3    3    0  502  0.75012425393E+02 -0.48628783801E+02  0.28305314064E+02  0.93863122586E+02  0.41800000000E+01 0.  1.
        -11    1    1    2    0    0 -0.60645952276E+02  0.67784413683E+02 -0.99084588394E+02  0.13450060938E+03  0.00000000000E+00 0.  1.
         11    1    1    2    0    0 -0.29147596819E+02 -0.19723119667E+02 -0.24942433490E+00  0.35194403848E+02  0.00000000000E+00 0. -1.
</event>
<event>
 7    1  0.6473813E-006  0.6554075E+02  0.7561462E-02  0.1375949E+00
         -2   -1    0    0    0  501 -0.00000000000E+00  0.00000000000E+00  0.77599765766E+02  0.77599765766E+02  0.00000000000E+00 0. -1.
          2   -1    0    0  501    0  0.00000000000E+00 -0.00000000000E+00 -0.19823241472E+03  0.19823241472E+03  0.00000000000E+00 0.  1.
         23    2    1    2    0    0 -0.46595061576E+02  0.30497340431E+02 -0.44623443449E+02  0.14392771651E+03  0.12499099303E+03 0.  0.
          5    1    3    3  502    0 -0.11146434391E+02  0.35126127103E+02 -0.83245665994E+02  0.91133973422E+02  0.41800000000E+01 0.  1.
         -5    1    3    3    0  502 -0.35448627186E+02 -0.46287866720E+01  0.38622222544E+02  0.52793743092E+02  0.41800000000E+01 0.  1.
        -11    1    1    2    0    0  0.25391166970E+02 -0.25965817696E+02  0.14298284372E+02  0.39030449456E+02  0.00000000000E+00 0. -1.
         11    1    1    2    0    0  0.21203894606E+02 -0.45315227346E+01 -0.90307489875E+02  0.92874014516E+02  0.00000000000E+00 0.  1.
</event>
<event>
 7    1  0.6473813E-006  0.1417071E+03  0.7561462E-02  0.1211050E+00
          2   -1    0    0  501    0  0.00000000000E+00  0.00000000000E+00  0.77423517611E+03  0.77423517611E+03  0.00000000000E+00 0. -1.
         -2   -1    0    0    0  501 -0.00000000000E+00 -0.00000000000E+00 -0.36720569240E+02  0.36720569240E+02  0.00000000000E+00 0.  1.
         23    2    1    2    0    0  0.11332998547E+03  0.55208809341E+02  0.32839405804E+03  0.37333959607E+03  0.12509235950E+03 0.  0.
          5    1    3    3  502    0  0.13847336271E+02 -0.92210013737E-01 -0.91375896576E+01  0.17109212993E+02  0.41800000000E+01 0. -1.
         -5    1    3    3    0  502  0.99482649196E+02  0.55301019355E+02  0.33753164770E+03  0.35623038308E+03  0.41800000000E+01 0. -1.
        -11    1    1    2    0    0 -0.99611788357E+02 -0.15035767080E+01  0.25006448099E+03  0.26917840510E+03  0.00000000000E+00 0.  1.
         11    1    1    2    0    0 -0.13718197110E+02 -0.53705232633E+02  0.15905606784E+03  0.16843774417E+03  0.00000000000E+00 0. -1.
</event>
<event>
 7    1  0.6473813E-006  0.1307120E+03  0.7561462E-02  0.1226403E+00
         -1   -1    0    0    0  501 -0.00000000000E+00  0.00000000000E+00  0.32741427496E+03  0.32741427496E+03  0.00000000000E+00 0.  1.
          1   -1    0    0  501    0  0.00000000000E+00 -0.00000000000E+00 -0.62245892032E+02  0.62245892032E+02  0.00000000000E+00 0. -1.
         23    2    1    2    0    0  0.88932642186E+02 -0.23475208581E+01  0.18190849671E+03  0.23801962391E+03  0.12509242379E+03 0.  0.
          5    1    3    3  502    0 -0.22236816244E+02 -0.30711244049E+02  0.36986291057E+02  0.53132990071E+02  0.41800000000E+01 0.  1.
         -5    1    3    3    0  502  0.11116945843E+03  0.28363723191E+02  0.14492220566E+03  0.18488663384E+03  0.41800000000E+01 0.  1.
        -11    1    1    2    0    0 -0.49284487358E+02 -0.29655107030E+02  0.82637497342E+02  0.10068436837E+03  0.00000000000E+00 0.  1.
         11    1    1    2    0    0 -0.39648154828E+02  0.32002627888E+02  0.62238887057E+00  0.50956174708E+02  0.00000000000E+00 0. -1.
</event>
<event>
 7    1  0.6473813E-006  0.1091053E+03  0.7561462E-02  0.1262236E+00
         -2   -1    0    0    0  501 -0.00000000000E+00  0.00000000000E+00  0.41549975352E+02  0.41549975352E+02  0.00000000000E+00 0.  1.
          2   -1    0    0  501    0  0.00000000000E+00 -0.00000000000E+00 -0.43329234876E+03  0.43329234876E+03  0.00000000000E+00 0. -1.
         23    2    1    2    0    0 -0.30373645190E+02  0.55233482424E+02 -0.13262785175E+03  0.19290137129E+03  0.12508995197E+03 0.  0.
          5    1    3    3  502    0 -0.66907469108E+02  0.36277584493E+02 -0.13092294429E+03  0.15149575011E+03  0.41800000000E+01 0.  1.
         -5    1    3    3    0  502  0.36533823918E+02  0.18955897931E+02 -0.17049074627E+01  0.41405621187E+02  0.41800000000E+01 0.  1.
        -11    1    1    2    0    0  0.47055542941E+02 -0.45703989712E+01 -0.63389034692E+02  0.79077698420E+02  0.00000000000E+00 0.  1.
         11    1    1    2    0    0 -0.16681897751E+02 -0.50663083453E+02 -0.19572548697E+03  0.20286325440E+03  0.00000000000E+00 0. -1.
</event>
<event>
 7    1  0.6473813E-006  0.1164053E+03  0.7561462E-02  0.1249148E+00
          1   -1    0    0  501    0  0.00000000000E+00  0.00000000000E+00  0.14491755281E+03  0.14491755281E+03  0.00000000000E+00 0. -1.
         -1   -1    0    0    0  501 -0.00000000000E+00 -0.00000000000E+00 -0.13558689982E+03  0.13558689982E+03  0.00000000000E+00 0.  1.
         23    2    1    2    0    0  0.49304219170E+02  0.80043810069E+02 -0.13713556193E+02  0.15707605426E+03  0.12508759986E+03 0.  0.
          5    1    3    3  502    0 -0.46739659084E+01  0.67654932991E+02  0.40799949831E+02  0.79253670083E+02  0.41800000000E+01 0. -1.
         -5    1    3    3    0  502  0.53978185078E+02  0.12388877078E+02 -0.54513506024E+02  0.77822384174E+02  0.41800000000E+01 0. -1.
        -11    1    1    2    0    0 -0.13414091003E+02  0.70311133982E+01  0.24996541415E+02  0.29226725368E+02  0.00000000000E+00 0. -1.
         11    1    1    2    0    0 -0.35890128167E+02 -0.87074923467E+02 -0.19523322273E+01  0.94201673010E+02  0.00000000000E+00 0.  1.
</event>
<event>
 7    1  0.6473813E-006  0.1041223E+03  0.7561462E-02  0.1271859E+00
         -2   -1    0    0    0  501 -0.00000000000E+00  0.00000000000E+00  0.23549434987E+03  0.23549434987E+03  0.00000000000E+00 0.  1.
          2   -1    0    0  501    0  0.00000000000E+00 -0.00000000000E+00 -0.85799305088E+02  0.85799305088E+02  0.00000000000E+00 0. -1.
         23    2    1    2    0    0 -0.28742051346E+02  0.84825482004E+02  0.72799639209E+02  0.17019569505E+03  0.12508125053E+03 0.  0.
          5    1    3    3  502    0 -0.86152548254E+01 -0.69644738824E+01 -0.29161000166E+02  0.31473208334E+02  0.41800000000E+01 0.  1.
         -5    1    3    3    0  502 -0.20126796521E+02  0.91789955886E+02  0.10196063937E+03  0.13872248672E+03  0.41800000000E+01 0.  1.
        -11    1    1    2    0    0 -0.14218213450E+02 -0.18852347005E+02  0.67863214407E+02  0.71853910478E+02  0.00000000000E+00 0.  1.
         11    1    1    2    0    0  0.42960264796E+02 -0.65973134999E+02  0.90321911706E+01  0.79244049432E+02  0.00000000000E+00 0. -1.
</event>
<event>
 7    1  0.6473813E-006  0.8182686E+02  0.7561462E-02  0.1323946E+00
          1   -1    0    0  501    0  0.00000000000E+00  0.00000000000E+00  0.55957366522E+02  0.55957366522E+02  0.00000000000E+00 0.  1.
         -1   -1    0    0    0  501 -0.00000000000E+00 -0.00000000000E+00 -0.24176717235E+03  0.24176717235E+03  0.00000000000E+00 0. -1.
         23    2    1    2    0    0 -0.13996750881E+02  0.38207396007E+02 -0.11451545781E+03  0.17440008252E+03  0.12508351035E+03 0.  0.
          5    1    3    3  502    0  0.40738580602E+02  0.11902341830E+01  0.13051228651E+01  0.40990539794E+02  0.41800000000E+01 0. -1.
         -5    1    3    3    0  502 -0.54735331484E+02  0.37017161824E+02 -0.11582058068E+03  0.13340954273E+03  0.41800000000E+01 0. -1.
        -11    1    1    2    0    0 -0.14160549717E+01 -0.40817626673E+02  0.87491392002E+01  0.41768783747E+02  0.00000000000E+00 0.  1.
         11    1    1    2    0    0  0.15412805853E+02  0.26102306661E+01 -0.80043487209E+02  0.81555672599E+02  0.00000000000E+00 0. -1.
</event>
<event>
 7    1  0.6473813E-006  0.7409652E+02  0.7561462E-02  0.1346692E+00
         -2   -1    0    0    0  501 -0.00000000000E+00  0.00000000000E+00  0.61343273161E+03  0.61343273161E+03  0.00000000000E+00 0.  1.
          2   -1    0    0  501    0  0.00000000000E+00 -0.00000000000E+00 -0.23883074891E+02  0.23883074891E+02  0.00000000000E+00 0. -1.
         23    2    1    2    0    0 -0.29643337929E+02 -0.15254480672E+01  0.45308924416E+03  0.47097230678E+03  0.12507596135E+03 0.  0.
          5    1    3    3  502    0 -0.64491710308E+01  0.41866316364E+02  0.53613453723E+02  0.68456227423E+02  0.41800000000E+01 0.  1.
         -5    1    3    3    0  502 -0.23194166898E+02 -0.43391764431E+02  0.39947579044E+03  0.40251607936E+03  0.41800000000E+01 0.  1.
        -11    1    1    2    0    0  0.22776869598E+02 -0.22044906176E+02  0.43780274847E+01  0.31998918757E+02  0.00000000000E+00 0. -1.
         11    1    1    2    0    0  0.68664683312E+01  0.23570354243E+02  0.13208238507E+03  0.13434458096E+03  0.00000000000E+00 0.  1.
</event>
<event>
 7    1  0.6473813E-006  0.2099210E+03  0.7561462E-02  0.1141629E+00
         -1   -1    0    0    0  501 -0.00000000000E+00  0.00000000000E+00  0.17416853269E+03  0.17416853269E+03  0.00000000000E+00 0.  1.
          1   -1    0    0  501    0  0.00000000000E+00 -0.00000000000E+00 -0.29963900499E+03  0.29963900499E+03  0.00000000000E+00 0. -1.
         23    2    1    2    0    0 -0.87999371784E+02 -0.16851661036E+03 -0.26588093283E+01  0.22758927124E+03  0.12509224482E+03 0.  0.
          5    1    3    3  502    0 -0.29589099417E+02  0.12913710298E+02 -0.16393168598E+02  0.36448416903E+02  0.41800000000E+01 0.  1.
         -5    1    3    3    0  502 -0.58410272366E+02 -0.18143032066E+03  0.13734359270E+02  0.19114085433E+03  0.41800000000E+01 0.  1.
        -11    1    1    2    0    0  0.25502450501E+02  0.12152124817E+02 -0.60315618630E+02  0.66603475659E+02  0.00000000000E+00 0. -1.
         11    1    1    2    0    0  0.62496921282E+02  0.15636448554E+03 -0.62496044347E+02  0.17961479078E+03  0.00000000000E+00 0.  1.
</event>
<event>
 6    1  0.6473813E-006  0.1108559E+03  0.7561462E-02  0.1258993E+00
         -1   -1    0    0    0  501 -0.00000000000E+00  0.00000000000E+00  0.63918201656E+02  0.63918201656E+02  0.00000000000E+00 0.  1.
          1   -1    0    0  501    0  0.00000000000E+00 -0.00000000000E+00 -0.48100479097E+03  0.48100479097E+03  0.00000000000E+00 0. -1.
          5    1    1    2  502    0  0.49660193557E+02 -0.35215772022E+02 -0.11662949930E+03  0.13162901630E+03  0.41800000000E+01 0. -1.
         -5    1    1    2    0  502 -0.25358493595E+02  0.80521735932E+02  0.10536784907E+02  0.85178045241E+02  0.41800000000E+01 0.  1.
        -11    1    1    2    0    0  0.17522049193E+01 -0.49710822862E+02 -0.29036137659E+03  0.29459118308E+03  0.00000000000E+00 0. -1.
         11    1    1    2    0    0 -0.26053904881E+02  0.44048589527E+01 -0.20632498326E+02  0.33524748010E+02  0.00000000000E+00 0.  1.
</event>
<event>
 7    1  0.6473813E-006  0.2788976E+03  0.7561462E-02  0.1096293E+00
          2   -1    0    0  501    0  0.00000000000E+00  0.00000000000E+00  0.13485868467E+04  0.13485868467E+04  0.00000000000E+00 0. -1.
         -2   -1    0    0    0  501 -0.00000000000E+00 -0.00000000000E+00 -0.61228414933E+02  0.61228414933E+02  0.00000000000E+00 0.  1.
         23    2    1    2    0    0 -0.21396218583E+02  0.26266498719E+03  0.58271588411E+03  0.65165563459E+03  0.12508625355E+03 0.  0.
          5    1    3    3  502    0 -0.49627003291E+02  0.33984017081E+02  0.10043958918E+03  0.11714664463E+03  0.41800000000E+01 0. -1.
         -5    1    3    3    0  502  0.28230784708E+02  0.22868097011E+03  0.48227629493E+03  0.53450898996E+03  0.41800000000E+01 0. -1.
        -11    1    1    2    0    0 -0.12716599631E+02 -0.10279750900E+03  0.16985358550E+03  0.19894542033E+03  0.00000000000E+00 0.  1.
         11    1    1    2    0    0  0.34112818214E+02 -0.15986747819E+03  0.53478896213E+03  0.55921420669E+03  0.00000000000E+00 0. -1.
</event>
<event>
 6    1  0.6473813E-006  0.1262590E+03  0.7561462E-02  0.1233115E+00
         -3   -1    0    0    0  501 -0.00000000000E+00  0.00000000000E+00  0.81003359040E+02  0.81003359040E+02  0.00000000000E+00 0.  1.
          3   -1    0    0  501    0  0.00000000000E+00 -0.00000000000E+00 -0.23064708355E+03  0.23064708355E+03  0.00000000000E+00 0. -1.
          5    1    1    2  502    0  0.29324943813E+02  0.45029360011E+02 -0.42353934024E+01  0.54064836539E+02  0.41800000000E+01 0. -1.
         -5    1    1    2    0  502 -0.93288681891E+02 -0.32840780673E+02 -0.51267898302E+02  0.11147719426E+03  0.41800000000E+01 0.  1.
        -11    1    1    2    0    0  0.97705007125E+01  0.29616591615E+02 -0.18949880033E+01  0.31244138052E+02  0.00000000000E+00 0. -1.
         11    1    1    2    0    0  0.54193237365E+02 -0.41805170954E+02 -0.92245444805E+02  0.11486427374E+03  0.00000000000E+00 0.  1.
</event>
<event>
 7    1  0.6473813E-006  0.2535590E+03  0.7561462E-02  0.1111076E+00
         -3   -1    0    0    0  501 -0.00000000000E+00  0.00000000000E+00  0.16624232413E+03  0.16624232413E+03  0.00000000000E+00 0.  1.
          3   -1    0    0  501    0  0.00000000000E+00 -0.00000000000E+00 -0.50812459775E+03  0.50812459775E+03  0.00000000000E+00 0. -1.
         23    2    1    2    0    0  0.24192297694E+03  0.55818714452E+02 -0.47830016753E+02  0.28209530898E+03  0.12509035611E+03 0.  0.
          5    1    3    3  502    0  0.13101431427E+03 -0.13421683666E+01  0.30664699463E+02  0.13462669926E+03  0.41800000000E+01 0.  1.
         -5    1    3    3    0  502  0.11090866266E+03  0.57160882819E+02 -0.78494716216E+02  0.14746860972E+03  0.41800000000E+01 0.  1.
        -11    1    1    2    0    0 -0.22662962010E+02  0.58782979317E+01 -0.65672497674E+02  0.69721167405E+02  0.00000000000E+00 0. -1.
         11    1    1    2    0    0 -0.21926001493E+03 -0.61697012384E+02 -0.22837975919E+03  0.32255044550E+03  0.00000000000E+00 0.  1.
</event>
<event>
 7    1  0.6473813E-006  0.1031702E+03  0.7561462E-02  0.1273767E+00
         -2   -1    0    0    0  501 -0.00000000000E+00  0.00000000000E+00  0.51928614587E+02  0.51928614587E+02  0.00000000000E+00 0.  1.
          2   -1    0    0  501    0  0.00000000000E+00 -0.00000000000E+00 -0.30718121984E+03  0.30718121984E+03  0.00000000000E+00 0. -1.
         23    2    1    2    0    0 -0.13682398449E+02 -0.60975169580E+02 -0.15889245255E+03  0.21165704015E+03  0.12508681719E+03 0.  0.
          5    1    3    3  502    0  0.38670582200E+02 -0.12049287856E+02 -0.12653039910E+03  0.13292108020E+03  0.41800000000E+01 0. -1.
         -5    1    3    3    0  502 -0.52352980649E+02 -0.48925881724E+02 -0.32362053454E+02  0.78735959949E+02  0.41800000000E+01 0. -1.
        -11    1    1    2    0    0  0.21157942918E+02 -0.93428096422E+01  0.51931568823E+01  0.23704757306E+02  0.00000000000E+00 0.  1.
         11    1    1    2    0    0 -0.74755444688E+01  0.70317979222E+02 -0.10155330958E+03  0.12374803697E+03  0.00000000000E+00 0. -1.
</event>
<event>
 7    1  0.6473813E-006  0.1130922E+03  0.7561462E-02  0.1254948E+00
         -3   -1    0    0    0  501 -0.00000000000E+00  0.00000000000E+00  0.59286715592E+03  0.59286715592E+03  0.00000000000E+00 0.  1.
          3   -1    0    0  501    0  0.00000000000E+00 -0.00000000000E+00 -0.30678652506E+02  0.30678652506E+02  0.00000000000E+00 0. -1.
         23    2    1    2    0    0 -0.65705731001E+02 -0.10698135553E+01  0.41716427807E+03  0.44044484185E+03  0.12508891330E+03 0.  0.
          5    1    3    3  502    0 -0.93561048953E+02 -0.21847477547E+02  0.21859322882E+03  0.23881259230E+03  0.41800000000E+01 0. -1.
         -5    1    3    3    0  502  0.27855317952E+02  0.20777663992E+02  0.19857104924E+03  0.20163224955E+03  0.41800000000E+01 0. -1.
        -11    1    1    2    0    0  0.32363724484E+02 -0.33781404404E+02  0.11993043161E+03  0.12873190114E+03  0.00000000000E+00 0.  1.
         11    1    1    2    0    0  0.33342006517E+02  0.34851217959E+02  0.25093793739E+02  0.54369065433E+02  0.00000000000E+00 0. -1.
</event>
<event>
 6    1  0.6473813E-006  0.1962088E+03  0.7561462E-02  0.1152978E+00
         -2   -1    0    0    0  501 -0.00000000000E+00  0.00000000000E+00  0.32274006222E+02  0.32274006222E+02  0.00000000000E+00 0.  1.
          2   -1    0    0  501    0  0.00000000000E+00 -0.00000000000E+00 -0.14959156005E+04  0.14959156005E+04  0.00000000000E+00 0. -1.
          5    1    1    2  502    0  0.39061847742E+02  0.11460419190E+03 -0.68950354086E+03  0.70006610689E+03  0.41800000000E+01 0. -1.
         -5    1    1    2    0  502 -0.29102024115E+02  0.74520346104E+02 -0.10645020410E+03  0.13322660449E+03  0.41800000000E+01 0.  1.
        -11    1    1    2    0    0  0.23261743469E+01 -0.15266857033E+03 -0.49688277442E+03  0.51981303848E+03  0.00000000000E+00 0. -1.
         11    1    1    2    0    0 -0.12285997974E+02 -0.36455967674E+02 -0.17080507490E+03  0.17508385687E+03  0.00000000000E+00 0.  1.
</event>
<event>
 7    1  0.6473813E-006  0.2000744E+03  0.7561462E-02  0.1149676E+00
          2   -1    0    0  501    0  0.00000000000E+00  0.00000000000E+00  0.80544747226E+02  0.80544747226E+02  0.00000000000E+00 0. -1.
         -2   -1    0    0    0  501 -0.00000000000E+00 -0.00000000000E+00 -0.62699169371E+03  0.62699169371E+03  0.00000000000E+00 0.  1.
         23    2    1    2    0    0 -0.62372720686E+02 -0.18467525942E+03 -0.24531545688E+03  0.33737806131E+03  0.12509586381E+03 0.  0.
          5    1    3    3  502    0 -0.71475339208E+02 -0.18068565189E+03 -0.16100467205E+03  0.25238067623E+03  0.41800000000E+01 0.  1.
         -5    1    3    3    0  502  0.91026185221E+01 -0.39896075344E+01 -0.84310784823E+02  0.84997385076E+02  0.41800000000E+01 0.  1.
        -11    1    1    2    0    0  0.90483526456E+01  0.20879572866E+02 -0.11221281702E+03  0.11449692377E+03  0.00000000000E+00 0.  1.
         11    1    1    2    0    0  0.53324368040E+02  0.16379568655E+03 -0.18891867259E+03  0.25566145586E+03  0.00000000000E+00 0. -1.
</event>
<event>
 7    1  0.6473813E-006  0.9796755E+02  0.7561462E-02  0.1284629E+00
          2   -1    0    0  501    0  0.00000000000E+00  0.00000000000E+00  0.10194938181E+03  0.10194938181E+03  0.00000000000E+00 0. -1.
         -2   -1    0    0    0  501 -0.00000000000E+00 -0.00000000000E+00 -0.97399747049E+02  0.97399747049E+02  0.00000000000E+00 0.  1.
         23    2    1    2    0    0 -0.12503476125E+02 -0.62828692434E+01 -0.10311892600E+02  0.11317562565E+03  0.11183280266E+03 0.  0.
          5    1    3    3  502    0 -0.12915638497E+02  0.51518996265E+02 -0.14056131001E+02  0.55100525520E+02  0.41800000000E+01 0. -1.
         -5    1    3    3    0  502  0.41216237143E+00 -0.57801865508E+02  0.37442384002E+01  0.58075100131E+02  0.41800000000E+01 0.  1.
        -11    1    1    2    0    0 -0.46471615298E+01  0.43487921933E+02  0.10467793413E+02  0.44970770099E+02  0.00000000000E+00 0. -1.
         11    1    1    2    0    0  0.17150637655E+02 -0.37205052690E+02  0.43937339489E+01  0.41202733109E+02  0.00000000000E+00 0.  1.
</event>
<event>
 7    1  0.6473813E-006  0.1004169E+03  0.7561462E-02  0.1279422E+00
         -1   -1    0    0    0  501 -0.00000000000E+00  0.00000000000E+00  0.15683893058E+03  0.15683893058E+03  0.00000000000E+00 0.  1.
          1   -1    0    0  501    0  0.00000000000E+00 -0.00000000000E+00 -0.11811907851E+03  0.11811907851E+03  0.00000000000E+00 0. -1.
         23    2    1    2    0    0 -0.61747946661E+01 -0.68248832527E+02  0.89913495721E+02  0.15910922597E+03  0.11196105504E+03 0.  0.
          5    1    3    3  502    0 -0.33823592558E+02 -0.11540965848E+02 -0.13055645738E+02  0.38277298649E+02  0.41800000000E+01 0. -1.
         -5    1    3    3    0  502  0.27648797892E+02 -0.56707866680E+02  0.10296914146E+03  0.12083192732E+03  0.41800000000E+01 0.  1.
        -11    1    1    2    0    0 -0.45371040596E+01 -0.16033980259E+02 -0.13839092782E-01  0.16663553874E+02  0.00000000000E+00 0.  1.
         11    1    1    2    0    0  0.10711898726E+02  0.84282812787E+02 -0.51179804561E+02  0.99185229245E+02  0.00000000000E+00 0. -1.
</event>
<event>
 7    1  0.6473813E-006  0.1631528E+03  0.7561462E-02  0.1185183E+00
         -4   -1    0    0    0  501 -0.00000000000E+00  0.00000000000E+00  0.24804829840E+03  0.24804829840E+03  0.00000000000E+00 0.  1.
          4   -1    0    0  501    0  0.00000000000E+00 -0.00000000000E+00 -0.16415188281E+03  0.16415188281E+03  0.00000000000E+00 0. -1.
         23    2    1    2    0    0  0.48635125213E+02 -0.13421063096E+03  0.13823175673E+03  0.23480596584E+03  0.12509178293E+03 0.  0.
          5    1    3    3  502    0  0.78309809220E+02 -0.12570965216E+03  0.79066291740E+02  0.16794134022E+03  0.41800000000E+01 0.  1.
         -5    1    3    3    0  502 -0.29674684007E+02 -0.85009788022E+01  0.59165464993E+02  0.66864625620E+02  0.41800000000E+01 0.  1.
        -11    1    1    2    0    0 -0.48303403005E+02  0.84902121728E+02 -0.75774084269E+02  0.12362564808E+03  0.00000000000E+00 0. -1.
         11    1    1    2    0    0 -0.33172220839E+00  0.49308509231E+02  0.21438743124E+02  0.53768567295E+02  0.00000000000E+00 0.  1.
</event>
<event>
 7    1  0.6473813E-006  0.9525739E+02  0.7561462E-02  0.1290597E+00
         -1   -1    0    0    0  501 -0.00000000000E+00  0.00000000000E+00  0.57236091132E+02  0.57236091132E+02  0.00000000000E+00 0.  1.
          1   -1    0    0  501    0  0.00000000000E+00 -0.00000000000E+00 -0.40325118289E+03  0.40325118289E+03  0.00000000000E+00 0. -1.
         23    2    1    2    0    0 -0.15108828907E+02 -0.77386501929E+02 -0.80896364092E+02  0.16854882399E+03  0.12509011533E+03 0.  0.
          5    1    3    3  502    0 -0.29596136437E+01 -0.61881965202E+02  0.20331671502E+02  0.65337479261E+02  0.41800000000E+01 0. -1.
         -5    1    3    3    0  502 -0.12149215263E+02 -0.15504536728E+02 -0.10122803559E+03  0.10321134473E+03  0.41800000000E+01 0. -1.
        -11    1    1    2    0    0  0.37304036914E+02  0.77586795497E+02 -0.25166736395E+03  0.26598451850E+03  0.00000000000E+00 0. -1.
         11    1    1    2    0    0 -0.22195208008E+02 -0.20029356706E+00 -0.13451363718E+02  0.25953931531E+02  0.00000000000E+00 0.  1.
</event>
<event>
 7    1  0.6473813E-006  0.1292619E+03  0.7561462E-02  0.1228555E+00
          1   -1    0    0  501    0  0.00000000000E+00  0.00000000000E+00  0.98175094762E+03  0.98175094762E+03  0.00000000000E+00 0. -1.
         -1   -1    0    0    0  501 -0.00000000000E+00 -0.00000000000E+00 -0.18926744168E+02  0.18926744168E+02  0.00000000000E+00 0.  1.
         23    2    1    2    0    0  0.76412787360E+02 -0.47237392043E+02  0.48193226864E+03  0.50251653861E+03  0.11042587898E+03 0.  0.
          5    1    3    3  502    0  0.65523310455E+02  0.13184465229E+02  0.14124499581E+03  0.15631620382E+03  0.41800000000E+01 0. -1.
         -5    1    3    3    0  502  0.10889476905E+02 -0.60421857272E+02  0.34068727283E+03  0.34620033479E+03  0.41800000000E+01 0.  1.
        -11    1    1    2    0    0 -0.74870503103E+02 -0.75134847166E+01  0.28129479442E+03  0.29118517485E+03  0.00000000000E+00 0.  1.
         11    1    1    2    0    0 -0.15422842573E+01  0.54750876760E+02  0.19959714039E+03  0.20697597832E+03  0.00000000000E+00 0. -1.
</event>
<event>
 7    1  0.6473813E-006  0.9541693E+02  0.7561462E-02  0.1290240E+00
         -3   -1    0    0    0  501 -0.00000000000E+00  0.00000000000E+00  0.55557943754E+03  0.55557943754E+03  0.00000000000E+00 0.  1.
          3   -1    0    0  501    0  0.00000000000E+00 -0.00000000000E+00 -0.23031872290E+02  0.23031872290E+02  0.00000000000E+00 0. -1.
         23    2    1    2    0    0  0.34219960265E+02  0.63292247373E+01  0.30825495590E+03  0.33447950100E+03  0.12507739200E+03 0.  0.
          5    1    3    3  502    0 -0.61076272336E+01  0.54123473379E+02  0.73960955778E+02  0.91947533195E+02  0.41800000000E+01 0.  1.
         -5    1    3    3    0  502  0.40327587498E+02 -0.47794248642E+02  0.23429400012E+03  0.24253196781E+03  0.41800000000E+01 0.  1.
        -11    1    1    2    0    0 -0.45263181123E+02 -0.25097938750E+02  0.21377027576E+03  0.21994634094E+03  0.00000000000E+00 0.  1.
         11    1    1    2    0    0  0.11043220858E+02  0.18768714013E+02  0.10522333592E+02  0.24185467885E+02  0.00000000000E+00 0. -1.
</event>
<event>
 7    1  0.6473813E-006  0.9354737E+02  0.7561462E-02  0.1294482E+00
         -2   -1    0    0    0  501 -0.00000000000E+00  0.00000000000E+00  0.45884952757E+03  0.45884952757E+03  0.00000000000E+00 0. -1.
          2   -1    0    0  501    0  0.00000000000E+00 -0.00000000000E+00 -0.40408899433E+02  0.40408899433E+02  0.00000000000E+00 0.  1.
         23    2    1    2    0    0  0.67716025087E+01  0.59829369915E+02  0.33136315002E+03  0.35926643134E+03  0.12508166689E+03 0.  0.
          5    1    3    3  502    0 -0.15439528669E+02 -0.14801868447E+01 -0.48362968779E+01  0.16775940096E+02  0.41800000000E+01 0. -1.
         -5    1    3    3    0  502  0.22211131178E+02  0.61309556760E+02  0.33619944690E+03  0.34249049125E+03  0.41800000000E+01 0. -1.
        -11    1    1    2    0    0  0.38183416142E+02 -0.11944730215E+02  0.51755753294E+02  0.65416418789E+02  0.00000000000E+00 0. -1.
         11    1    1    2    0    0 -0.44955018650E+02 -0.47884639700E+02  0.35321724815E+02  0.74575576866E+02  0.00000000000E+00 0.  1.
</event>
<event>
 7    1  0.6473813E-006  0.2735602E+03  0.7561462E-02  0.1099259E+00
         -2   -1    0    0    0  501 -0.00000000000E+00  0.00000000000E+00  0.19169682375E+03  0.19169682375E+03  0.00000000000E+00 0.  1.
          2   -1    0    0  501    0  0.00000000000E+00 -0.00000000000E+00 -0.45325148700E+03  0.45325148700E+03  0.00000000000E+00 0. -1.
         23    2    1    2    0    0 -0.94317352754E+02 -0.25242368196E+03 -0.17978984106E+03  0.34725451059E+03  0.12509128640E+03 0.  0.
          5    1    3    3  502    0 -0.32525480709E+02 -0.60605044286E+02  0.10916433532E+02  0.69767608597E+02  0.41800000000E+01 0.  1.
         -5    1    3    3    0  502 -0.61791872045E+02 -0.19181863767E+03 -0.19070627459E+03  0.27748690199E+03  0.41800000000E+01 0.  1.
        -11    1    1    2    0    0  0.38417730714E+02  0.34403364049E+02 -0.47339395157E+02  0.70003798647E+02  0.00000000000E+00 0. -1.
         11    1    1    2    0    0  0.55899622040E+02  0.21802031791E+03 -0.34425427028E+02  0.22769000152E+03  0.00000000000E+00 0.  1.
</event>
<event>
 7    1  0.6473813E-006  0.1101112E+03  0.7561462E-02  0.1260364E+00
          1   -1    0    0  501    0  0.00000000000E+00  0.00000000000E+00  0.10785310136E+03  0.10785310136E+03  0.00000000000E+00 0. -1.
         -1   -1    0    0    0  501 -0.00000000000E+00 -0.00000000000E+00 -0.12545200275E+03  0.12545200275E+03  0.00000000000E+00 0.  1.
         23    2    1    2    0    0 -0.15511793946E+02 -0.43204563290E+01 -0.39784350017E+02  0.13224832734E+03  0.12509014144E+03 0.  0.
          5    1    3    3  502    0  0.14253522337E+02  0.54025963207E+02 -0.35805939722E+02  0.66494400657E+02  0.41800000000E+01 0. -1.
         -5    1    3    3    0  502 -0.29765316282E+02 -0.58346419536E+02 -0.39784102946E+01  0.65753926685E+02  0.41800000000E+01 0. -1.
        -11    1    1    2    0    0  0.41875657201E+02 -0.32685392115E+02  0.13265129883E+02  0.54752800792E+02  0.00000000000E+00 0.  1.
         11    1    1    2    0    0 -0.26363863255E+02  0.37005848444E+02  0.89203187435E+01  0.46303975977E+02  0.00000000000E+00 0. -1.
</event>
<event>
 7    1  0.6473813E-006  0.8115722E+02  0.7561462E-02  0.1325799E+00
         -1   -1    0    0    0  501 -0.00000000000E+00  0.00000000000E+00  0.39377246096E+02  0.39377246096E+02  0.00000000000E+00 0.  1.
          1   -1    0    0  501    0  0.00000000000E+00 -0.00000000000E+00 -0.31619485887E+03  0.31619485887E+03  0.00000000000E+00 0. -1.
         23    2    1    2    0    0 -0.46183797197E+01  0.33044592513E+02 -0.17015867746E+03  0.21381023548E+03  0.12509023446E+03 0.  0.
          5    1    3    3  502    0  0.30770777689E+02 -0.33432865404E+00 -0.16120577556E+03  0.16416981150E+03  0.41800000000E+01 0.  1.
         -5    1    3    3    0  502 -0.35389157409E+02  0.33378921167E+02 -0.89529018974E+01  0.49640423979E+02  0.41800000000E+01 0.  1.
        -11    1    1    2    0    0  0.40045084340E+02 -0.16066454490E+02 -0.22001605075E+02  0.48433566517E+02  0.00000000000E+00 0.  1.
         11    1    1    2    0    0 -0.35426704620E+02 -0.16978138023E+02 -0.84657330243E+02  0.93328302967E+02  0.00000000000E+00 0. -1.
</event>
<event>
 7    1  0.6473813E-006  0.1155809E+03  0.7561462E-02  0.1250570E+00
          3   -1    0    0  501    0  0.00000000000E+00  0.00000000000E+00  0.19785688408E+03  0.19785688408E+03  0.00000000000E+00 0. -1.
         -3   -1    0    0    0  501 -0.00000000000E+00 -0.00000000000E+00 -0.87253148772E+02  0.87253148772E+02  0.00000000000E+00 0.  1.
         23    2    1    2    0    0 -0.28379113211E+02 -0.67401143447E+02  0.47237054283E+02  0.15240387886E+03  0.12508922731E+03 0.  0.
          5    1    3    3  502    0  0.43841866334E+02 -0.55769077153E+02  0.29986552578E+02  0.77129533550E+02  0.41800000000E+01 0.  1.
         -5    1    3    3    0  502 -0.72220979545E+02 -0.11632066293E+02  0.17250501705E+02  0.75274345309E+02  0.41800000000E+01 0.  1.
        -11    1    1    2    0    0 -0.12856957108E+02  0.10747999890E+02 -0.18490072160E+02  0.24954030059E+02  0.00000000000E+00 0.  1.
         11    1    1    2    0    0  0.41236070318E+02  0.56653143557E+02  0.81856753183E+02  0.10775212393E+03  0.00000000000E+00 0. -1.
</event>
<event>
 7    1  0.6473813E-006  0.8769997E+02  0.7561462E-02  0.1308519E+00
          2   -1    0    0  501    0  0.00000000000E+00  0.00000000000E+00  0.11644251650E+03  0.11644251650E+03  0.00000000000E+00 0. -1.
         -2   -1    0    0    0  501 -0.00000000000E+00 -0.00000000000E+00 -0.11870555531E+03  0.11870555531E+03  0.00000000000E+00 0.  1.
         23    2    1    2    0    0  0.34741334784E+02  0.27896585841E+02 -0.15309059636E+02  0.13373632727E+03  0.12516332562E+03 0.  0.
          5    1    3    3  502    0  0.72586617607E+02  0.39375687214E+02 -0.34483344397E+02  0.89587026070E+02  0.41800000000E+01 0.  1.
         -5    1    3    3    0  502 -0.37845282823E+02 -0.11479101373E+02  0.19174284761E+02  0.44149301199E+02  0.41800000000E+01 0.  1.
        -11    1    1    2    0    0 -0.10565750240E+02  0.53476847098E+01  0.46768012728E+02  0.48243961533E+02  0.00000000000E+00 0.  1.
         11    1    1    2    0    0 -0.24175584544E+02 -0.33244270551E+02 -0.33721991903E+02  0.53167783011E+02  0.00000000000E+00 0. -1.
</event>
<event>
 7    1  0.6473813E-006  0.1319364E+03  0.7561462E-02  0.1224610E+00
          2   -1    0    0  501    0  0.00000000000E+00  0.00000000000E+00  0.30489961379E+03  0.30489961379E+03  0.00000000000E+00 0.  1.
         -2   -1    0    0    0  501 -0.00000000000E+00 -0.00000000000E+00 -0.72076260993E+02  0.72076260993E+02  0.00000000000E+00 0. -1.
         23    2    1    2    0    0  0.73253500965E+02  0.56204238964E+02  0.14332612338E+03  0.21145853510E+03  0.12508933825E+03 0.  0.
          5    1    3    3  502    0  0.86909336000E+02 -0.23406728430E+01  0.11667849450E+03  0.14556804221E+03  0.41800000000E+01 0. -1.
         -5    1    3    3    0  502 -0.13655835035E+02  0.58544911807E+02  0.26647628882E+02  0.65890492896E+02  0.41800000000E+01 0. -1.
        -11    1    1    2    0    0  0.12277649626E+02 -0.20479195943E+02  0.65576344111E+02  0.69788215723E+02  0.00000000000E+00 0.  1.
         11    1    1    2    0    0 -0.85531150591E+02 -0.35725043021E+02  0.23920885307E+02  0.95729123960E+02  0.00000000000E+00 0. -1.
</event>
<event>
 7    1  0.6473813E-006  0.9848580E+02  0.7561462E-02  0.1283513E+00
          1   -1    0    0  501    0  0.00000000000E+00  0.00000000000E+00  0.29433316918E+02  0.29433316918E+02  0.00000000000E+00 0. -1.
         -1   -1    0    0    0  501 -0.00000000000E+00 -0.00000000000E+00 -0.58424478090E+03  0.58424478090E+03  0.00000000000E+00 0.  1.
         23    2    1    2    0    0  0.20310861010E+00  0.32636756900E+02 -0.46150476783E+03  0.47927016615E+03  0.12509213516E+03 0.  0.
          5    1    3    3  502    0 -0.99961672962E+01  0.77328387333E+02 -0.35064332107E+03  0.35923225615E+03  0.41800000000E+01 0.  1.
         -5    1    3    3    0  502  0.10199275906E+02 -0.44691630433E+02 -0.11086144676E+03  0.12003791000E+03  0.41800000000E+01 0.  1.
        -11    1    1    2    0    0  0.54164948638E+01  0.19591901778E+02 -0.76651174048E+02  0.79300589625E+02  0.00000000000E+00 0.  1.
         11    1    1    2    0    0 -0.56196034739E+01 -0.52228658678E+02 -0.16655522109E+02  0.55107342045E+02  0.00000000000E+00 0. -1.
</event>
<event>
 7    1  0.6473813E-006  0.8745331E+02  0.7561462E-02  0.1309139E+00
         -1   -1    0    0    0  501 -0.00000000000E+00  0.00000000000E+00  0.78598860192E+02  0.78598860192E+02  0.00000000000E+00 0.  1.
          1   -1    0    0  501    0  0.00000000000E+00 -0.00000000000E+00 -0.21164425506E+03  0.21164425506E+03  0.00000000000E+00 0. -1.
         23    2    1    2    0    0  0.13708287191E+02  0.85948622713E+00  0.53248086789E+01  0.12592351066E+03  0.12505887052E+03 0.  0.
          5    1    3    3  502    0 -0.19579435568E+02 -0.55555805792E+02  0.10897629901E+02  0.60050250556E+02  0.41800000000E+01 0.  1.
         -5    1    3    3    0  502  0.33287722758E+02  0.56415292020E+02 -0.55728212223E+01  0.65873260102E+02  0.41800000000E+01 0.  1.
        -11    1    1    2    0    0 -0.22015174720E+02  0.18751479473E+02 -0.14000382978E+03  0.14295928880E+03  0.00000000000E+00 0. -1.
         11    1    1    2    0    0  0.83068875292E+01 -0.19610965700E+02  0.16336262353E+01  0.21360315793E+02  0.00000000000E+00 0.  1.
</event>
<event>
 7    1  0.6473813E-006  0.1068539E+03  0.7561462E-02  0.1266509E+00
          2   -1    0    0  501    0  0.00000000000E+00  0.00000000000E+00  0.12393457316E+03  0.12393457316E+03  0.00000000000E+00 0. -1.
         -2   -1    0    0    0  501 -0.00000000000E+00 -0.00000000000E+00 -0.11970953078E+03  0.11970953078E+03  0.00000000000E+00 0.  1.
         23    2    1    2    0    0  0.53563411709E+02  0.22170033185E+02 -0.19890177575E+02  0.13929653305E+03  0.12508939008E+03 0.  0.
          5    1    3    3  502    0  0.20706267655E+02  0.61018224166E+02  0.26990583361E+02  0.69985264098E+02  0.41800000000E+01 0. -1.
         -5    1    3    3    0  502  0.32857144053E+02 -0.38848190981E+02 -0.46880760936E+02  0.69311268952E+02  0.41800000000E+01 0. -1.
        -11    1    1    2    0    0 -0.18048275608E+02 -0.49876131908E+02  0.26395436825E+02  0.59245994563E+02  0.00000000000E+00 0. -1.
         11    1    1    2    0    0 -0.35515136101E+02  0.27706098723E+02 -0.22802168667E+01  0.45101576332E+02  0.00000000000E+00 0.  1.
</event>
<event>
 7    1  0.6473813E-006  0.1104148E+03  0.7561462E-02  0.1259804E+00
          3   -1    0    0  501    0  0.00000000000E+00  0.00000000000E+00  0.16553846815E+03  0.16553846815E+03  0.00000000000E+00 0. -1.
         -3   -1    0    0    0  501 -0.00000000000E+00 -0.00000000000E+00 -0.87821671375E+02  0.87821671375E+02  0.00000000000E+00 0.  1.
         23    2    1    2    0    0  0.23869735637E+02 -0.44427743994E+02  0.29253205030E+02  0.13801065559E+03  0.12509037668E+03 0.  0.
          5    1    3    3  502    0  0.61108042475E+02 -0.40723857768E+01  0.49989692201E+02  0.79165768533E+02  0.41800000000E+01 0.  1.
         -5    1    3    3    0  502 -0.37238306838E+02 -0.40355358218E+02 -0.20736487172E+02  0.58844887061E+02  0.41800000000E+01 0.  1.
        -11    1    1    2    0    0  0.12875356811E+02 -0.23697974972E+02  0.87583792981E+01  0.28356269831E+02  0.00000000000E+00 0.  1.
         11    1    1    2    0    0 -0.36745092448E+02  0.68125718967E+02  0.39705212442E+02  0.86993214096E+02  0.00000000000E+00 0. -1.
</event>
<event>
 7    1  0.6473813E-006  0.1095291E+03  0.7561462E-02  0.1261444E+00
         -2   -1    0    0    0  501 -0.00000000000E+00  0.00000000000E+00  0.89627273534E+03  0.89627273534E+03  0.00000000000E+00 0.  1.
          2   -1    0    0  501    0  0.00000000000E+00 -0.00000000000E+00 -0.29204951224E+02  0.29204951224E+02  0.00000000000E+00 0. -1.
         23    2    1    2    0    0  0.25473561609E+02  0.77242169578E+02  0.71399516081E+03  0.72942786980E+03  0.12514260857E+03 0.  0.
          5    1    3    3  502    0  0.43816792946E+02  0.75625574457E+02  0.70115298052E+03  0.70659190014E+03  0.41800000000E+01 0. -1.
         -5    1    3    3    0  502 -0.18343231337E+02  0.16165951215E+01  0.12842180294E+02  0.22835969661E+02  0.41800000000E+01 0. -1.
        -11    1    1    2    0    0 -0.53589175494E+02 -0.45802550189E+02  0.13022442808E+03  0.14808131213E+03  0.00000000000E+00 0.  1.
         11    1    1    2    0    0  0.28115613885E+02 -0.31439619389E+02  0.22848195225E+02  0.47968504631E+02  0.00000000000E+00 0. -1.
</event>
<event>
 7    1  0.6473813E-006  0.1037798E+03  0.7561462E-02  0.1272543E+00
         -2   -1    0    0    0  501 -0.00000000000E+00  0.00000000000E+00  0.53545304433E+02  0.53545304433E+02  0.00000000000E+00 0.  1.
          2   -1    0    0  501    0  0.00000000000E+00 -0.00000000000E+00 -0.23421824913E+03  0.23421824913E+03  0.00000000000E+00 0. -1.
         23    2    1    2    0    0 -0.15336510971E+02 -0.19370548001E+02 -0.86711149382E+02  0.15419806058E+03  0.12509113382E+03 0.  0.
          5    1    3    3  502    0 -0.52354970241E+02 -0.44332217777E+02 -0.16165038049E+02  0.70605731333E+02  0.41800000000E+01 0. -1.
         -5    1    3    3    0  502  0.37018459270E+02  0.24961669777E+02 -0.70546111333E+02  0.83592329248E+02  0.41800000000E+01 0. -1.
        -11    1    1    2    0    0 -0.12447213357E+02 -0.32687717231E+02 -0.26135554469E+02  0.43663339148E+02  0.00000000000E+00 0.  1.
         11    1    1    2    0    0  0.27783724328E+02  0.52058265232E+02 -0.67826240843E+02  0.89902153830E+02  0.00000000000E+00 0. -1.
</event>
<event>
 7    1  0.6473813E-006  0.9310997E+02  0.7561462E-02  0.1295491E+00
          2   -1    0    0  501    0  0.00000000000E+00  0.00000000000E+00  0.38600650345E+03  0.38600650345E+03  0.00000000000E+00 0. -1.
         -2   -1    0    0    0  501 -0.00000000000E+00 -0.00000000000E+00 -0.36639304157E+02  0.36639304157E+02  0.00000000000E+00 0.  1.
         23    2    1    2    0    0 -0.23797220315E+02 -0.34795554065E+02  0.14774727631E+03  0.19812423671E+03  0.12508763823E+03 0.  0.
          5    1    3    3  502    0 -0.74249457715E+02 -0.30535946297E+02  0.79694685146E+02  0.11319956373E+03  0.41800000000E+01 0. -1.
         -5    1    3    3    0  502  0.50452237400E+02 -0.42596077671E+01  0.68052591162E+02  0.84924672981E+02  0.41800000000E+01 0. -1.
        -11    1    1    2    0    0  0.75471002730E+01  0.37758843313E+02  0.20420388610E+03  0.20780258918E+03  0.00000000000E+00 0. -1.
         11    1    1    2    0    0  0.16250120042E+02 -0.29632892488E+01 -0.25839631125E+01  0.16718981725E+02  0.00000000000E+00 0.  1.
</event>
<event>
 7    1  0.6473813E-006  0.9751106E+02  0.7561462E-02  0.1285619E+00
         -2   -1    0    0    0  501 -0.00000000000E+00  0.00000000000E+00  0.89335572455E+02  0.89335572455E+02  0.00000000000E+00 0.  1.
          2   -1    0    0  501    0  0.00000000000E+00 -0.00000000000E+00 -0.14984769649E+03  0.14984769649E+03  0.00000000000E+00 0. -1.
         23    2    1    2    0    0 -0.43214395860E+01  0.37389261985E+02 -0.33251092684E+02  0.13479430568E+03  0.12508892009E+03 0.  0.
          5    1    3    3  502    0 -0.20835632518E+02  0.77350131229E+02 -0.41902065920E+02  0.90500949784E+02  0.41800000000E+01 0. -1.
         -5    1    3    3    0  502  0.16514192932E+02 -0.39960869244E+02  0.86509732352E+01  0.44293355899E+02  0.41800000000E+01 0. -1.
        -11    1    1    2    0    0 -0.28075716383E+02 -0.13757181140E+02 -0.49490648773E+02  0.58539133913E+02  0.00000000000E+00 0.  1.
         11    1    1    2    0    0  0.32397155969E+02 -0.23632080845E+02  0.22229617427E+02  0.45849829344E+02  0.00000000000E+00 0. -1.
</event>
<event>
 7    1  0.6473813E-006  0.3737242E+03  0.7561462E-02  0.1053278E+00
         -2   -1    0    0    0  501 -0.00000000000E+00  0.00000000000E+00  0.66997985461E+03  0.66997985461E+03  0.00000000000E+00 0. -1.
          2   -1    0    0  501    0  0.00000000000E+00 -0.00000000000E+00 -0.26671663199E+03  0.26671663199E+03  0.00000000000E+00 0.  1.
         23    2    1    2    0    0 -0.35016650019E+03 -0.11354682331E+03  0.39947767010E+03  0.55744027574E+03  0.12509113945E+03 0.  0.
          5    1    3    3  502    0 -0.20842171418E+02 -0.71615966680E+01  0.91298504246E+02  0.94013689715E+02  0.41800000000E+01 0. -1.
         -5    1    3    3    0  502 -0.32932432877E+03 -0.10638522664E+03  0.30817916585E+03  0.46342658602E+03  0.41800000000E+01 0. -1.
        -11    1    1    2    0    0  0.21885427947E+03  0.24429583405E+02 -0.55650243562E+01  0.22028383890E+03  0.00000000000E+00 0. -1.
         11    1    1    2    0    0  0.13131222072E+03  0.89117239904E+02  0.93505768750E+01  0.15897237196E+03  0.00000000000E+00 0.  1.
</event>
<event>
 7    1  0.6473813E-006  0.1408249E+03  0.7561462E-02  0.1212223E+00
         -1   -1    0    0    0  501 -0.00000000000E+00  0.00000000000E+00  0.66162739464E+02  0.66162739464E+02  0.00000000000E+00 0.  1.
          1   -1    0    0  501    0  0.00000000000E+00 -0.00000000000E+00 -0.35611785582E+03  0.35611785582E+03  0.00000000000E+00 0. -1.
         23    2    1    2    0    0 -0.45105495867E+02 -0.94132532041E+02 -0.11419105254E+03  0.19895315453E+03  0.12508925562E+03 0.  0.
          5    1    3    3  502    0  0.36829357336E+02 -0.98603521189E+01 -0.53864202075E+01  0.38731305534E+02  0.41800000000E+01 0.  1.
         -5    1    3    3    0  502 -0.81934853203E+02 -0.84272179922E+02 -0.10880463234E+03  0.16022184900E+03  0.41800000000E+01 0.  1.
        -11    1    1    2    0    0  0.64186715844E+02  0.73384755231E+02 -0.16774717705E+03  0.19402157663E+03  0.00000000000E+00 0. -1.
         11    1    1    2    0    0 -0.19081219977E+02  0.20747776810E+02 -0.80168867610E+01  0.29305864118E+02  0.00000000000E+00 0.  1.
</event>
<event>
 7    1  0.6473813E-006  0.1225654E+03  0.7561462E-02  0.1238924E+00
         -2   -1    0    0    0  501 -0.00000000000E+00  0.00000000000E+00  0.16714931178E+03  0.16714931178E+03  0.00000000000E+00 0. -1.
          2   -1    0    0  501    0  0.00000000000E+00 -0.00000000000E+00 -0.11348185042E+03  0.11348185042E+03  0.00000000000E+00 0.  1.
         23    2    1    2    0    0 -0.12547317711E+01  0.84009921754E+02  0.44891097016E+02  0.15722669901E+03  0.12508310431E+03 0.  0.
          5    1    3    3  502    0 -0.26656214038E+02 -0.19460461838E+02 -0.13216000544E+02  0.35796625430E+02  0.41800000000E+01 0. -1.
         -5    1    3    3    0  502  0.25401482267E+02  0.10347038359E+03  0.58107097560E+02  0.12143007358E+03  0.41800000000E+01 0. -1.
        -11    1    1    2    0    0  0.32311518846E+02 -0.41684916057E+02 -0.27609092759E+02  0.59530903569E+02  0.00000000000E+00 0.  1.
         11    1    1    2    0    0 -0.31056787075E+02 -0.42325005697E+02  0.36385457108E+02  0.63873559628E+02  0.00000000000E+00 0. -1.
</event>
<event>
 7    1  0.6473813E-006  0.1214306E+03  0.7561462E-02  0.1240755E+00
         -2   -1    0    0    0  501 -0.00000000000E+00  0.00000000000E+00  0.37657640799E+02  0.37657640799E+02  0.00000000000E+00 0.  1.
          2   -1    0    0  501    0  0.00000000000E+00 -0.00000000000E+00 -0.53089053480E+03  0.53089053480E+03  0.00000000000E+00 0. -1.
         23    2    1    2    0    0  0.90791978816E+02 -0.17110727892E+02 -0.27869458260E+03  0.31914731276E+03  0.12509347083E+03 0.  0.
          5    1    3    3  502    0  0.99094437241E+02 -0.49856812063E+02 -0.25367881396E+03  0.27690399465E+03  0.41800000000E+01 0.  1.
         -5    1    3    3    0  502 -0.83024584251E+01  0.32746084171E+02 -0.25015768647E+02  0.42243318116E+02  0.41800000000E+01 0.  1.
        -11    1    1    2    0    0 -0.23062827764E+02 -0.96345625890E+01 -0.23961283644E+01  0.25108967559E+02  0.00000000000E+00 0.  1.
         11    1    1    2    0    0 -0.67729151052E+02  0.26745290481E+02 -0.21214218303E+03  0.22429189528E+03  0.00000000000E+00 0. -1.
</event>
<event>
 7    1  0.6473813E-006  0.1300127E+03  0.7561462E-02  0.1227437E+00
          2   -1    0    0  501    0  0.00000000000E+00  0.00000000000E+00  0.13233486278E+03  0.13233486278E+03  0.00000000000E+00 0. -1.
         -2   -1    0    0    0  501 -0.00000000000E+00 -0.00000000000E+00 -0.17429070099E+03  0.17429070099E+03  0.00000000000E+00 0.  1.
         23    2    1    2    0    0  0.87279138243E+02 -0.26125121160E+02 -0.75984308159E+02  0.17238104189E+03  0.12506573707E+03 0.  0.
          5    1    3    3  502    0  0.62233841282E+02  0.45731799813E+02 -0.48876680030E+02  0.91492353591E+02  0.41800000000E+01 0. -1.
         -5    1    3    3    0  502  0.25045296961E+02 -0.71856920973E+02 -0.27107628128E+02  0.80888688297E+02  0.41800000000E+01 0. -1.
        -11    1    1    2    0    0 -0.67603590290E+02 -0.69773769759E+01 -0.17248996070E+02  0.70117452000E+02  0.00000000000E+00 0.  1.
         11    1    1    2    0    0 -0.19675547953E+02  0.33102498136E+02  0.51277466019E+02  0.64127069880E+02  0.00000000000E+00 0. -1.
</event>
<event>
 7    1  0.6473813E-006  0.1233206E+03  0.7561462E-02  0.1237718E+00
         -1   -1    0    0    0  501 -0.00000000000E+00  0.00000000000E+00  0.20213991781E+02  0.20213991781E+02  0.00000000000E+00 0.  1.
          1   -1    0    0  501    0  0.00000000000E+00 -0.00000000000E+00 -0.81534669665E+03  0.81534669665E+03  0.00000000000E+00 0. -1.
         23    2    1    2    0    0  0.64057111881E+02 -0.36855660892E+01 -0.37048726932E+03  0.39626402788E+03  0.12508983205E+03 0.  0.
          5    1    3    3  502    0 -0.27523757523E+02  0.28347373966E+02 -0.15310784100E+03  0.15817905745E+03  0.41800000000E+01 0. -1.
         -5    1    3    3    0  502  0.91580869405E+02 -0.32032940056E+02 -0.21737942832E+03  0.23808497043E+03  0.41800000000E+01 0. -1.
        -11    1    1    2    0    0  0.11873474976E+02  0.27718750258E+02 -0.78151163198E+02  0.83767015186E+02  0.00000000000E+00 0.  1.
         11    1    1    2    0    0 -0.75930586858E+02 -0.24033184169E+02 -0.34649427235E+03  0.35552964537E+03  0.00000000000E+00 0. -1.
</event>
<event>
 7    1  0.6473813E-006  0.1605550E+03  0.7561462E-02  0.1188072E+00
         -2   -1    0    0    0  501 -0.00000000000E+00  0.00000000000E+00  0.58778182497E+02  0.58778182497E+02  0.00000000000E+00 0. -1.
          2   -1    0    0  501    0  0.00000000000E+00 -0.00000000000E+00 -0.64719170417E+03  0.64719170417E+03  0.00000000000E+00 0.  1.
         23    2    1    2    0    0  0.14045958360E+03  0.52046526416E+02 -0.19671238760E+03  0.27709419750E+03  0.12509074833E+03 0.  0.
          5    1    3    3  502    0  0.80722613508E+01  0.13007601080E+02  0.16614555156E+02  0.22975528986E+02  0.41800000000E+01 0. -1.
         -5    1    3    3    0  502  0.13238732225E+03  0.39038925336E+02 -0.21332694276E+03  0.25411866852E+03  0.41800000000E+01 0. -1.
        -11    1    1    2    0    0 -0.10349665829E+03 -0.21994994412E+00 -0.29913729839E+03  0.31653551135E+03  0.00000000000E+00 0.  1.
         11    1    1    2    0    0 -0.36962925303E+02 -0.51826576472E+02 -0.92563835676E+02  0.11234017781E+03  0.00000000000E+00 0. -1.
</event>
<event>
 7    1  0.6473813E-006  0.1091812E+03  0.7561462E-02  0.1262094E+00
         -3   -1    0    0    0  501 -0.00000000000E+00  0.00000000000E+00  0.44447870057E+03  0.44447870057E+03  0.00000000000E+00 0.  1.
          3   -1    0    0  501    0  0.00000000000E+00 -0.00000000000E+00 -0.32227242640E+02  0.32227242640E+02  0.00000000000E+00 0. -1.
         23    2    1    2    0    0 -0.37854745851E+02  0.25133804179E+02  0.27527336824E+03  0.30575797789E+03  0.12509126221E+03 0.  0.
          5    1    3    3  502    0  0.35905879699E+02 -0.11791243765E+02  0.15675003512E+03  0.16129572697E+03  0.41800000000E+01 0. -1.
         -5    1    3    3    0  502 -0.73760625550E+02  0.36925047944E+02  0.11852333312E+03  0.14446225092E+03  0.41800000000E+01 0. -1.
        -11    1    1    2    0    0  0.61298199661E+02  0.26976224533E+01  0.60077967232E+02  0.85872630071E+02  0.00000000000E+00 0. -1.
         11    1    1    2    0    0 -0.23443453810E+02 -0.27831426632E+02  0.76900122459E+02  0.85075335257E+02  0.00000000000E+00 0.  1.
</event>
<event>
 7    1  0.6473813E-006  0.1030732E+03  0.7561462E-02  0.1273963E+00
         -1   -1    0    0    0  501 -0.00000000000E+00  0.00000000000E+00  0.91459485651E+02  0.91459485651E+02  0.00000000000E+00 0.  1.
          1   -1    0    0  501    0  0.00000000000E+00 -0.00000000000E+00 -0.17882374692E+03  0.17882374692E+03  0.00000000000E+00 0. -1.
         23    2    1    2    0    0 -0.59162808194E+02  0.28622409931E+02 -0.23866392234E+02  0.14330627670E+03  0.12509038348E+03 0.  0.
          5    1    3    3  502    0 -0.81929350665E+02  0.59562012028E+02 -0.85381476685E+01  0.10173703427E+03  0.41800000000E+01 0. -1.
         -5    1    3    3    0  502  0.22766542471E+02 -0.30939602098E+02 -0.15328244565E+02  0.41569242422E+02  0.41800000000E+01 0. -1.
        -11    1    1    2    0    0  0.38581444596E+02 -0.22466563841E+02  0.13815292597E+02  0.46734747966E+02  0.00000000000E+00 0.  1.
         11    1    1    2    0    0  0.20581363598E+02 -0.61558460899E+01 -0.77313161630E+02  0.80242207907E+02  0.00000000000E+00 0. -1.
</event>
<event>
 7    1  0.6473813E-006  0.1375456E+03  0.7561462E-02  0.1216670E+00
          2   -1    0    0  501    0  0.00000000000E+00  0.00000000000E+00  0.29645979306E+03  0.29645979306E+03  0.00000000000E+00 0. -1.
         -2   -1    0    0    0  501 -0.00000000000E+00 -0.00000000000E+00 -0.76716523265E+02  0.76716523265E+02  0.00000000000E+00 0.  1.
         23    2    1    2    0    0 -0.60055711837E+02  0.79435050082E+02  0.89949090134E+02  0.18345315480E+03  0.12509038926E+03 0.  0.
          5    1    3    3  502    0  0.33680519194E+02 -0.40454912275E+01  0.22178367580E+02  0.40744272738E+02  0.41800000000E+01 0.  1.
         -5    1    3    3    0  502 -0.93736231031E+02  0.83480541309E+02  0.67770722554E+02  0.14270888207E+03  0.41800000000E+01 0.  1.
        -11    1    1    2    0    0  0.70322316537E+02 -0.56550464599E+02  0.44110098298E+02  0.10044343693E+03  0.00000000000E+00 0.  1.
         11    1    1    2    0    0 -0.10266604700E+02 -0.22884585483E+02  0.85684081358E+02  0.89279724591E+02  0.00000000000E+00 0. -1.
</event>
<event>
 7    1  0.6473813E-006  0.9711173E+02  0.7561462E-02  0.1286490E+00
         -1   -1    0    0    0  501 -0.00000000000E+00  0.00000000000E+00  0.39871608717E+03  0.39871608717E+03  0.00000000000E+00 0.  1.
          1   -1    0    0  501    0  0.00000000000E+00 -0.00000000000E+00 -0.33465523857E+02  0.33465523857E+02  0.00000000000E+00 0. -1.
         23    2    1    2    0    0  0.24347821284E+02 -0.20248525375E+02  0.23715095205E+03  0.26998351813E+03  0.12509079432E+03 0.  0.
          5    1    3    3  502    0 -0.83392711055E+01 -0.53451407819E+02  0.40134811871E+02  0.67489791556E+02  0.41800000000E+01 0. -1.
         -5    1    3    3    0  502  0.32687092390E+02  0.33202882443E+02  0.19701614018E+03  0.20249372658E+03  0.41800000000E+01 0. -1.
        -11    1    1    2    0    0 -0.57632526697E+02  0.11492196105E+02  0.10628472792E+03  0.12144966898E+03  0.00000000000E+00 0. -1.
         11    1    1    2    0    0  0.33284705413E+02  0.87563292705E+01  0.21814883341E+02  0.40748423919E+02  0.00000000000E+00 0.  1.
</event>
<event>
 7    1  0.6473813E-006  0.7964885E+02  0.7561462E-02  0.1330051E+00
          2   -1    0    0  501    0  0.00000000000E+00  0.00000000000E+00  0.36910547369E+02  0.36910547369E+02  0.00000000000E+00 0. -1.
         -2   -1    0    0    0  501 -0.00000000000E+00 -0.00000000000E+00 -0.43301350118E+03  0.43301350118E+03  0.00000000000E+00 0.  1.
         23    2    1    2    0    0  0.27761898979E+02  0.10314451634E+02 -0.32269726553E+03  0.34735867821E+03  0.12508962867E+03 0.  0.
          5    1    3    3  502    0  0.34869932195E+02 -0.13124537072E+02 -0.32019870858E+03  0.32238618305E+03  0.41800000000E+01 0.  1.
         -5    1    3    3    0  502 -0.71080332163E+01  0.23438988707E+02 -0.24985569505E+01  0.24972495162E+02  0.41800000000E+01 0.  1.
        -11    1    1    2    0    0 -0.55017241452E+02  0.17777134044E+02 -0.52956228165E+02  0.78404626479E+02  0.00000000000E+00 0. -1.
         11    1    1    2    0    0  0.27255342473E+02 -0.28091585678E+02 -0.20449460118E+02  0.44160743861E+02  0.00000000000E+00 0.  1.
</event>
<event>
 7    1  0.6473813E-006  0.1769620E+03  0.7561462E-02  0.1170776E+00
          1   -1    0    0  501    0  0.00000000000E+00  0.00000000000E+00  0.58791045379E+03  0.58791045379E+03  0.00000000000E+00 0. -1.
         -1   -1    0    0    0  501 -0.00000000000E+00 -0.00000000000E+00 -0.63830913232E+02  0.63830913232E+02  0.00000000000E+00 0.  1.
         23    2    1    2    0    0 -0.10122284490E+03  0.11669977480E+03  0.20289734586E+03  0.28403698723E+03  0.12507907654E+03 0.  0.
          5    1    3    3  502    0 -0.11766861744E+03  0.51678102680E+02  0.10898084521E+03  0.16855511517E+03  0.41800000000E+01 0.  1.
         -5    1    3    3    0  502  0.16445772540E+02  0.65021672120E+02  0.93916500656E+02  0.11548187206E+03  0.41800000000E+01 0.  1.
        -11    1    1    2    0    0  0.71387500553E+02 -0.10297392363E+03  0.30764493788E+03  0.33218249801E+03  0.00000000000E+00 0. -1.
         11    1    1    2    0    0  0.29835344350E+02 -0.13725851175E+02  0.13537256815E+02  0.35521881778E+02  0.00000000000E+00 0.  1.
</event>
<event>
 6    1  0.6473813E-006  0.1692243E+03  0.7561462E-02  0.1178659E+00
         -3   -1    0    0    0  501 -0.00000000000E+00  0.00000000000E+00  0.36292211340E+02  0.36292211340E+02  0.00000000000E+00 0.  1.
          3   -1    0    0  501    0  0.00000000000E+00 -0.00000000000E+00 -0.83860575849E+03  0.83860575849E+03  0.00000000000E+00 0. -1.
          5    1    1    2  502    0 -0.13276805616E+02 -0.14893575584E+03 -0.27190017643E+03  0.31033097054E+03  0.41800000000E+01 0. -1.
         -5    1    1    2    0  502 -0.12438611344E+02  0.40860293125E+02 -0.10198305377E+03  0.11064491973E+03  0.41800000000E+01 0.  1.
        -11    1    1    2    0    0 -0.35355675984E+02  0.27218072981E+02 -0.18375562761E+03  0.18909515594E+03  0.00000000000E+00 0. -1.
         11    1    1    2    0    0  0.61071092944E+02  0.80857389734E+02 -0.24467468934E+03  0.26482692362E+03  0.00000000000E+00 0.  1.
</event>
<event>
 7    1  0.6473813E-006  0.1035033E+03  0.7561462E-02  0.1273097E+00
         -1   -1    0    0    0  501 -0.00000000000E+00  0.00000000000E+00  0.82677478442E+02  0.82677478442E+02  0.00000000000E+00 0.  1.
          1   -1    0    0  501    0  0.00000000000E+00 -0.00000000000E+00 -0.14983516182E+03  0.14983516182E+03  0.00000000000E+00 0. -1.
         23    2    1    2    0    0  0.89065843591E+01  0.29339072753E+02 -0.26018329490E+02  0.13139458295E+03  0.12508986580E+03 0.  0.
          5    1    3    3  502    0  0.58756433240E+02  0.37457352577E+02 -0.37772562032E+02  0.79370085999E+02  0.41800000000E+01 0. -1.
         -5    1    3    3    0  502 -0.49849848881E+02 -0.81182798243E+01  0.11754232541E+02  0.52024496955E+02  0.41800000000E+01 0. -1.
        -11    1    1    2    0    0 -0.24375478720E+02  0.22041343864E+02 -0.33483429394E+02  0.46916146966E+02  0.00000000000E+00 0.  1.
         11    1    1    2    0    0  0.15468894361E+02 -0.51380416617E+02 -0.76559244884E+01  0.54201910337E+02  0.00000000000E+00 0. -1.
</event>
<event>
 7    1  0.6473813E-006  0.1096525E+03  0.7561462E-02  0.1261215E+00
          1   -1    0    0  501    0  0.00000000000E+00  0.00000000000E+00  0.45029290873E+03  0.45029290873E+03  0.00000000000E+00 0. -1.
         -1   -1    0    0    0  501 -0.00000000000E+00 -0.00000000000E+00 -0.35287576234E+02  0.35287576234E+02  0.00000000000E+00 0.  1.
         23    2    1    2    0    0  0.46237189664E+02  0.26877897834E+02  0.18858055465E+03  0.23253055264E+03  0.12509010040E+03 0.  0.
          5    1    3    3  502    0  0.36858825974E+02  0.73701773416E+02  0.85346799567E+02  0.11871003771E+03  0.41800000000E+01 0. -1.
         -5    1    3    3    0  502  0.93783636898E+01 -0.46823875582E+02  0.10323375508E+03  0.11382051493E+03  0.41800000000E+01 0. -1.
        -11    1    1    2    0    0 -0.52123506966E+02 -0.45586092412E+02  0.22252965915E+03  0.23305450221E+03  0.00000000000E+00 0. -1.
         11    1    1    2    0    0  0.58863173022E+01  0.18708194578E+02  0.38951186947E+01  0.19995430113E+02  0.00000000000E+00 0.  1.
</event>
<event>
 7    1  0.6473813E-006  0.1074406E+03  0.7561462E-02  0.1265384E+00
          2   -1    0    0  501    0  0.00000000000E+00  0.00000000000E+00  0.18996045245E+03  0.18996045245E+03  0.00000000000E+00 0. -1.
         -2   -1    0    0    0  501 -0.00000000000E+00 -0.00000000000E+00 -0.10889847189E+03  0.10889847189E+03  0.00000000000E+00 0.  1.
         23    2    1    2    0    0 -0.42944078367E+02  0.13578097242E+02 -0.49586098943E+02  0.13292867653E+03  0.11481591025E+03 0.  0.
          5    1    3    3  502    0 -0.72007712567E+01  0.58648508807E+02 -0.39242013838E+01  0.59366408418E+02  0.41800000000E+01 0. -1.
         -5    1    3    3    0  502 -0.35743307110E+02 -0.45070411565E+02 -0.45661897560E+02  0.73562268117E+02  0.41800000000E+01 0.  1.
        -11    1    1    2    0    0 -0.17101586966E+02  0.22238143293E+02  0.17945163702E+02  0.33302074923E+02  0.00000000000E+00 0.  1.
         11    1    1    2    0    0  0.60045665333E+02 -0.35816240535E+02  0.11270291580E+03  0.13262817288E+03  0.00000000000E+00 0. -1.
</event>
<event>
 7    1  0.6473813E-006  0.7794746E+02  0.7561462E-02  0.1334979E+00
         -1   -1    0    0    0  501 -0.00000000000E+00  0.00000000000E+00  0.22479504936E+02  0.22479504936E+02  0.00000000000E+00 0.  1.
          1   -1    0    0  501    0  0.00000000000E+00 -0.00000000000E+00 -0.52360123005E+03  0.52360123005E+03  0.00000000000E+00 0. -1.
         23    2    1    2    0    0  0.12457233563E+02  0.18030225294E+02 -0.29163450948E+03  0.31764730517E+03  0.12397117273E+03 0.  0.
          5    1    3    3  502    0 -0.40968735841E+02  0.17347100692E+02 -0.23677246418E+03  0.24095234262E+03  0.41800000000E+01 0. -1.
         -5    1    3    3    0  502  0.53425969404E+02  0.68312460192E+00 -0.54862045297E+02  0.76694962547E+02  0.41800000000E+01 0.  1.
        -11    1    1    2    0    0 -0.17261364286E+02 -0.35512349508E+02 -0.20627589902E+03  0.21002101842E+03  0.00000000000E+00 0.  1.
         11    1    1    2    0    0  0.48041307228E+01  0.17482124215E+02 -0.32113166208E+01  0.18412411398E+02  0.00000000000E+00 0. -1.
</event>
<event>
 7    1  0.6473813E-006  0.2649853E+03  0.7561462E-02  0.1104184E+00
          2   -1    0    0  501    0  0.00000000000E+00  0.00000000000E+00  0.14577587249E+04  0.14577587249E+04  0.00000000000E+00 0.  1.
         -2   -1    0    0    0  501 -0.00000000000E+00 -0.00000000000E+00 -0.51345957968E+02  0.51345957968E+02  0.00000000000E+00 0. -1.
         23    2    1    2    0    0  0.14275365875E+02  0.24305341341E+03  0.60214182075E+03  0.66143763167E+03  0.12508485297E+03 0.  0.
          5    1    3    3  502    0 -0.23904957707E+02  0.21287375627E+03  0.40323609535E+03  0.45662183928E+03  0.41800000000E+01 0.  1.
         -5    1    3    3    0  502  0.38180323581E+02  0.30179657137E+02  0.19890572540E+03  0.20481579239E+03  0.41800000000E+01 0.  1.
        -11    1    1    2    0    0  0.47867379461E+02 -0.97940830801E+02  0.36266318091E+03  0.37869285066E+03  0.00000000000E+00 0.  1.
         11    1    1    2    0    0 -0.62142745336E+02 -0.14511258261E+03  0.44160776530E+03  0.46897420057E+03  0.00000000000E+00 0. -1.
</event>
<event>
 6    1  0.6473813E-006  0.1555724E+03  0.7561462E-02  0.1193788E+00
          2   -1    0    0  501    0  0.00000000000E+00  0.00000000000E+00  0.14535086984E+03  0.14535086984E+03  0.00000000000E+00 0. -1.
         -2   -1    0    0    0  501 -0.00000000000E+00 -0.00000000000E+00 -0.21704481280E+03  0.21704481280E+03  0.00000000000E+00 0.  1.
          5    1    1    2  502    0 -0.11046101368E+03 -0.57635425789E+00 -0.30921058074E+02  0.11478480718E+03  0.41800000000E+01 0. -1.
         -5    1    1    2    0  502  0.23248584034E+02  0.57152713745E+02 -0.81831080912E+02  0.10257059789E+03  0.41800000000E+01 0.  1.
        -11    1    1    2    0    0 -0.11244496957E+02 -0.36613347510E+02  0.68054124177E+01  0.38901022685E+02  0.00000000000E+00 0. -1.
         11    1    1    2    0    0  0.98456926603E+02 -0.19963011977E+02  0.34252783611E+02  0.10613925489E+03  0.00000000000E+00 0.  1.
</event>
<event>
 7    1  0.6473813E-006  0.7315440E+02  0.7561462E-02  0.1349683E+00
          1   -1    0    0  501    0  0.00000000000E+00  0.00000000000E+00  0.23139693546E+03  0.23139693546E+03  0.00000000000E+00 0. -1.
         -1   -1    0    0    0  501 -0.00000000000E+00 -0.00000000000E+00 -0.64403912457E+02  0.64403912457E+02  0.00000000000E+00 0.  1.
         23    2    1    2    0    0  0.29213441925E+01  0.23793089686E+02  0.34180952639E+02  0.13186978967E+03  0.12508660414E+03 0.  0.
          5    1    3    3  502    0 -0.14320384986E+01 -0.31231241031E+02  0.62265109389E+02  0.69798691949E+02  0.41800000000E+01 0.  1.
         -5    1    3    3    0  502  0.43533826910E+01  0.55024330717E+02 -0.28084156750E+02  0.62071097719E+02  0.41800000000E+01 0.  1.
        -11    1    1    2    0    0  0.25225617665E+02 -0.17115612290E+02  0.26566001914E+01  0.30599566912E+02  0.00000000000E+00 0.  1.
         11    1    1    2    0    0 -0.28146961858E+02 -0.66774773964E+01  0.13015547017E+03  0.13333149134E+03  0.00000000000E+00 0. -1.
</event>
<event>
 7    1  0.7599158E-006  0.2672633E+03  0.7561462E-02  0.1102856E+00
          3   -1    0    0  501    0  0.00000000000E+00  0.00000000000E+00  0.14694140221E+03  0.14694140221E+03  0.00000000000E+00 0. -1.
         -3   -1    0    0    0  501 -0.00000000000E+00 -0.00000000000E+00 -0.52882166875E+03  0.52882166875E+03  0.00000000000E+00 0.  1.
         23    2    1    2    0    0  0.23354189839E+03  0.10333349536E+03 -0.21404512616E+03  0.35592448981E+03  0.12508915557E+03 0.  0.
          5    1    3    3  502    0  0.47465947783E+02  0.49542220164E+02 -0.20959168510E+01  0.68770001055E+02  0.41800000000E+01 0.  1.
         -5    1    3    3    0  502  0.18607595061E+03  0.53791275195E+02 -0.21194920931E+03  0.28715448875E+03  0.41800000000E+01 0.  1.
        -11    1    1    2    0    0 -0.68840881479E+02 -0.80260002056E+02 -0.59049056103E+02  0.12110956164E+03  0.00000000000E+00 0. -1.
         11    1    1    2    0    0 -0.16470101691E+03 -0.23073493304E+02 -0.10878608427E+03  0.19872901952E+03  0.00000000000E+00 0.  1.
</event>
<event>
 7    1  0.6473813E-006  0.1283559E+03  0.7561462E-02  0.1229916E+00
          1   -1    0    0  501    0  0.00000000000E+00  0.00000000000E+00  0.13949817881E+03  0.13949817881E+03  0.00000000000E+00 0. -1.
         -1   -1    0    0    0  501 -0.00000000000E+00 -0.00000000000E+00 -0.13070525467E+03  0.13070525467E+03  0.00000000000E+00 0.  1.
         23    2    1    2    0    0  0.77843684255E+02  0.16547632427E+02  0.11606298127E+02  0.14873091164E+03  0.12511080930E+03 0.  0.
          5    1    3    3  502    0  0.10968856199E+03  0.12389786405E+02  0.25693155414E+02  0.11341383546E+03  0.41800000000E+01 0. -1.
         -5    1    3    3    0  502 -0.31844877738E+02  0.41578460225E+01 -0.14086857287E+02  0.35317076181E+02  0.41800000000E+01 0. -1.
        -11    1    1    2    0    0 -0.38737282756E+02 -0.49406449980E+02  0.19489052711E+02  0.65737337568E+02  0.00000000000E+00 0. -1.
         11    1    1    2    0    0 -0.39106401499E+02  0.32858817553E+02 -0.22302426692E+02  0.55735184269E+02  0.00000000000E+00 0.  1.
</event>
<event>
 7    1  0.6473813E-006  0.1678585E+03  0.7561462E-02  0.1180100E+00
         -4   -1    0    0    0  501 -0.00000000000E+00  0.00000000000E+00  0.25470114948E+02  0.25470114948E+02  0.00000000000E+00 0.  1.
          4   -1    0    0  501    0  0.00000000000E+00 -0.00000000000E+00 -0.11773735053E+04  0.11773735053E+04  0.00000000000E+00 0. -1.
         23    2    1    2    0    0 -0.12114155093E+03 -0.52681604910E+02 -0.50981579849E+03  0.54130390188E+03  0.12508852442E+03 0.  0.
          5    1    3    3  502    0  0.21605911544E+02 -0.25151102705E+02 -0.61587518634E+02  0.70070594635E+02  0.41800000000E+01 0. -1.
         -5    1    3    3    0  502 -0.14274746247E+03 -0.27530502205E+02 -0.44822827986E+03  0.47123330724E+03  0.41800000000E+01 0. -1.
        -11    1    1    2    0    0  0.11651587525E+03  0.13374369624E+02 -0.42558512695E+03  0.44144934390E+03  0.00000000000E+00 0.  1.
         11    1    1    2    0    0  0.46256756751E+01  0.39307235286E+02 -0.21650246494E+03  0.22009037449E+03  0.00000000000E+00 0. -1.
</event>
<event>
 7    1  0.6473813E-006  0.1996522E+03  0.7561462E-02  0.1150033E+00
         -3   -1    0    0    0  501 -0.00000000000E+00  0.00000000000E+00  0.23900911775E+03  0.23900911775E+03  0.00000000000E+00 0.  1.
          3   -1    0    0  501    0  0.00000000000E+00 -0.00000000000E+00 -0.17167674335E+03  0.17167674335E+03  0.00000000000E+00 0. -1.
         23    2    1    2    0    0 -0.17115937338E+03  0.67328259916E+01  0.34704423348E+02  0.21492671337E+03  0.12509289780E+03 0.  0.
          5    1    3    3  502    0 -0.20463556464E+02  0.48724841541E+02 -0.56545530684E+01  0.53313353831E+02  0.41800000000E+01 0.  1.
         -5    1    3    3    0  502 -0.15069581691E+03 -0.41992015549E+02  0.40358976416E+02  0.16161335954E+03  0.41800000000E+01 0.  1.
        -11    1    1    2    0    0  0.20437630354E+02 -0.31005322633E+02  0.20979586295E+02  0.42651726895E+02  0.00000000000E+00 0. -1.
         11    1    1    2    0    0  0.15072174302E+03  0.24272496641E+02  0.11648364767E+02  0.15310742083E+03  0.00000000000E+00 0.  1.
</event>
<event>
 6    1  0.6473813E-006  0.1537066E+03  0.7561462E-02  0.1195991E+00
          2   -1    0    0  501    0  0.00000000000E+00  0.00000000000E+00  0.11688166362E+03  0.11688166362E+03  0.00000000000E+00 0. -1.
         -2   -1    0    0    0  501 -0.00000000000E+00 -0.00000000000E+00 -0.47396562030E+03  0.47396562030E+03  0.00000000000E+00 0.  1.
          5    1    1    2  502    0  0.13233061792E+03  0.45681218698E+02 -0.38280270932E+03  0.40761937251E+03  0.41800000000E+01 0. -1.
         -5    1    1    2    0  502  0.35948061535E+01 -0.18650895667E+02  0.12839353495E+01  0.19491008964E+02  0.41800000000E+01 0.  1.
        -11    1    1    2    0    0 -0.45975598316E+02  0.15356207880E+02  0.40307380362E+02  0.63041682026E+02  0.00000000000E+00 0. -1.
         11    1    1    2    0    0 -0.89949825754E+02 -0.42386530911E+02 -0.15872563065E+02  0.10069522041E+03  0.00000000000E+00 0.  1.
</event>
<event>
 7    1  0.6473813E-006  0.1054342E+03  0.7561462E-02  0.1269266E+00
          1   -1    0    0  501    0  0.00000000000E+00  0.00000000000E+00  0.52016844474E+03  0.52016844474E+03  0.00000000000E+00 0. -1.
         -1   -1    0    0    0  501 -0.00000000000E+00 -0.00000000000E+00 -0.23586842358E+02  0.23586842358E+02  0.00000000000E+00 0.  1.
         23    2    1    2    0    0  0.19208154181E+02  0.14217290083E+02  0.27819681560E+03  0.30596084831E+03  0.12508991950E+03 0.  0.
          5    1    3    3  502    0 -0.37006236161E+02  0.42257172576E+02  0.78801457167E+02  0.96862129858E+02  0.41800000000E+01 0. -1.
         -5    1    3    3    0  502  0.56214390341E+02 -0.28039882493E+02  0.19939535844E+03  0.20909871845E+03  0.41800000000E+01 0. -1.
        -11    1    1    2    0    0 -0.53176147719E+02 -0.20590587642E+02  0.16106791431E+03  0.17086412147E+03  0.00000000000E+00 0. -1.
         11    1    1    2    0    0  0.33967993539E+02  0.63732975584E+01  0.57316872473E+02  0.66930317323E+02  0.00000000000E+00 0.  1.
</event>
<event>
 7    1  0.6473813E-006  0.7436721E+02  0.7561462E-02  0.1345842E+00
         -1   -1    0    0    0  501 -0.00000000000E+00  0.00000000000E+00  0.18911584499E+02  0.18911584499E+02  0.00000000000E+00 0.  1.
          1   -1    0    0  501    0  0.00000000000E+00 -0.00000000000E+00 -0.67774494642E+03  0.67774494642E+03  0.00000000000E+00 0. -1.
         23    2    1    2    0    0 -0.31140774785E+02 -0.81158766322E+01 -0.36477545686E+03  0.38698233842E+03  0.12513425195E+03 0.  0.
          5    1    3    3  502    0 -0.41574511961E+01 -0.24726553893E+02 -0.35142859605E+03  0.35234672893E+03  0.41800000000E+01 0. -1.
         -5    1    3    3    0  502 -0.26983323589E+02  0.16610677261E+02 -0.13346860811E+02  0.34635609486E+02  0.41800000000E+01 0. -1.
        -11    1    1    2    0    0  0.30190011084E+02 -0.36138437599E+02 -0.20349716595E+03  0.20887441201E+03  0.00000000000E+00 0.  1.
         11    1    1    2    0    0  0.95076370040E+00  0.44254314231E+02 -0.90560739110E+02  0.10079978050E+03  0.00000000000E+00 0. -1.
</event>
<event>
 7    1  0.6473813E-006  0.1569844E+03  0.7561462E-02  0.1192144E+00
         -1   -1    0    0    0  501 -0.00000000000E+00  0.00000000000E+00  0.32947417010E+03  0.32947417010E+03  0.00000000000E+00 0.  1.
          1   -1    0    0  501    0  0.00000000000E+00 -0.00000000000E+00 -0.10578323060E+03  0.10578323060E+03  0.00000000000E+00 0. -1.
         23    2    1    2    0    0  0.13936440662E+03 -0.80307322461E+01  0.18380009302E+03  0.26252150232E+03  0.12509250375E+03 0.  0.
          5    1    3    3  502    0  0.10469991799E+03 -0.36786189200E+02  0.18666139662E+03  0.21719863243E+03  0.41800000000E+01 0. -1.
         -5    1    3    3    0  502  0.34664488627E+02  0.28755456954E+02 -0.28613036013E+01  0.45322869886E+02  0.41800000000E+01 0. -1.
        -11    1    1    2    0    0 -0.12479649626E+03 -0.19716358403E+02  0.58699356993E+01  0.12648065628E+03  0.00000000000E+00 0. -1.
         11    1    1    2    0    0 -0.14567910353E+02  0.27747090649E+02  0.34020910786E+02  0.46255242105E+02  0.00000000000E+00 0.  1.
</event>
<event>
 7    1  0.6473813E-006  0.1051641E+03  0.7561462E-02  0.1269797E+00
         -2   -1    0    0    0  501 -0.00000000000E+00  0.00000000000E+00  0.58540637409E+02  0.58540637409E+02  0.00000000000E+00 0.  1.
          2   -1    0    0  501    0  0.00000000000E+00 -0.00000000000E+00 -0.26279524389E+03  0.26279524389E+03  0.00000000000E+00 0. -1.
         23    2    1    2    0    0  0.55227358740E+02 -0.22580339142E+01 -0.10392478146E+03  0.17176420225E+03  0.12508965227E+03 0.  0.
          5    1    3    3  502    0  0.42428832265E+02  0.48915186019E+02 -0.99336031182E+02  0.11865083532E+03  0.41800000000E+01 0.  1.
         -5    1    3    3    0  502  0.12798526475E+02 -0.51173219933E+02 -0.45887502755E+01  0.53113366936E+02  0.41800000000E+01 0.  1.
        -11    1    1    2    0    0 -0.21197333069E+02 -0.35717562811E+02 -0.87701333999E+02  0.97039142657E+02  0.00000000000E+00 0. -1.
         11    1    1    2    0    0 -0.34030025671E+02  0.37975596725E+02 -0.12628491024E+02  0.52532536388E+02  0.00000000000E+00 0.  1.
</event>
<event>
 7    1  0.6473813E-006  0.1235374E+03  0.7561462E-02  0.1237373E+00
         -1   -1    0    0    0  501 -0.00000000000E+00  0.00000000000E+00  0.18367206866E+03  0.18367206866E+03  0.00000000000E+00 0.  1.
          1   -1    0    0  501    0  0.00000000000E+00 -0.00000000000E+00 -0.96209216720E+02  0.96209216720E+02  0.00000000000E+00 0. -1.
         23    2    1    2    0    0 -0.65147829945E+01  0.74738507629E+02  0.72501964245E+02  0.16288825110E+03  0.12509100930E+03 0.  0.
          5    1    3    3  502    0  0.18420086422E+02  0.10261721374E+03  0.35779614173E+02  0.11030523709E+03  0.41800000000E+01 0. -1.
         -5    1    3    3    0  502 -0.24934869416E+02 -0.27878706111E+02  0.36722350072E+02  0.52583014007E+02  0.41800000000E+01 0. -1.
        -11    1    1    2    0    0  0.38255779865E+02 -0.57257326597E+02 -0.14404280412E+02  0.70351897176E+02  0.00000000000E+00 0. -1.
         11    1    1    2    0    0 -0.31740996870E+02 -0.17481181033E+02  0.29365168108E+02  0.46641137107E+02  0.00000000000E+00 0.  1.
</event>
<event>
 7    1  0.6473813E-006  0.1489461E+03  0.7561462E-02  0.1201774E+00
          1   -1    0    0  501    0  0.00000000000E+00  0.00000000000E+00  0.76207446949E+03  0.76207446949E+03  0.00000000000E+00 0. -1.
         -1   -1    0    0    0  501 -0.00000000000E+00 -0.00000000000E+00 -0.37430647639E+02  0.37430647639E+02  0.00000000000E+00 0.  1.
         23    2    1    2    0    0  0.11971311045E+03  0.26678957122E+02  0.28341182212E+03  0.33318534555E+03  0.12508884045E+03 0.  0.
          5    1    3    3  502    0  0.79127832916E+02 -0.42628096608E+02  0.18783350519E+03  0.20827209759E+03  0.41800000000E+01 0.  1.
         -5    1    3    3    0  502  0.40585277535E+02  0.69307053730E+02  0.95578316933E+02  0.12491324796E+03  0.41800000000E+01 0.  1.
        -11    1    1    2    0    0 -0.50083143174E+02 -0.28903897691E+02  0.81655736585E+02  0.10005706296E+03  0.00000000000E+00 0.  1.
         11    1    1    2    0    0 -0.69629967276E+02  0.22249405688E+01  0.35957626314E+03  0.36626270861E+03  0.00000000000E+00 0. -1.
</event>
<event>
 7    1  0.6473813E-006  0.1203231E+03  0.7561462E-02  0.1242565E+00
         -2   -1    0    0    0  501 -0.00000000000E+00  0.00000000000E+00  0.21546352080E+02  0.21546352080E+02  0.00000000000E+00 0. -1.
          2   -1    0    0  501    0  0.00000000000E+00 -0.00000000000E+00 -0.86995429232E+03  0.86995429232E+03  0.00000000000E+00 0.  1.
         23    2    1    2    0    0  0.52914272213E+02  0.62856399416E+02 -0.41300625775E+03  0.43928618415E+03  0.12508931009E+03 0.  0.
          5    1    3    3  502    0 -0.26376619611E+02  0.52684124137E+02 -0.99405843006E+02  0.11563017349E+03  0.41800000000E+01 0.  1.
         -5    1    3    3    0  502  0.79290891824E+02  0.10172275279E+02 -0.31360041474E+03  0.32365601066E+03  0.41800000000E+01 0.  1.
        -11    1    1    2    0    0 -0.61833300616E+02 -0.67445154599E+02 -0.43205963685E+03  0.44164209009E+03  0.00000000000E+00 0.  1.
         11    1    1    2    0    0  0.89190284037E+01  0.45887551826E+01 -0.33420456530E+01  0.10572370167E+02  0.00000000000E+00 0. -1.
</event>
<event>
 7    1  0.6473813E-006  0.2603085E+03  0.7561462E-02  0.1106958E+00
         -1   -1    0    0    0  501 -0.00000000000E+00  0.00000000000E+00  0.31684305961E+03  0.31684305961E+03  0.00000000000E+00 0.  1.
          1   -1    0    0  501    0  0.00000000000E+00 -0.00000000000E+00 -0.31075133070E+03  0.31075133070E+03  0.00000000000E+00 0. -1.
         23    2    1    2    0    0  0.24563402838E+01  0.24834690708E+03  0.15931316222E+03  0.32048642228E+03  0.12509453763E+03 0.  0.
          5    1    3    3  502    0  0.36405403425E+02  0.23054437430E+03  0.11047472354E+03  0.25825994436E+03  0.41800000000E+01 0.  1.
         -5    1    3    3    0  502 -0.33949063141E+02  0.17802532781E+02  0.48838438677E+02  0.62226477917E+02  0.41800000000E+01 0.  1.
        -11    1    1    2    0    0 -0.65675131161E+01 -0.19581609606E+03 -0.68920969362E+02  0.20769491020E+03  0.00000000000E+00 0.  1.
         11    1    1    2    0    0  0.41111728323E+01 -0.52530811023E+02 -0.84300463940E+02  0.99413057841E+02  0.00000000000E+00 0. -1.
</event>
<event>
 7    1  0.6473813E-006  0.1662843E+03  0.7561462E-02  0.1181779E+00
          1   -1    0    0  501    0  0.00000000000E+00  0.00000000000E+00  0.58314902059E+03  0.58314902059E+03  0.00000000000E+00 0. -1.
         -1   -1    0    0    0  501 -0.00000000000E+00 -0.00000000000E+00 -0.51241243286E+02  0.51241243286E+02  0.00000000000E+00 0.  1.
         23    2    1    2    0    0  0.67020693597E+02 -0.11589770764E+03  0.26617586267E+03  0.32314242553E+03  0.12508950917E+03 0.  0.
          5    1    3    3  502    0 -0.24412391406E+02 -0.13709875936E+01  0.76826106719E+01  0.25968045130E+02  0.41800000000E+01 0.  1.
         -5    1    3    3    0  502  0.91433085004E+02 -0.11452672005E+03  0.25849325200E+03  0.29717438040E+03  0.41800000000E+01 0.  1.
        -11    1    1    2    0    0 -0.18217212980E+01  0.91535161271E+02  0.16698698037E+03  0.19043806351E+03  0.00000000000E+00 0.  1.
         11    1    1    2    0    0 -0.65198972299E+02  0.24362546370E+02  0.98744934258E+02  0.12080977484E+03  0.00000000000E+00 0. -1.
</event>
<event>
 7    1  0.6473813E-006  0.1320851E+03  0.7561462E-02  0.1224394E+00
         -2   -1    0    0    0  501 -0.00000000000E+00  0.00000000000E+00  0.23874219877E+03  0.23874219877E+03  0.00000000000E+00 0.  1.
          2   -1    0    0  501    0  0.00000000000E+00 -0.00000000000E+00 -0.99880252564E+02  0.99880252564E+02  0.00000000000E+00 0. -1.
         23    2    1    2    0    0  0.77075986632E+02 -0.22339965735E+02  0.15363927149E+03  0.21376263664E+03  0.12509859029E+03 0.  0.
          5    1    3    3  502    0  0.52791857733E+02 -0.70317510066E+02  0.12444705991E+03  0.15243384003E+03  0.41800000000E+01 0. -1.
         -5    1    3    3    0  502  0.24284128899E+02  0.47977544332E+02  0.29192211576E+02  0.61328796606E+02  0.41800000000E+01 0. -1.
        -11    1    1    2    0    0 -0.38704069610E+02  0.58062499306E+02  0.20174149029E+01  0.69809231430E+02  0.00000000000E+00 0.  1.
         11    1    1    2    0    0 -0.38371917022E+02 -0.35722533571E+02 -0.16794740185E+02  0.55050583271E+02  0.00000000000E+00 0. -1.
</event>
<event>
 6    1  0.6473813E-006  0.1625807E+03  0.7561462E-02  0.1185814E+00
         -1   -1    0    0    0  501 -0.00000000000E+00  0.00000000000E+00  0.65614147930E+03  0.65614147930E+03  0.00000000000E+00 0.  1.
          1   -1    0    0  501    0  0.00000000000E+00 -0.00000000000E+00 -0.58019289878E+02  0.58019289878E+02  0.00000000000E+00 0. -1.
          5    1    1    2  502    0  0.53975670210E+02  0.12104903255E+03  0.18579243857E+03  0.22825981663E+03  0.41800000000E+01 0. -1.
         -5    1    1    2    0  502 -0.32235561379E+02 -0.12660319971E+03  0.34534324981E+03  0.36925185738E+03  0.41800000000E+01 0.  1.
        -11    1    1    2    0    0 -0.41092512095E+02 -0.18344004118E+01 -0.52812402927E+01  0.41471087208E+02  0.00000000000E+00 0. -1.
         11    1    1    2    0    0  0.19352403265E+02  0.73885675645E+01  0.72267741339E+02  0.75178007961E+02  0.00000000000E+00 0.  1.
</event>
<event>
 7    1  0.6473813E-006  0.5916942E+02  0.7561462E-02  0.1401351E+00
          2   -1    0    0  501    0  0.00000000000E+00  0.00000000000E+00  0.39767531377E+02  0.39767531377E+02  0.00000000000E+00 0. -1.
         -2   -1    0    0    0  501 -0.00000000000E+00 -0.00000000000E+00 -0.37648275273E+03  0.37648275273E+03  0.00000000000E+00 0.  1.
         23    2    1    2    0    0  0.24576975488E+02  0.92922662723E+01 -0.26606977434E+03  0.29517809514E+03  0.12508640652E+03 0.  0.
          5    1    3    3  502    0 -0.16089830826E+02  0.20236257651E+02 -0.24763624143E+03  0.24901720674E+03  0.41800000000E+01 0.  1.
         -5    1    3    3    0  502  0.40666806313E+02 -0.10943991379E+02 -0.18433532910E+02  0.46160888407E+02  0.41800000000E+01 0.  1.
        -11    1    1    2    0    0 -0.17107190348E+02  0.16020470482E+02  0.17378132677E+02  0.29177233101E+02  0.00000000000E+00 0. -1.
         11    1    1    2    0    0 -0.74697851393E+01 -0.25312736755E+02 -0.88023579689E+02  0.91894955865E+02  0.00000000000E+00 0.  1.
</event>
<event>
 7    1  0.6473813E-006  0.1026355E+03  0.7561462E-02  0.1274850E+00
          2   -1    0    0  501    0  0.00000000000E+00  0.00000000000E+00  0.26357788586E+03  0.26357788586E+03  0.00000000000E+00 0. -1.
         -2   -1    0    0    0  501 -0.00000000000E+00 -0.00000000000E+00 -0.46937959232E+02  0.46937959232E+02  0.00000000000E+00 0.  1.
         23    2    1    2    0    0  0.14443489500E+02 -0.61813769773E+01  0.99298377265E+02  0.16048062890E+03  0.12508813178E+03 0.  0.
          5    1    3    3  502    0 -0.14518947373E+02  0.55603301572E+02  0.42444284702E+02  0.71564772636E+02  0.41800000000E+01 0. -1.
         -5    1    3    3    0  502  0.28962436873E+02 -0.61784678550E+02  0.56854092564E+02  0.88915856259E+02  0.41800000000E+01 0. -1.
        -11    1    1    2    0    0  0.32273654592E+02  0.39845373167E+01  0.11796448786E+02  0.34592217656E+02  0.00000000000E+00 0.  1.
         11    1    1    2    0    0 -0.46717144092E+02  0.21968396606E+01  0.10554510058E+03  0.11544299854E+03  0.00000000000E+00 0. -1.
</event>
<event>
 7    1  0.6473813E-006  0.1368058E+03  0.7561462E-02  0.1217693E+00
          4   -1    0    0  501    0  0.00000000000E+00  0.00000000000E+00  0.18914150902E+03  0.18914150902E+03  0.00000000000E+00 0. -1.
         -4   -1    0    0    0  501 -0.00000000000E+00 -0.00000000000E+00 -0.14994313202E+03  0.14994313202E+03  0.00000000000E+00 0.  1.
         23    2    1    2    0    0 -0.12525183261E+03 -0.71160664783E+01 -0.19454397811E+02  0.17549312573E+03  0.12116395343E+03 0.  0.
          5    1    3    3  502    0 -0.51709152124E+02 -0.24897953341E+02  0.47313870527E+02  0.74497108925E+02  0.41800000000E+01 0. -1.
         -5    1    3    3    0  502 -0.73542680486E+02  0.17781886862E+02 -0.66768268338E+02  0.10099601680E+03  0.41800000000E+01 0.  1.
        -11    1    1    2    0    0  0.79858673448E+02  0.34811343528E+02  0.66822229548E+02  0.10979274896E+03  0.00000000000E+00 0.  1.
         11    1    1    2    0    0  0.45393159162E+02 -0.27695277050E+02 -0.81694547344E+01  0.53798766345E+02  0.00000000000E+00 0. -1.
</event>
<event>
 7    1  0.1934932E-005  0.2489012E+03  0.7561462E-02  0.1114001E+00
         -2   -1    0    0    0  501 -0.00000000000E+00  0.00000000000E+00  0.46075766219E+02  0.46075766219E+02  0.00000000000E+00 0.  1.
          2   -1    0    0  501    0  0.00000000000E+00 -0.00000000000E+00 -0.15839308460E+04  0.15839308460E+04  0.00000000000E+00 0. -1.
         23    2    1    2    0    0 -0.23355366606E+03 -0.63358205847E+02 -0.63702087134E+03  0.69282391486E+03  0.12509120392E+03 0.  0.
          5    1    3    3  502    0 -0.84293311090E+01 -0.25891531793E+02 -0.17615254889E+02  0.32698541961E+02  0.41800000000E+01 0.  1.
         -5    1    3    3    0  502 -0.22512433495E+03 -0.37466674053E+02 -0.61940561645E+03  0.66012537290E+03  0.41800000000E+01 0.  1.
        -11    1    1    2    0    0  0.88565850540E+02  0.24222381846E+02 -0.19481709277E+03  0.21537022380E+03  0.00000000000E+00 0.  1.
         11    1    1    2    0    0  0.14498781552E+03  0.39135824001E+02 -0.70601711564E+03  0.72181247353E+03  0.00000000000E+00 0. -1.
</event>
<event>
 6    1  0.6473813E-006  0.7159777E+02  0.7561462E-02  0.1354743E+00
         -1   -1    0    0    0  501 -0.00000000000E+00  0.00000000000E+00  0.55820157112E+02  0.55820157112E+02  0.00000000000E+00 0.  1.
          1   -1    0    0  501    0  0.00000000000E+00 -0.00000000000E+00 -0.29817743830E+03  0.29817743830E+03  0.00000000000E+00 0. -1.
          5    1    1    2  502    0  0.72723949396E+01 -0.29509534760E+02 -0.13475752850E+03  0.13820551457E+03  0.41800000000E+01 0. -1.
         -5    1    1    2    0  502 -0.20720675013E+02 -0.56161502059E+01  0.35406809996E+02  0.41617329446E+02  0.41800000000E+01 0.  1.
        -11    1    1    2    0    0  0.46079813323E+02  0.52048331683E+01 -0.37101632515E+02  0.59388303726E+02  0.00000000000E+00 0. -1.
         11    1    1    2    0    0 -0.32631533249E+02  0.29920851798E+02 -0.10590493017E+03  0.11478644767E+03  0.00000000000E+00 0.  1.
</event>
<event>
 7    1  0.6473813E-006  0.9305749E+02  0.7561462E-02  0.1295612E+00
          1   -1    0    0  501    0  0.00000000000E+00  0.00000000000E+00  0.54132223936E+03  0.54132223936E+03  0.00000000000E+00 0. -1.
         -1   -1    0    0    0  501 -0.00000000000E+00 -0.00000000000E+00 -0.22099385346E+02  0.22099385346E+02  0.00000000000E+00 0.  1.
         23    2    1    2    0    0 -0.85861682267E+01  0.12008660231E+02  0.31347391686E+03  0.33783269848E+03  0.12508839038E+03 0.  0.
          5    1    3    3  502    0  0.43647391469E+02  0.35205241229E+02  0.22866957302E+03  0.23548195221E+03  0.41800000000E+01 0. -1.
         -5    1    3    3    0  502 -0.52233559695E+02 -0.23196580998E+02  0.84804343837E+02  0.10235074627E+03  0.41800000000E+01 0. -1.
        -11    1    1    2    0    0  0.54638397379E+01  0.29979897735E+02  0.23343462205E+02  0.38387042613E+02  0.00000000000E+00 0.  1.
         11    1    1    2    0    0  0.31223284888E+01 -0.41988557966E+02  0.18240547495E+03  0.18720188361E+03  0.00000000000E+00 0. -1.
</event>
<event>
 7    1  0.6473813E-006  0.1417318E+03  0.7561462E-02  0.1211018E+00
         -2   -1    0    0    0  501 -0.00000000000E+00  0.00000000000E+00  0.11473738182E+03  0.11473738182E+03  0.00000000000E+00 0.  1.
          2   -1    0    0  501    0  0.00000000000E+00 -0.00000000000E+00 -0.27505300653E+03  0.27505300653E+03  0.00000000000E+00 0. -1.
         23    2    1    2    0    0 -0.71197552713E+02  0.74220326658E+02  0.19836645489E+02  0.16315693966E+03  0.12509574754E+03 0.  0.
          5    1    3    3  502    0 -0.23507861037E+02  0.10006340393E+03 -0.57594048608E+01  0.10303372011E+03  0.41800000000E+01 0. -1.
         -5    1    3    3    0  502 -0.47689691676E+02 -0.25843077270E+02  0.25596050350E+02  0.60123219545E+02  0.41800000000E+01 0. -1.
        -11    1    1    2    0    0 -0.91518266771E+01  0.73145690421E+01 -0.58218831261E+02  0.59385950908E+02  0.00000000000E+00 0. -1.
         11    1    1    2    0    0  0.80349379390E+02 -0.81534895701E+02 -0.12193343893E+03  0.16724749778E+03  0.00000000000E+00 0.  1.
</event>
<event>
 7    1  0.6473813E-006  0.1236725E+03  0.7561462E-02  0.1237159E+00
         -2   -1    0    0    0  501 -0.00000000000E+00  0.00000000000E+00  0.43744149509E+02  0.43744149509E+02  0.00000000000E+00 0.  1.
          2   -1    0    0  501    0  0.00000000000E+00 -0.00000000000E+00 -0.37476787340E+03  0.37476787340E+03  0.00000000000E+00 0. -1.
         23    2    1    2    0    0 -0.53992059505E+02 -0.24996843412E+02 -0.13066980748E+03  0.19042351305E+03  0.12508609461E+03 0.  0.
          5    1    3    3  502    0  0.24829936174E+02  0.32317689815E+02 -0.38516842684E+02  0.56231471399E+02  0.41800000000E+01 0. -1.
         -5    1    3    3    0  502 -0.78821995679E+02 -0.57314533227E+02 -0.92152964800E+02  0.13419204165E+03  0.41800000000E+01 0. -1.
        -11    1    1    2    0    0  0.30903154858E+02 -0.33718583525E+02 -0.90684206848E+02  0.10156561045E+03  0.00000000000E+00 0. -1.
         11    1    1    2    0    0  0.23088904647E+02  0.58715426937E+02 -0.10966970956E+03  0.12652289940E+03  0.00000000000E+00 0.  1.
</event>
<event>
 7    1  0.6473813E-006  0.1406846E+03  0.7561462E-02  0.1212411E+00
         -2   -1    0    0    0  501 -0.00000000000E+00  0.00000000000E+00  0.72658436903E+03  0.72658436903E+03  0.00000000000E+00 0.  1.
          2   -1    0    0  501    0  0.00000000000E+00 -0.00000000000E+00 -0.33622532960E+02  0.33622532960E+02  0.00000000000E+00 0. -1.
         23    2    1    2    0    0  0.89224258054E+02  0.52137451115E+02  0.47864192086E+03  0.50539523701E+03  0.12508786974E+03 0.  0.
          5    1    3    3  502    0 -0.20249064687E+02 -0.16265721324E+02  0.38016774669E+02  0.46231438082E+02  0.41800000000E+01 0.  1.
         -5    1    3    3    0  502  0.10947332274E+03  0.68403172439E+02  0.44062514619E+03  0.45916379893E+03  0.41800000000E+01 0.  1.
        -11    1    1    2    0    0 -0.78569822887E+02 -0.62709011371E+01  0.79264149253E+02  0.11178258642E+03  0.00000000000E+00 0. -1.
         11    1    1    2    0    0 -0.10654435167E+02 -0.45866549978E+02  0.13505576596E+03  0.14302907856E+03  0.00000000000E+00 0.  1.
</event>
<event>
 7    1  0.6473813E-006  0.1443094E+03  0.7561462E-02  0.1207645E+00
         -1   -1    0    0    0  501 -0.00000000000E+00  0.00000000000E+00  0.28894388296E+03  0.28894388296E+03  0.00000000000E+00 0.  1.
          1   -1    0    0  501    0  0.00000000000E+00 -0.00000000000E+00 -0.11707581673E+03  0.11707581673E+03  0.00000000000E+00 0. -1.
         23    2    1    2    0    0 -0.10159739886E+03 -0.29432513140E+01  0.20785139384E+03  0.25705251511E+03  0.11199597949E+03 0.  0.
          5    1    3    3  502    0  0.12971327746E+02 -0.29641774540E+02  0.34208716624E+02  0.47271543601E+02  0.41800000000E+01 0. -1.
         -5    1    3    3    0  502 -0.11456872660E+03  0.26698523226E+02  0.17364267721E+03  0.20978097151E+03  0.41800000000E+01 0.  1.
        -11    1    1    2    0    0 -0.12992347133E+02 -0.17588686987E+02  0.96844775354E+01  0.23915520046E+02  0.00000000000E+00 0.  1.
         11    1    1    2    0    0  0.11458974599E+03  0.20531938301E+02 -0.45667805147E+02  0.12505166454E+03  0.00000000000E+00 0. -1.
</event>
<event>
 7    1  0.6473813E-006  0.7832919E+02  0.7561462E-02  0.1333861E+00
          3   -1    0    0  501    0  0.00000000000E+00  0.00000000000E+00  0.22303000170E+03  0.22303000170E+03  0.00000000000E+00 0. -1.
         -3   -1    0    0    0  501 -0.00000000000E+00 -0.00000000000E+00 -0.54939240222E+02  0.54939240222E+02  0.00000000000E+00 0.  1.
         23    2    1    2    0    0  0.21751320814E+02  0.10871846177E+02  0.81830577370E+02  0.15144131100E+03  0.12508761045E+03 0.  0.
          5    1    3    3  502    0  0.62594090222E+02 -0.15021847934E+02  0.10792522472E+02  0.65403570143E+02  0.41800000000E+01 0.  1.
         -5    1    3    3    0  502 -0.40842769409E+02  0.25893694111E+02  0.71038054899E+02  0.86037740856E+02  0.41800000000E+01 0.  1.
        -11    1    1    2    0    0  0.90262373756E+01 -0.90478445797E+01 -0.15563674794E+02  0.20138630187E+02  0.00000000000E+00 0.  1.
         11    1    1    2    0    0 -0.30777558189E+02 -0.18240015977E+01  0.10182385890E+03  0.10638930074E+03  0.00000000000E+00 0. -1.
</event>
<event>
 7    1  0.6473813E-006  0.1787585E+03  0.7561462E-02  0.1169010E+00
          4   -1    0    0  501    0  0.00000000000E+00  0.00000000000E+00  0.25491329224E+03  0.25491329224E+03  0.00000000000E+00 0. -1.
         -4   -1    0    0    0  501 -0.00000000000E+00 -0.00000000000E+00 -0.14666056772E+03  0.14666056772E+03  0.00000000000E+00 0.  1.
         23    2    1    2    0    0  0.15828632451E+03 -0.44421375232E+01  0.34558954234E+02  0.20473259147E+03  0.12508724788E+03 0.  0.
          5    1    3    3  502    0  0.16972612295E+03 -0.23760132738E+02  0.10791064091E+02  0.17177141841E+03  0.41800000000E+01 0. -1.
         -5    1    3    3    0  502 -0.11439798444E+02  0.19317995215E+02  0.23767890144E+02  0.32961173059E+02  0.41800000000E+01 0. -1.
        -11    1    1    2    0    0 -0.98981916339E+02  0.22003245746E+02  0.10092065016E+01  0.10140306250E+03  0.00000000000E+00 0.  1.
         11    1    1    2    0    0 -0.59304408168E+02 -0.17561108223E+02  0.72684563781E+02  0.95438205988E+02  0.00000000000E+00 0. -1.
</event>
<event>
 7    1  0.6473813E-006  0.6488414E+02  0.7561462E-02  0.1378408E+00
         -2   -1    0    0    0  501 -0.00000000000E+00  0.00000000000E+00  0.36142334570E+03  0.36142334570E+03  0.00000000000E+00 0.  1.
          2   -1    0    0  501    0  0.00000000000E+00 -0.00000000000E+00 -0.36374834078E+02  0.36374834078E+02  0.00000000000E+00 0. -1.
         23    2    1    2    0    0  0.18598517315E+02  0.12142966801E+02  0.17781516463E+03  0.21854024812E+03  0.12509296858E+03 0.  0.
          5    1    3    3  502    0  0.30946245682E+02  0.28545233626E+02  0.29352878362E+01  0.42409772450E+02  0.41800000000E+01 0.  1.
         -5    1    3    3    0  502 -0.12347728368E+02 -0.16402266825E+02  0.17487987680E+03  0.17613047567E+03  0.41800000000E+01 0.  1.
        -11    1    1    2    0    0 -0.39560925959E+02 -0.19739451542E+02  0.17382024620E+02  0.47506290003E+02  0.00000000000E+00 0. -1.
         11    1    1    2    0    0  0.20962408645E+02  0.75964847412E+01  0.12985132237E+03  0.13175164165E+03  0.00000000000E+00 0.  1.
</event>
<event>
 7    1  0.6473813E-006  0.1165906E+03  0.7561462E-02  0.1248830E+00
          1   -1    0    0  501    0  0.00000000000E+00  0.00000000000E+00  0.13753615196E+02  0.13753615196E+02  0.00000000000E+00 0.  1.
         -1   -1    0    0    0  501 -0.00000000000E+00 -0.00000000000E+00 -0.10172266672E+04  0.10172266672E+04  0.00000000000E+00 0. -1.
         23    2    1    2    0    0  0.18463499511E+02  0.41504877263E+02 -0.52533690946E+03  0.54193142754E+03  0.12508896061E+03 0.  0.
          5    1    3    3  502    0  0.69991422392E+02  0.34947908684E+02 -0.26089287822E+03  0.27240176548E+03  0.41800000000E+01 0. -1.
         -5    1    3    3    0  502 -0.51527922881E+02  0.65569685787E+01 -0.26444403124E+03  0.26952966206E+03  0.41800000000E+01 0. -1.
        -11    1    1    2    0    0 -0.22154279613E+02  0.26545971729E+02 -0.15792674330E+03  0.16166742705E+03  0.00000000000E+00 0.  1.
         11    1    1    2    0    0  0.36907801020E+01 -0.68050848992E+02 -0.32020939926E+03  0.32738142782E+03  0.00000000000E+00 0. -1.
</event>
<event>
 7    1  0.6473813E-006  0.1062639E+03  0.7561462E-02  0.1267649E+00
          3   -1    0    0  501    0  0.00000000000E+00  0.00000000000E+00  0.34903746288E+02  0.34903746288E+02  0.00000000000E+00 0. -1.
         -3   -1    0    0    0  501 -0.00000000000E+00 -0.00000000000E+00 -0.52228956336E+03  0.52228956336E+03  0.00000000000E+00 0.  1.
         23    2    1    2    0    0  0.50415738969E+02 -0.62851902732E+02 -0.30743841262E+03  0.34155161148E+03  0.12508803835E+03 0.  0.
          5    1    3    3  502    0 -0.10258739677E+02 -0.51428956853E+02 -0.25520836594E+03  0.26057429226E+03  0.41800000000E+01 0. -1.
         -5    1    3    3    0  502  0.60674478645E+02 -0.11422945879E+02 -0.52230046683E+02  0.80977319219E+02  0.41800000000E+01 0. -1.
        -11    1    1    2    0    0  0.38204915468E+01  0.38322229804E+02 -0.13681469674E+03  0.14213180748E+03  0.00000000000E+00 0.  1.
         11    1    1    2    0    0 -0.54236230516E+02  0.24529672928E+02 -0.43132707707E+02  0.73509890686E+02  0.00000000000E+00 0. -1.
</event>
<event>
 7    1  0.6473813E-006  0.8549921E+02  0.7561462E-02  0.1314132E+00
         -2   -1    0    0    0  501 -0.00000000000E+00  0.00000000000E+00  0.11993897941E+03  0.11993897941E+03  0.00000000000E+00 0.  1.
          2   -1    0    0  501    0  0.00000000000E+00 -0.00000000000E+00 -0.14986847741E+03  0.14986847741E+03  0.00000000000E+00 0. -1.
         23    2    1    2    0    0  0.70551896567E+02  0.24796195015E+02  0.85753883261E+01  0.14599220658E+03  0.12509102966E+03 0.  0.
          5    1    3    3  502    0  0.78282530389E+02  0.19201259118E+02  0.55482586512E+02  0.97941986512E+02  0.41800000000E+01 0. -1.
         -5    1    3    3    0  502 -0.77306338226E+01  0.55949358965E+01 -0.46907198186E+02  0.48050220069E+02  0.41800000000E+01 0. -1.
        -11    1    1    2    0    0 -0.32703312285E+02  0.31011620747E+01 -0.62813095933E+02  0.70884475461E+02  0.00000000000E+00 0. -1.
         11    1    1    2    0    0 -0.37848584282E+02 -0.27897357089E+02  0.24308209601E+02  0.52930774779E+02  0.00000000000E+00 0.  1.
</event>
<event>
 7    1  0.6473813E-006  0.1892843E+03  0.7561462E-02  0.1159108E+00
          1   -1    0    0  501    0  0.00000000000E+00  0.00000000000E+00  0.15512341880E+04  0.15512341880E+04  0.00000000000E+00 0. -1.
         -1   -1    0    0    0  501 -0.00000000000E+00 -0.00000000000E+00 -0.24752810775E+02  0.24752810775E+02  0.00000000000E+00 0.  1.
         23    2    1    2    0    0  0.11633697593E+03 -0.11334790953E+03  0.82828809237E+03  0.85328517581E+03  0.12510949900E+03 0.  0.
          5    1    3    3  502    0  0.57864868290E+02 -0.13143274746E+03  0.58383974100E+03  0.60125637265E+03  0.41800000000E+01 0.  1.
         -5    1    3    3    0  502  0.58472107642E+02  0.18084837930E+02  0.24444835137E+03  0.25202880316E+03  0.41800000000E+01 0.  1.
        -11    1    1    2    0    0 -0.30317331098E+02  0.71978549254E+02  0.45113775325E+03  0.45784858254E+03  0.00000000000E+00 0. -1.
         11    1    1    2    0    0 -0.86019644833E+02  0.41369360277E+02  0.24705553155E+03  0.26485324038E+03  0.00000000000E+00 0.  1.
</event>
<event>
 7    1  0.6473813E-006  0.1400676E+03  0.7561462E-02  0.1213238E+00
          2   -1    0    0  501    0  0.00000000000E+00  0.00000000000E+00  0.27101784876E+03  0.27101784876E+03  0.00000000000E+00 0. -1.
         -2   -1    0    0    0  501 -0.00000000000E+00 -0.00000000000E+00 -0.77374011908E+02  0.77374011908E+02  0.00000000000E+00 0.  1.
         23    2    1    2    0    0 -0.40487366089E+02  0.86904710305E+02  0.11873791058E+03  0.19732705409E+03  0.12509044480E+03 0.  0.
          5    1    3    3  502    0 -0.71747934215E+02  0.85816713326E+01  0.45012710028E+02  0.85235131320E+02  0.41800000000E+01 0.  1.
         -5    1    3    3    0  502  0.31260568127E+02  0.78323038972E+02  0.73725200554E+02  0.11209192277E+03  0.41800000000E+01 0.  1.
        -11    1    1    2    0    0  0.89740109129E+01 -0.91089516925E+02  0.30551920154E+02  0.96494832974E+02  0.00000000000E+00 0.  1.
         11    1    1    2    0    0  0.31513355176E+02  0.41848066201E+01  0.44354006116E+02  0.54569973607E+02  0.00000000000E+00 0. -1.
</event>
<event>
 7    1  0.6473813E-006  0.9063121E+02  0.7561462E-02  0.1301330E+00
          1   -1    0    0  501    0  0.00000000000E+00  0.00000000000E+00  0.11267326720E+04  0.11267326720E+04  0.00000000000E+00 0. -1.
         -1   -1    0    0    0  501 -0.00000000000E+00 -0.00000000000E+00 -0.12268929454E+02  0.12268929454E+02  0.00000000000E+00 0.  1.
         23    2    1    2    0    0 -0.61853052210E+01 -0.45102343160E+02  0.66933992823E+03  0.68244772749E+03  0.12508589797E+03 0.  0.
          5    1    3    3  502    0  0.14031851974E+02 -0.55045460652E+02  0.12214287832E+03  0.13477110496E+03  0.41800000000E+01 0.  1.
         -5    1    3    3    0  502 -0.20217157195E+02  0.99431174924E+01  0.54719704991E+03  0.54767662253E+03  0.41800000000E+01 0.  1.
        -11    1    1    2    0    0 -0.98760632637E+01  0.70581774788E+02  0.32325641930E+03  0.33101969152E+03  0.00000000000E+00 0.  1.
         11    1    1    2    0    0  0.16061368485E+02 -0.25479431628E+02  0.12186739498E+03  0.12553418241E+03  0.00000000000E+00 0. -1.
</event>
<event>
 7    1  0.6473813E-006  0.1552061E+03  0.7561462E-02  0.1194218E+00
         -1   -1    0    0    0  501 -0.00000000000E+00  0.00000000000E+00  0.17296967463E+03  0.17296967463E+03  0.00000000000E+00 0.  1.
          1   -1    0    0  501    0  0.00000000000E+00 -0.00000000000E+00 -0.18514249345E+03  0.18514249345E+03  0.00000000000E+00 0. -1.
         23    2    1    2    0    0 -0.13942677645E+03  0.30760683071E+02 -0.10378093576E+02  0.19012262508E+03  0.12511139887E+03 0.  0.
          5    1    3    3  502    0 -0.41929995849E+02 -0.34392562520E+01  0.53796743024E+02  0.68421597434E+02  0.41800000000E+01 0.  1.
         -5    1    3    3    0  502 -0.97496780597E+02  0.34199939323E+02 -0.64174836600E+02  0.12170102764E+03  0.41800000000E+01 0.  1.
        -11    1    1    2    0    0  0.80503520809E+02  0.24292139946E+02  0.15527290701E+02  0.85510360088E+02  0.00000000000E+00 0. -1.
         11    1    1    2    0    0  0.58923255637E+02 -0.55052823017E+02 -0.17322015946E+02  0.82479182910E+02  0.00000000000E+00 0.  1.
</event>
<event>
 7    1  0.6473813E-006  0.1716962E+03  0.7561462E-02  0.1176090E+00
         -1   -1    0    0    0  501 -0.00000000000E+00  0.00000000000E+00  0.38312025021E+02  0.38312025021E+02  0.00000000000E+00 0.  1.
          1   -1    0    0  501    0  0.00000000000E+00 -0.00000000000E+00 -0.97501061139E+03  0.97501061139E+03  0.00000000000E+00 0. -1.
         23    2    1    2    0    0  0.11094997227E+03 -0.93240485356E+02 -0.31525237632E+03  0.36882883578E+03  0.12508782865E+03 0.  0.
          5    1    3    3  502    0  0.12100864675E+03 -0.10716182600E+03 -0.22625298319E+03  0.27809105404E+03  0.41800000000E+01 0. -1.
         -5    1    3    3    0  502 -0.10058674479E+02  0.13921340641E+02 -0.88999393131E+02  0.90737781740E+02  0.41800000000E+01 0. -1.
        -11    1    1    2    0    0 -0.55058251927E+00  0.42532914254E+02 -0.25256846639E+03  0.25612532509E+03  0.00000000000E+00 0.  1.
         11    1    1    2    0    0 -0.11039938975E+03  0.50707571103E+02 -0.36887774366E+03  0.38836847553E+03  0.00000000000E+00 0. -1.
</event>
<event>
 7    1  0.6473813E-006  0.1104486E+03  0.7561462E-02  0.1259741E+00
          2   -1    0    0  501    0  0.00000000000E+00  0.00000000000E+00  0.16967630211E+03  0.16967630211E+03  0.00000000000E+00 0. -1.
         -2   -1    0    0    0  501 -0.00000000000E+00 -0.00000000000E+00 -0.11182385676E+03  0.11182385676E+03  0.00000000000E+00 0.  1.
         23    2    1    2    0    0  0.23264220028E+00 -0.32221429443E+02 -0.38578787948E+02  0.13481184733E+03  0.12509051388E+03 0.  0.
          5    1    3    3  502    0 -0.53116602713E+02 -0.30634311823E+02  0.10302030229E+02  0.62317242970E+02  0.41800000000E+01 0. -1.
         -5    1    3    3    0  502  0.53349244913E+02 -0.15871176202E+01 -0.48880818177E+02  0.72494604356E+02  0.41800000000E+01 0. -1.
        -11    1    1    2    0    0 -0.31104170330E+02 -0.25646092866E+02  0.58115665427E+02  0.70729216447E+02  0.00000000000E+00 0. -1.
         11    1    1    2    0    0  0.30871528129E+02  0.57867522309E+02  0.38315567869E+02  0.75959095100E+02  0.00000000000E+00 0.  1.
</event>
<event>
 7    1  0.6473813E-006  0.1240372E+03  0.7561462E-02  0.1236582E+00
         -1   -1    0    0    0  501 -0.00000000000E+00  0.00000000000E+00  0.29777161503E+03  0.29777161503E+03  0.00000000000E+00 0.  1.
          1   -1    0    0  501    0  0.00000000000E+00 -0.00000000000E+00 -0.66212497464E+02  0.66212497464E+02  0.00000000000E+00 0. -1.
         23    2    1    2    0    0 -0.10232546505E+02  0.81048221658E+02  0.17788236329E+03  0.23229916880E+03  0.12508896600E+03 0.  0.
          5    1    3    3  502    0 -0.94870219567E+01  0.11200539649E+03  0.16206774472E+03  0.19727807457E+03  0.41800000000E+01 0.  1.
         -5    1    3    3    0  502 -0.74552454857E+00 -0.30957174832E+02  0.15814618568E+02  0.35021094227E+02  0.41800000000E+01 0.  1.
        -11    1    1    2    0    0 -0.18856256978E+02 -0.71165987024E+02  0.45742469950E+01  0.73763675829E+02  0.00000000000E+00 0.  1.
         11    1    1    2    0    0  0.29088803483E+02 -0.98822346340E+01  0.49102507281E+02  0.57921267862E+02  0.00000000000E+00 0. -1.
</event>
<event>
 7    1  0.6473813E-006  0.9556299E+02  0.7561462E-02  0.1289913E+00
          2   -1    0    0  501    0  0.00000000000E+00  0.00000000000E+00  0.42880518095E+02  0.42880518095E+02  0.00000000000E+00 0. -1.
         -2   -1    0    0    0  501 -0.00000000000E+00 -0.00000000000E+00 -0.30684028968E+03  0.30684028968E+03  0.00000000000E+00 0.  1.
         23    2    1    2    0    0  0.12517006331E+02  0.24173184628E+02 -0.18029452559E+03  0.22111997390E+03  0.12508760369E+03 0.  0.
          5    1    3    3  502    0  0.21802469438E+02  0.59066407513E+02 -0.17286241662E+03  0.18401922630E+03  0.41800000000E+01 0. -1.
         -5    1    3    3    0  502 -0.92854631069E+01 -0.34893222885E+02 -0.74321089749E+01  0.37100747596E+02  0.41800000000E+01 0. -1.
        -11    1    1    2    0    0 -0.82845674668E+01  0.33164293291E+02 -0.10933371244E+02  0.35889316159E+02  0.00000000000E+00 0. -1.
         11    1    1    2    0    0 -0.42324388646E+01 -0.57337477918E+02 -0.72731874742E+02  0.92711517711E+02  0.00000000000E+00 0.  1.
</event>
<event>
 7    1  0.6473813E-006  0.1177734E+03  0.7561462E-02  0.1246816E+00
          2   -1    0    0  501    0  0.00000000000E+00  0.00000000000E+00  0.28269307585E+03  0.28269307585E+03  0.00000000000E+00 0.  1.
         -2   -1    0    0    0  501 -0.00000000000E+00 -0.00000000000E+00 -0.19584173713E+03  0.19584173713E+03  0.00000000000E+00 0. -1.
         23    2    1    2    0    0  0.54848934962E+02 -0.53505364825E+02 -0.15141728715E+03  0.21082693417E+03  0.12509824776E+03 0.  0.
          5    1    3    3  502    0 -0.27543177267E+02 -0.16480263386E+02  0.23378860704E+01  0.32452485367E+02  0.41800000000E+01 0.  1.
         -5    1    3    3    0  502  0.82392112229E+02 -0.37025101439E+02 -0.15375517322E+03  0.17837444880E+03  0.41800000000E+01 0.  1.
        -11    1    1    2    0    0 -0.13434206699E+02 -0.22494910823E+02  0.20177939448E+02  0.33070351720E+02  0.00000000000E+00 0. -1.
         11    1    1    2    0    0 -0.41414728264E+02  0.76000275647E+02  0.21809068642E+03  0.23463752709E+03  0.00000000000E+00 0.  1.
</event>
<event>
 7    1  0.6473813E-006  0.9897743E+02  0.7561462E-02  0.1282461E+00
         -1   -1    0    0    0  501 -0.00000000000E+00  0.00000000000E+00  0.27707722128E+03  0.27707722128E+03  0.00000000000E+00 0.  1.
          1   -1    0    0  501    0  0.00000000000E+00 -0.00000000000E+00 -0.21363297559E+03  0.21363297559E+03  0.00000000000E+00 0. -1.
         23    2    1    2    0    0 -0.28632365532E+02  0.45141300988E+02  0.25162898044E+03  0.28385972595E+03  0.12000687817E+03 0.  0.
          5    1    3    3  502    0  0.40429474888E+02  0.47568865771E+01  0.38558324685E+02  0.56226214635E+02  0.41800000000E+01 0. -1.
         -5    1    3    3    0  502 -0.69061840421E+02  0.40384414410E+02  0.21307065575E+03  0.22763351131E+03  0.41800000000E+01 0.  1.
        -11    1    1    2    0    0  0.21252826512E+02 -0.58178992117E+02 -0.17867346621E+03  0.18910495838E+03  0.00000000000E+00 0. -1.
         11    1    1    2    0    0  0.73795390206E+01  0.13037691130E+02 -0.95112685336E+01  0.17745512539E+02  0.00000000000E+00 0.  1.
</event>
<event>
 7    1  0.6473813E-006  0.1676091E+03  0.7561462E-02  0.1180364E+00
         -1   -1    0    0    0  501 -0.00000000000E+00  0.00000000000E+00  0.11086888351E+03  0.11086888351E+03  0.00000000000E+00 0.  1.
          1   -1    0    0  501    0  0.00000000000E+00 -0.00000000000E+00 -0.30446451201E+03  0.30446451201E+03  0.00000000000E+00 0. -1.
         23    2    1    2    0    0 -0.10684474508E+03  0.97238644449E+02 -0.13873781290E+03  0.23614530504E+03  0.12508105706E+03 0.  0.
          5    1    3    3  502    0 -0.73956072954E+02  0.12335736142E+03 -0.82601250859E+02  0.16591256247E+03  0.41800000000E+01 0.  1.
         -5    1    3    3    0  502 -0.32888672126E+02 -0.26118716967E+02 -0.56136562042E+02  0.70232742564E+02  0.41800000000E+01 0.  1.
        -11    1    1    2    0    0  0.32738137600E+02 -0.91174191218E+01  0.22244742748E+02  0.40617010783E+02  0.00000000000E+00 0.  1.
         11    1    1    2    0    0  0.74106607479E+02 -0.88121225327E+02 -0.77102558349E+02  0.13857107970E+03  0.00000000000E+00 0. -1.
</event>
<event>
 6    1  0.6473813E-006  0.2425384E+03  0.7561462E-02  0.1118113E+00
          2   -1    0    0  501    0  0.00000000000E+00  0.00000000000E+00  0.13520604158E+04  0.13520604158E+04  0.00000000000E+00 0. -1.
         -2   -1    0    0    0  501 -0.00000000000E+00 -0.00000000000E+00 -0.48654871014E+02  0.48654871014E+02  0.00000000000E+00 0.  1.
          5    1    1    2  502    0 -0.10793817819E+03 -0.23502560434E+02  0.15561312136E+03  0.19088199653E+03  0.41800000000E+01 0. -1.
         -5    1    1    2    0  502 -0.58684463763E+02 -0.12694059780E+03  0.45207876896E+03  0.47323405140E+03  0.41800000000E+01 0.  1.
        -11    1    1    2    0    0  0.14208922777E+03  0.87026890840E+02  0.56770491052E+03  0.59165183496E+03  0.00000000000E+00 0. -1.
         11    1    1    2    0    0  0.24533414189E+02  0.63416267390E+02  0.12800874394E+03  0.14494740393E+03  0.00000000000E+00 0.  1.
</event>
<event>
 7    1  0.6473813E-006  0.2084810E+03  0.7561462E-02  0.1142775E+00
         -1   -1    0    0    0  501 -0.00000000000E+00  0.00000000000E+00  0.11130223088E+03  0.11130223088E+03  0.00000000000E+00 0.  1.
          1   -1    0    0  501    0  0.00000000000E+00 -0.00000000000E+00 -0.44985595264E+03  0.44985595264E+03  0.00000000000E+00 0. -1.
         23    2    1    2    0    0 -0.14398675288E+02  0.19632719372E+03 -0.13915265045E+03  0.26673657119E+03  0.11416325782E+03 0.  0.
          5    1    3    3  502    0  0.19978898246E+02  0.17259136029E+03 -0.73257299754E+02  0.18860285891E+03  0.41800000000E+01 0. -1.
         -5    1    3    3    0  502 -0.34377573534E+02  0.23735833436E+02 -0.65895350698E+02  0.78133712279E+02  0.41800000000E+01 0.  1.
        -11    1    1    2    0    0 -0.11895477234E+02 -0.11719690491E+03 -0.60532260544E+02  0.13244157756E+03  0.00000000000E+00 0.  1.
         11    1    1    2    0    0  0.26294152522E+02 -0.79130288808E+02 -0.13886881076E+03  0.16198003478E+03  0.00000000000E+00 0. -1.
</event>
<event>
 7    1  0.6473813E-006  0.8945229E+02  0.7561462E-02  0.1304183E+00
         -2   -1    0    0    0  501 -0.00000000000E+00  0.00000000000E+00  0.20668157188E+03  0.20668157188E+03  0.00000000000E+00 0.  1.
          2   -1    0    0  501    0  0.00000000000E+00 -0.00000000000E+00 -0.87722063312E+02  0.87722063312E+02  0.00000000000E+00 0. -1.
         23    2    1    2    0    0  0.42380488157E+02  0.40187316102E+02  0.12588181834E+03  0.18682758652E+03  0.12508872349E+03 0.  0.
          5    1    3    3  502    0  0.58126647081E+02  0.43125464411E+02  0.14465038811E+03  0.16180148319E+03  0.41800000000E+01 0. -1.
         -5    1    3    3    0  502 -0.15746158924E+02 -0.29381483085E+01 -0.18768569775E+02  0.25026103327E+02  0.41800000000E+01 0. -1.
        -11    1    1    2    0    0 -0.23169407948E+00 -0.47134068699E+02 -0.32990289957E+02  0.57532889253E+02  0.00000000000E+00 0. -1.
         11    1    1    2    0    0 -0.42148794078E+02  0.69467525970E+01  0.26067980185E+02  0.50043159420E+02  0.00000000000E+00 0.  1.
</event>
<event>
 7    1  0.6473813E-006  0.1180383E+03  0.7561462E-02  0.1246369E+00
         -1   -1    0    0    0  501 -0.00000000000E+00  0.00000000000E+00  0.50050562835E+02  0.50050562835E+02  0.00000000000E+00 0.  1.
          1   -1    0    0  501    0  0.00000000000E+00 -0.00000000000E+00 -0.33140544314E+03  0.33140544314E+03  0.00000000000E+00 0. -1.
         23    2    1    2    0    0  0.44406782109E+02 -0.53385939803E+02 -0.14848385619E+03  0.20619954360E+03  0.12509506531E+03 0.  0.
          5    1    3    3  502    0  0.63511409681E+02  0.17357865746E+01 -0.13017484624E+03  0.14491264648E+03  0.41800000000E+01 0. -1.
         -5    1    3    3    0  502 -0.19104627572E+02 -0.55121726377E+02 -0.18309009942E+02  0.61286897120E+02  0.41800000000E+01 0. -1.
        -11    1    1    2    0    0  0.25066177532E+02  0.33142034781E+02 -0.41844894320E+02  0.58972051907E+02  0.00000000000E+00 0. -1.
         11    1    1    2    0    0 -0.69472959641E+02  0.20243905021E+02 -0.91026129796E+02  0.11628441047E+03  0.00000000000E+00 0.  1.
</event>
<event>
 7    1  0.6473813E-006  0.1364175E+03  0.7561462E-02  0.1218232E+00
          3   -1    0    0  501    0  0.00000000000E+00  0.00000000000E+00  0.51143971432E+02  0.51143971432E+02  0.00000000000E+00 0. -1.
         -3   -1    0    0    0  501 -0.00000000000E+00 -0.00000000000E+00 -0.39378143087E+03  0.39378143087E+03  0.00000000000E+00 0.  1.
         23    2    1    2    0    0  0.21356469758E+02  0.86180695552E+02 -0.20793694282E+03  0.25839454180E+03  0.12508699357E+03 0.  0.
          5    1    3    3  502    0  0.63485633387E+02  0.22371467674E+02 -0.14255471739E+03  0.15770297417E+03  0.41800000000E+01 0.  1.
         -5    1    3    3    0  502 -0.42129163630E+02  0.63809227878E+02 -0.65382225422E+02  0.10069156763E+03  0.41800000000E+01 0.  1.
        -11    1    1    2    0    0  0.19061563925E+02 -0.86318969065E+02 -0.97362205353E+02  0.13150553856E+03  0.00000000000E+00 0.  1.
         11    1    1    2    0    0 -0.40418033683E+02  0.13827351288E+00 -0.37338311271E+02  0.55025321943E+02  0.00000000000E+00 0. -1.
</event>
<event>
 7    1  0.6473813E-006  0.1020583E+03  0.7561462E-02  0.1276026E+00
          2   -1    0    0  501    0  0.00000000000E+00  0.00000000000E+00  0.11281976735E+03  0.11281976735E+03  0.00000000000E+00 0. -1.
         -2   -1    0    0    0  501 -0.00000000000E+00 -0.00000000000E+00 -0.11141106606E+03  0.11141106606E+03  0.00000000000E+00 0.  1.
         23    2    1    2    0    0 -0.87805715429E+01 -0.21404859641E+02 -0.16951449232E+02  0.12834196773E+03  0.12509613342E+03 0.  0.
          5    1    3    3  502    0 -0.40831408617E+02 -0.52694392556E+02 -0.39938217257E+02  0.77823110540E+02  0.41800000000E+01 0. -1.
         -5    1    3    3    0  502  0.32050837074E+02  0.31289532916E+02  0.22986768025E+02  0.50518857187E+02  0.41800000000E+01 0. -1.
        -11    1    1    2    0    0  0.15802335294E+02  0.55407435616E+02  0.20367588613E+02  0.61110853277E+02  0.00000000000E+00 0.  1.
         11    1    1    2    0    0 -0.70217637507E+01 -0.34002575975E+02 -0.20074380979E+01  0.34778012405E+02  0.00000000000E+00 0. -1.
</event>
<event>
 7    1  0.6473813E-006  0.2019740E+03  0.7561462E-02  0.1148084E+00
         -2   -1    0    0    0  501 -0.00000000000E+00  0.00000000000E+00  0.56265628358E+02  0.56265628358E+02  0.00000000000E+00 0.  1.
          2   -1    0    0  501    0  0.00000000000E+00 -0.00000000000E+00 -0.11352279244E+04  0.11352279244E+04  0.00000000000E+00 0. -1.
         23    2    1    2    0    0 -0.12624507535E+03  0.12642678935E+03 -0.22046795956E+03  0.31011365254E+03  0.12507119647E+03 0.  0.
          5    1    3    3  502    0  0.13402460427E+02  0.36249602698E+02 -0.92346219487E+02  0.10019459214E+03  0.41800000000E+01 0. -1.
         -5    1    3    3    0  502 -0.13964753577E+03  0.90177186651E+02 -0.12812174007E+03  0.20991906040E+03  0.41800000000E+01 0. -1.
        -11    1    1    2    0    0  0.83315799175E+02 -0.22432713608E+02 -0.41102076421E+03  0.41997954431E+03  0.00000000000E+00 0. -1.
         11    1    1    2    0    0  0.42929276170E+02 -0.10399407574E+03 -0.44747357227E+03  0.46140035590E+03  0.00000000000E+00 0.  1.
</event>
<event>
 7    1  0.6473813E-006  0.1072747E+03  0.7561462E-02  0.1265702E+00
         -2   -1    0    0    0  501 -0.00000000000E+00  0.00000000000E+00  0.67381363080E+02  0.67381363080E+02  0.00000000000E+00 0. -1.
          2   -1    0    0  501    0  0.00000000000E+00 -0.00000000000E+00 -0.20303183349E+03  0.20303183349E+03  0.00000000000E+00 0.  1.
         23    2    1    2    0    0  0.18659582694E+02  0.64582334498E+01 -0.29384822005E+02  0.13000002623E+03  0.12508657102E+03 0.  0.
          5    1    3    3  502    0  0.53512396418E+02 -0.38403917700E+02 -0.31212055493E+02  0.73007549426E+02  0.41800000000E+01 0. -1.
         -5    1    3    3    0  502 -0.34852813724E+02  0.44862151149E+02  0.18272334876E+01  0.56992476806E+02  0.41800000000E+01 0. -1.
        -11    1    1    2    0    0 -0.48008230887E+02  0.20061561694E+02 -0.64843794739E+02  0.83138283640E+02  0.00000000000E+00 0.  1.
         11    1    1    2    0    0  0.29348648193E+02 -0.26519795144E+02 -0.41421853667E+02  0.57274886700E+02  0.00000000000E+00 0. -1.
</event>
<event>
 7    1  0.6473813E-006  0.1243159E+03  0.7561462E-02  0.1236142E+00
          2   -1    0    0  501    0  0.00000000000E+00  0.00000000000E+00  0.44303017404E+03  0.44303017404E+03  0.00000000000E+00 0. -1.
         -2   -1    0    0    0  501 -0.00000000000E+00 -0.00000000000E+00 -0.57680660485E+02  0.57680660485E+02  0.00000000000E+00 0.  1.
         23    2    1    2    0    0  0.44816105725E+01  0.73615200813E+02  0.68068063872E+02  0.16310818512E+03  0.12857579908E+03 0.  0.
          5    1    3    3  502    0 -0.35573780321E+02 -0.13060860665E+02  0.54592561146E+02  0.66587536823E+02  0.41800000000E+01 0. -1.
         -5    1    3    3    0  502  0.40055390894E+02  0.86676061479E+02  0.13475502726E+02  0.96520648293E+02  0.41800000000E+01 0.  1.
        -11    1    1    2    0    0  0.30848613196E+02  0.25667503592E+01  0.73074647735E+02  0.79360754061E+02  0.00000000000E+00 0.  1.
         11    1    1    2    0    0 -0.35330223768E+02 -0.76181951173E+02  0.24420680195E+03  0.25824189535E+03  0.00000000000E+00 0. -1.
</event>
<event>
 7    1  0.6473813E-006  0.1165440E+03  0.7561462E-02  0.1248910E+00
          3   -1    0    0  501    0  0.00000000000E+00  0.00000000000E+00  0.10903046397E+03  0.10903046397E+03  0.00000000000E+00 0. -1.
         -3   -1    0    0    0  501 -0.00000000000E+00 -0.00000000000E+00 -0.13075509384E+03  0.13075509384E+03  0.00000000000E+00 0.  1.
         23    2    1    2    0    0  0.43961410689E+02  0.38757080771E+01 -0.37330397869E+02  0.13778123156E+03  0.12506991013E+03 0.  0.
          5    1    3    3  502    0  0.80168097890E+02 -0.27043850663E+02 -0.26695896783E+02  0.88816873865E+02  0.41800000000E+01 0. -1.
         -5    1    3    3    0  502 -0.36206687201E+02  0.30919558740E+02 -0.10634501086E+02  0.48964357691E+02  0.41800000000E+01 0. -1.
        -11    1    1    2    0    0  0.23729489187E+02  0.17625140179E+02  0.76764726163E+01  0.30539522839E+02  0.00000000000E+00 0.  1.
         11    1    1    2    0    0 -0.67690899877E+02 -0.21500848256E+02  0.79292953777E+01  0.71464803414E+02  0.00000000000E+00 0. -1.
</event>
<event>
 6    1  0.6473813E-006  0.1464571E+03  0.7561462E-02  0.1204895E+00
         -2   -1    0    0    0  501 -0.00000000000E+00  0.00000000000E+00  0.82013370142E+03  0.82013370142E+03  0.00000000000E+00 0.  1.
          2   -1    0    0  501    0  0.00000000000E+00 -0.00000000000E+00 -0.13227241300E+03  0.13227241300E+03  0.00000000000E+00 0. -1.
          5    1    1    2  502    0  0.25333941793E+02  0.56570047139E+02  0.26788234705E+03  0.27499164188E+03  0.41800000000E+01 0. -1.
         -5    1    1    2    0  502 -0.29961710976E+02 -0.11859226846E+03  0.51632257442E+03  0.53063010046E+03  0.41800000000E+01 0.  1.
        -11    1    1    2    0    0  0.13109106880E+02 -0.21102882353E+02 -0.35899430610E+02  0.43657180909E+02  0.00000000000E+00 0.  1.
         11    1    1    2    0    0 -0.84813376968E+01  0.83125103678E+02 -0.60444202444E+02  0.10312719117E+03  0.00000000000E+00 0. -1.
</event>
<event>
 7    1  0.6473813E-006  0.6940055E+02  0.7561462E-02  0.1362143E+00
          1   -1    0    0  501    0  0.00000000000E+00  0.00000000000E+00  0.15060740523E+03  0.15060740523E+03  0.00000000000E+00 0. -1.
         -1   -1    0    0    0  501 -0.00000000000E+00 -0.00000000000E+00 -0.86282849936E+02  0.86282849936E+02  0.00000000000E+00 0.  1.
         23    2    1    2    0    0  0.34434969068E+02  0.23897688505E+02  0.10479254809E+02  0.13232620236E+03  0.12507414776E+03 0.  0.
          5    1    3    3  502    0  0.30395666341E+02  0.55000055983E+01 -0.55461484180E+02  0.63620713775E+02  0.41800000000E+01 0. -1.
         -5    1    3    3    0  502  0.40393027272E+01  0.18397682907E+02  0.65940738989E+02  0.68705488582E+02  0.41800000000E+01 0. -1.
        -11    1    1    2    0    0 -0.98912267459E+01 -0.50896519526E+02  0.22734937309E+02  0.56614215890E+02  0.00000000000E+00 0.  1.
         11    1    1    2    0    0 -0.24543742322E+02  0.26998831021E+02  0.31110363178E+02  0.47949836921E+02  0.00000000000E+00 0. -1.
</event>
<event>
 7    1  0.6473813E-006  0.1138237E+03  0.7561462E-02  0.1253648E+00
          1   -1    0    0  501    0  0.00000000000E+00  0.00000000000E+00  0.30576372940E+03  0.30576372940E+03  0.00000000000E+00 0. -1.
         -1   -1    0    0    0  501 -0.00000000000E+00 -0.00000000000E+00 -0.58146039326E+02  0.58146039326E+02  0.00000000000E+00 0.  1.
         23    2    1    2    0    0  0.63259320891E+02 -0.26514174573E+02  0.87964614817E+02  0.16760448882E+03  0.12509495626E+03 0.  0.
          5    1    3    3  502    0 -0.52570156299E+01  0.27019972436E+02  0.74481839515E+02  0.79515608161E+02  0.41800000000E+01 0.  1.
         -5    1    3    3    0  502  0.68516336521E+02 -0.53534147009E+02  0.13482775302E+02  0.88088880661E+02  0.41800000000E+01 0.  1.
        -11    1    1    2    0    0 -0.68752835894E+02  0.52303496737E+02  0.10788860870E+03  0.13821201142E+03  0.00000000000E+00 0.  1.
         11    1    1    2    0    0  0.54935150029E+01 -0.25789322163E+02  0.51764466555E+02  0.58093268478E+02  0.00000000000E+00 0. -1.
</event>
<event>
 7    1  0.6473813E-006  0.1347989E+03  0.7561462E-02  0.1220504E+00
         -1   -1    0    0    0  501 -0.00000000000E+00  0.00000000000E+00  0.21346622118E+03  0.21346622118E+03  0.00000000000E+00 0.  1.
          1   -1    0    0  501    0  0.00000000000E+00 -0.00000000000E+00 -0.11339693808E+03  0.11339693808E+03  0.00000000000E+00 0. -1.
         23    2    1    2    0    0 -0.10374485302E+03 -0.31631616387E+02  0.73763257204E+02  0.18123640288E+03  0.12506822910E+03 0.  0.
          5    1    3    3  502    0 -0.38989583597E+02 -0.59825992658E+02 -0.92907917328E+01  0.72132712673E+02  0.41800000000E+01 0. -1.
         -5    1    3    3    0  502 -0.64755269427E+02  0.28194376270E+02  0.83054048937E+02  0.10910369021E+03  0.41800000000E+01 0. -1.
        -11    1    1    2    0    0 -0.33214852243E+00  0.22867592675E+02  0.33913959021E+02  0.40904690854E+02  0.00000000000E+00 0.  1.
         11    1    1    2    0    0  0.10407700155E+03  0.87640237125E+01 -0.76079331311E+01  0.10472206553E+03  0.00000000000E+00 0. -1.
</event>
<event>
 7    1  0.6473813E-006  0.1011288E+03  0.7561462E-02  0.1277940E+00
         -1   -1    0    0    0  501 -0.00000000000E+00  0.00000000000E+00  0.28178427420E+03  0.28178427420E+03  0.00000000000E+00 0.  1.
          1   -1    0    0  501    0  0.00000000000E+00 -0.00000000000E+00 -0.11263795219E+03  0.11263795219E+03  0.00000000000E+00 0. -1.
         23    2    1    2    0    0  0.34950596848E+02 -0.32711975326E+02  0.24034974721E+03  0.27514960486E+03  0.12509071317E+03 0.  0.
          5    1    3    3  502    0 -0.39625726220E+02  0.16338883203E+02  0.59758067271E+02  0.73659054344E+02  0.41800000000E+01 0. -1.
         -5    1    3    3    0  502  0.74576323068E+02 -0.49050858529E+02  0.18059167994E+03  0.20149055052E+03  0.41800000000E+01 0. -1.
        -11    1    1    2    0    0 -0.30573534140E+02  0.46341179042E+02 -0.83587078034E+02  0.10034463353E+03  0.00000000000E+00 0. -1.
         11    1    1    2    0    0 -0.43770627082E+01 -0.13629203716E+02  0.12383652830E+02  0.18927987989E+02  0.00000000000E+00 0.  1.
</event>
<event>
 7    1  0.6473813E-006  0.1190969E+03  0.7561462E-02  0.1244594E+00
         -2   -1    0    0    0  501 -0.00000000000E+00  0.00000000000E+00  0.12716258779E+03  0.12716258779E+03  0.00000000000E+00 0. -1.
          2   -1    0    0  501    0  0.00000000000E+00 -0.00000000000E+00 -0.15699215658E+03  0.15699215658E+03  0.00000000000E+00 0.  1.
         23    2    1    2    0    0  0.52008363966E+02 -0.71952517349E+02 -0.31370495708E+02  0.15653094199E+03  0.12504316505E+03 0.  0.
          5    1    3    3  502    0  0.64686223223E+02 -0.95000343846E+02 -0.48550868699E+02  0.12483602067E+03  0.41800000000E+01 0. -1.
         -5    1    3    3    0  502 -0.12677859257E+02  0.23047826497E+02  0.17180372991E+02  0.31694921323E+02  0.41800000000E+01 0. -1.
        -11    1    1    2    0    0 -0.40639415197E+02  0.74533435747E+02 -0.33066580789E+02  0.91105399823E+02  0.00000000000E+00 0.  1.
         11    1    1    2    0    0 -0.11368948769E+02 -0.25809183977E+01  0.34607507700E+02  0.36518402554E+02  0.00000000000E+00 0. -1.
</event>
<event>
 7    1  0.6473813E-006  0.7043018E+02  0.7561462E-02  0.1358636E+00
          4   -1    0    0  501    0  0.00000000000E+00  0.00000000000E+00  0.12049791519E+03  0.12049791519E+03  0.00000000000E+00 0. -1.
         -4   -1    0    0    0  501 -0.00000000000E+00 -0.00000000000E+00 -0.10758243125E+03  0.10758243125E+03  0.00000000000E+00 0.  1.
         23    2    1    2    0    0  0.32133642181E+02 -0.14175953842E+02 -0.57538537173E+01  0.13005608010E+03  0.12509176036E+03 0.  0.
          5    1    3    3  502    0  0.26570726390E+02 -0.26635489868E+02 -0.61662618094E+02  0.72354707460E+02  0.41800000000E+01 0. -1.
         -5    1    3    3    0  502  0.55629157903E+01  0.12459536026E+02  0.55908764377E+02  0.57701372638E+02  0.41800000000E+01 0. -1.
        -11    1    1    2    0    0 -0.21144216405E+02 -0.33606895139E+02 -0.10373376133E+02  0.41037887625E+02  0.00000000000E+00 0.  1.
         11    1    1    2    0    0 -0.10989425776E+02  0.47782848981E+02  0.29042713790E+02  0.56986378723E+02  0.00000000000E+00 0. -1.
</event>
<event>
 7    1  0.6473813E-006  0.9620215E+02  0.7561462E-02  0.1288491E+00
          2   -1    0    0  501    0  0.00000000000E+00  0.00000000000E+00  0.25983800162E+03  0.25983800162E+03  0.00000000000E+00 0. -1.
         -2   -1    0    0    0  501 -0.00000000000E+00 -0.00000000000E+00 -0.58916875750E+02  0.58916875750E+02  0.00000000000E+00 0.  1.
         23    2    1    2    0    0 -0.12461885398E+01  0.36237184977E+01  0.36084433507E+02  0.13024771739E+03  0.12509075594E+03 0.  0.
          5    1    3    3  502    0 -0.44617694085E+02  0.27705623877E+02  0.55762271119E+02  0.76715340710E+02  0.41800000000E+01 0. -1.
         -5    1    3    3    0  502  0.43371505546E+02 -0.24081905379E+02 -0.19677837612E+02  0.53532376680E+02  0.41800000000E+01 0. -1.
        -11    1    1    2    0    0 -0.21535027308E+02 -0.40914005655E+02  0.67559979924E+02  0.81866135534E+02  0.00000000000E+00 0.  1.
         11    1    1    2    0    0  0.22781215848E+02  0.37290287158E+02  0.97276712441E+02  0.10664102445E+03  0.00000000000E+00 0. -1.
</event>
<event>
 7    1  0.6473813E-006  0.1134408E+03  0.7561462E-02  0.1254327E+00
         -2   -1    0    0    0  501 -0.00000000000E+00  0.00000000000E+00  0.10090046197E+03  0.10090046197E+03  0.00000000000E+00 0.  1.
          2   -1    0    0  501    0  0.00000000000E+00 -0.00000000000E+00 -0.17228011656E+03  0.17228011656E+03  0.00000000000E+00 0. -1.
         23    2    1    2    0    0  0.20004364606E+02 -0.38906757571E+02  0.23254210169E+02  0.13453700176E+03  0.12508211768E+03 0.  0.
          5    1    3    3  502    0 -0.29975234132E+02  0.32531066142E+02  0.14846162912E+02  0.46847261167E+02  0.41800000000E+01 0.  1.
         -5    1    3    3    0  502  0.49979598738E+02 -0.71437823713E+02  0.84080472567E+01  0.87689740594E+02  0.41800000000E+01 0.  1.
        -11    1    1    2    0    0 -0.53412567307E+02  0.25061774809E+02 -0.34142758778E+02  0.68166875239E+02  0.00000000000E+00 0.  1.
         11    1    1    2    0    0  0.33408202701E+02  0.13844982762E+02 -0.60491105979E+02  0.70476701526E+02  0.00000000000E+00 0. -1.
</event>
<event>
 7    1  0.6473813E-006  0.9547557E+02  0.7561462E-02  0.1290109E+00
         -2   -1    0    0    0  501 -0.00000000000E+00  0.00000000000E+00  0.23092446539E+03  0.23092446539E+03  0.00000000000E+00 0.  1.
          2   -1    0    0  501    0  0.00000000000E+00 -0.00000000000E+00 -0.22854151690E+03  0.22854151690E+03  0.00000000000E+00 0. -1.
         23    2    1    2    0    0  0.63113233508E+02  0.66562037617E+02  0.18218185984E+03  0.23927427439E+03  0.12509261862E+03 0.  0.
          5    1    3    3  502    0  0.34092308724E+02  0.18393022979E+02  0.17856625060E+03  0.18276752190E+03  0.41800000000E+01 0.  1.
         -5    1    3    3    0  502  0.29020924784E+02  0.48169014638E+02  0.36156092401E+01  0.56506752488E+02  0.41800000000E+01 0.  1.
        -11    1    1    2    0    0 -0.86390852758E+01 -0.26793489861E+02 -0.13800313534E+03  0.14084527062E+03  0.00000000000E+00 0. -1.
         11    1    1    2    0    0 -0.54474148233E+02 -0.39768547756E+02 -0.41795776004E+02  0.79346437274E+02  0.00000000000E+00 0.  1.
</event>
<event>
 7    1  0.6473813E-006  0.9255758E+02  0.7561462E-02  0.1296774E+00
          1   -1    0    0  501    0  0.00000000000E+00  0.00000000000E+00  0.15986377714E+03  0.15986377714E+03  0.00000000000E+00 0.  1.
         -1   -1    0    0    0  501 -0.00000000000E+00 -0.00000000000E+00 -0.88055410954E+02  0.88055410954E+02  0.00000000000E+00 0. -1.
         23    2    1    2    0    0 -0.33852689908E+02 -0.24239599993E+01  0.49614862198E+01  0.12970971239E+03  0.12509241762E+03 0.  0.
          5    1    3    3  502    0 -0.52520430413E+02  0.29301860293E+02 -0.39319070613E+02  0.71975387052E+02  0.41800000000E+01 0.  1.
         -5    1    3    3    0  502  0.18667740505E+02 -0.31725820292E+02  0.44280556833E+02  0.57734325338E+02  0.41800000000E+01 0.  1.
        -11    1    1    2    0    0  0.40044241703E+02  0.35874054812E+02  0.64701560137E+02  0.84123605406E+02  0.00000000000E+00 0.  1.
         11    1    1    2    0    0 -0.61915517957E+01 -0.33450094813E+02  0.21453198242E+01  0.34085870295E+02  0.00000000000E+00 0. -1.
</event>
<event>
 7    1  0.6473813E-006  0.1249141E+03  0.7561462E-02  0.1235204E+00
         -2   -1    0    0    0  501 -0.00000000000E+00  0.00000000000E+00  0.48970611066E+03  0.48970611066E+03  0.00000000000E+00 0.  1.
          2   -1    0    0  501    0  0.00000000000E+00 -0.00000000000E+00 -0.93696797609E+02  0.93696797609E+02  0.00000000000E+00 0. -1.
         23    2    1    2    0    0  0.68071405921E+02 -0.47742924965E+01  0.43891509228E+03  0.46146788212E+03  0.12509851246E+03 0.  0.
          5    1    3    3  502    0 -0.27266548016E+02 -0.26267729645E+02  0.68762367816E+02  0.78607848775E+02  0.41800000000E+01 0. -1.
         -5    1    3    3    0  502  0.95337953937E+02  0.21493437149E+02  0.37015272447E+03  0.38286003334E+03  0.41800000000E+01 0. -1.
        -11    1    1    2    0    0 -0.84679985815E+02 -0.17162980500E+02 -0.29259139030E+02  0.91221516727E+02  0.00000000000E+00 0.  1.
         11    1    1    2    0    0  0.16608579894E+02  0.21937272996E+02 -0.13646640198E+02  0.30713509427E+02  0.00000000000E+00 0. -1.
</event>
<event>
 7    1  0.6473813E-006  0.1950892E+03  0.7561462E-02  0.1153950E+00
          1   -1    0    0  501    0  0.00000000000E+00  0.00000000000E+00  0.79734803685E+02  0.79734803685E+02  0.00000000000E+00 0. -1.
         -1   -1    0    0    0  501 -0.00000000000E+00 -0.00000000000E+00 -0.64716929594E+03  0.64716929594E+03  0.00000000000E+00 0.  1.
         23    2    1    2    0    0 -0.20730189556E+02 -0.17899091699E+03 -0.42921924610E+03  0.48202113738E+03  0.12509087311E+03 0.  0.
          5    1    3    3  502    0  0.41527863648E+02 -0.41320354070E+02 -0.19161750908E+03  0.20041626008E+03  0.41800000000E+01 0.  1.
         -5    1    3    3    0  502 -0.62258053204E+02 -0.13767056292E+03 -0.23760173702E+03  0.28160487730E+03  0.41800000000E+01 0.  1.
        -11    1    1    2    0    0  0.17251573275E+02  0.12396769360E+03 -0.14240476761E+03  0.18959093775E+03  0.00000000000E+00 0.  1.
         11    1    1    2    0    0  0.34786162810E+01  0.55023223386E+02  0.41895214573E+01  0.55292024497E+02  0.00000000000E+00 0. -1.
</event>
<event>
 7    1  0.6473813E-006  0.2078050E+03  0.7561462E-02  0.1143316E+00
         -2   -1    0    0    0  501 -0.00000000000E+00  0.00000000000E+00  0.15149988233E+03  0.15149988233E+03  0.00000000000E+00 0.  1.
          2   -1    0    0  501    0  0.00000000000E+00 -0.00000000000E+00 -0.34545765646E+03  0.34545765646E+03  0.00000000000E+00 0. -1.
         23    2    1    2    0    0  0.87634522873E+01  0.16408572348E+03 -0.44588326383E+02  0.21127442238E+03  0.12509132647E+03 0.  0.
          5    1    3    3  502    0 -0.66618828878E+01  0.16024210009E+03  0.34806312245E+01  0.16047273450E+03  0.41800000000E+01 0.  1.
         -5    1    3    3    0  502  0.15425335175E+02  0.38436233909E+01 -0.48068957608E+02  0.50801687881E+02  0.41800000000E+01 0.  1.
        -11    1    1    2    0    0 -0.34738332824E+02  0.28176452549E+02 -0.52066387916E+02  0.68640898860E+02  0.00000000000E+00 0. -1.
         11    1    1    2    0    0  0.25974880537E+02 -0.19226217603E+03 -0.97303059826E+02  0.21704221755E+03  0.00000000000E+00 0.  1.
</event>
<event>
 7    1  0.6473813E-006  0.8164339E+02  0.7561462E-02  0.1324451E+00
         -2   -1    0    0    0  501 -0.00000000000E+00  0.00000000000E+00  0.58946600137E+03  0.58946600137E+03  0.00000000000E+00 0.  1.
          2   -1    0    0  501    0  0.00000000000E+00 -0.00000000000E+00 -0.62720821830E+02  0.62720821830E+02  0.00000000000E+00 0. -1.
         23    2    1    2    0    0  0.43126629419E+02 -0.11558584008E+01  0.52756690829E+03  0.54390990031E+03  0.12509953941E+03 0.  0.
          5    1    3    3  502    0  0.44391810612E+02  0.38445435135E+02  0.11285566418E+03  0.12728926769E+03  0.41800000000E+01 0. -1.
         -5    1    3    3    0  502 -0.12651811929E+01 -0.39601293536E+02  0.41471124411E+03  0.41662063262E+03  0.41800000000E+01 0. -1.
        -11    1    1    2    0    0 -0.33652592141E+02  0.22999794913E+02  0.42472313703E+02  0.58867520375E+02  0.00000000000E+00 0.  1.
         11    1    1    2    0    0 -0.94740372780E+01 -0.21843936512E+02 -0.43294042453E+02  0.49409402512E+02  0.00000000000E+00 0. -1.
</event>
<event>
 7    1  0.6473813E-006  0.9213580E+02  0.7561462E-02  0.1297760E+00
          3   -1    0    0  501    0  0.00000000000E+00  0.00000000000E+00  0.10977334882E+03  0.10977334882E+03  0.00000000000E+00 0. -1.
         -3   -1    0    0    0  501 -0.00000000000E+00 -0.00000000000E+00 -0.16149826766E+03  0.16149826766E+03  0.00000000000E+00 0.  1.
         23    2    1    2    0    0 -0.18157959558E+01  0.76311468534E+02 -0.37507956290E+02  0.15126069541E+03  0.12508482660E+03 0.  0.
          5    1    3    3  502    0 -0.14984332551E+02  0.72851095441E+02 -0.78287297177E+02  0.10806565425E+03  0.41800000000E+01 0. -1.
         -5    1    3    3    0  502  0.13168536595E+02  0.34603730932E+01  0.40779340886E+02  0.43195041163E+02  0.41800000000E+01 0. -1.
        -11    1    1    2    0    0 -0.24653127765E+02 -0.58904791459E+02 -0.43181882449E+02  0.77085836165E+02  0.00000000000E+00 0.  1.
         11    1    1    2    0    0  0.26468923721E+02 -0.17406677075E+02  0.28964919900E+02  0.42925084911E+02  0.00000000000E+00 0. -1.
</event>
<event>
 7    1  0.6473813E-006  0.1051243E+03  0.7561462E-02  0.1269875E+00
         -2   -1    0    0    0  501 -0.00000000000E+00  0.00000000000E+00  0.15254336096E+03  0.15254336096E+03  0.00000000000E+00 0.  1.
          2   -1    0    0  501    0  0.00000000000E+00 -0.00000000000E+00 -0.88043641924E+02  0.88043641924E+02  0.00000000000E+00 0. -1.
         23    2    1    2    0    0 -0.19072635251E+02 -0.39894026619E+02  0.43093223527E+02  0.13950074445E+03  0.12509249782E+03 0.  0.
          5    1    3    3  502    0  0.39488226775E+02 -0.37682961454E+02  0.57100177427E+02  0.79102644078E+02  0.41800000000E+01 0. -1.
         -5    1    3    3    0  502 -0.58560862027E+02 -0.22110651645E+01 -0.14006953900E+02  0.60398100368E+02  0.41800000000E+01 0. -1.
        -11    1    1    2    0    0  0.51949404430E+02  0.36941526394E+02  0.42540665083E+01  0.63886728471E+02  0.00000000000E+00 0.  1.
         11    1    1    2    0    0 -0.32876769178E+02  0.29525002252E+01  0.17152428999E+02  0.37199529967E+02  0.00000000000E+00 0. -1.
</event>
<event>
 7    1  0.6473813E-006  0.1026722E+03  0.7561462E-02  0.1274775E+00
          1   -1    0    0  501    0  0.00000000000E+00  0.00000000000E+00  0.18243504925E+03  0.18243504925E+03  0.00000000000E+00 0. -1.
         -1   -1    0    0    0  501 -0.00000000000E+00 -0.00000000000E+00 -0.14556189240E+03  0.14556189240E+03  0.00000000000E+00 0.  1.
         23    2    1    2    0    0  0.49767934603E+02  0.59230295501E+02 -0.74815792135E+02  0.16501555326E+03  0.12509058656E+03 0.  0.
          5    1    3    3  502    0 -0.17215391007E+02  0.14670454629E+02  0.26815188547E+02  0.35328722923E+02  0.41800000000E+01 0. -1.
         -5    1    3    3    0  502  0.66983325610E+02  0.44559840872E+02 -0.10163098068E+03  0.12968683034E+03  0.41800000000E+01 0. -1.
        -11    1    1    2    0    0 -0.42767182870E+02 -0.63536162425E+00  0.77640268961E+01  0.43470860685E+02  0.00000000000E+00 0.  1.
         11    1    1    2    0    0 -0.70007517326E+01 -0.58594933877E+02  0.10392492208E+03  0.11951052770E+03  0.00000000000E+00 0. -1.
</event>
<event>
 7    1  0.6473813E-006  0.7394180E+02  0.7561462E-02  0.1347180E+00
         -1   -1    0    0    0  501 -0.00000000000E+00  0.00000000000E+00  0.38120043953E+02  0.38120043953E+02  0.00000000000E+00 0.  1.
          1   -1    0    0  501    0  0.00000000000E+00 -0.00000000000E+00 -0.22120168670E+03  0.22120168670E+03  0.00000000000E+00 0. -1.
         23    2    1    2    0    0 -0.56786682196E+00 -0.23124068960E+02 -0.95373206060E+02  0.15900775292E+03  0.12510944016E+03 0.  0.
          5    1    3    3  502    0 -0.12907962043E+02 -0.61003549319E+02 -0.10078318370E+03  0.11858655501E+03  0.41800000000E+01 0.  1.
         -5    1    3    3    0  502  0.12340095221E+02  0.37879480359E+02  0.54099776374E+01  0.40421197909E+02  0.41800000000E+01 0.  1.
        -11    1    1    2    0    0 -0.86378655772E+00 -0.11072124128E+02 -0.40556768764E+02  0.42049846046E+02  0.00000000000E+00 0. -1.
         11    1    1    2    0    0  0.14316533797E+01  0.34196193087E+02 -0.47151667918E+02  0.58264131681E+02  0.00000000000E+00 0.  1.
</event>
<event>
 7    1  0.6473813E-006  0.1900144E+03  0.7561462E-02  0.1158448E+00
          1   -1    0    0  501    0  0.00000000000E+00  0.00000000000E+00  0.72248140941E+03  0.72248140941E+03  0.00000000000E+00 0. -1.
         -1   -1    0    0    0  501 -0.00000000000E+00 -0.00000000000E+00 -0.60485223984E+02  0.60485223984E+02  0.00000000000E+00 0.  1.
         23    2    1    2    0    0 -0.59107100354E+02  0.16747735851E+03  0.32061077932E+03  0.38727475601E+03  0.12509256532E+03 0.  0.
          5    1    3    3  502    0 -0.43813339509E+01  0.99569152858E+02  0.26648770386E+03  0.28454592072E+03  0.41800000000E+01 0. -1.
         -5    1    3    3    0  502 -0.54725766403E+02  0.67908205654E+02  0.54123075465E+02  0.10272883530E+03  0.41800000000E+01 0. -1.
        -11    1    1    2    0    0  0.64177872438E+02 -0.68550764658E+02  0.11419771680E+03  0.14784831811E+03  0.00000000000E+00 0.  1.
         11    1    1    2    0    0 -0.50707720842E+01 -0.98926593854E+02  0.22718768931E+03  0.24784355927E+03  0.00000000000E+00 0. -1.
</event>
<event>
 7    1  0.6473813E-006  0.7094136E+02  0.7561462E-02  0.1356921E+00
         -2   -1    0    0    0  501 -0.00000000000E+00  0.00000000000E+00  0.29562184138E+02  0.29562184138E+02  0.00000000000E+00 0.  1.
          2   -1    0    0  501    0  0.00000000000E+00 -0.00000000000E+00 -0.42668824214E+03  0.42668824214E+03  0.00000000000E+00 0. -1.
         23    2    1    2    0    0 -0.13100727208E+02 -0.29737732445E+02 -0.22061643873E+03  0.25568499364E+03  0.12508893298E+03 0.  0.
          5    1    3    3  502    0 -0.99987348230E+00 -0.42147302256E+02 -0.89905220376E+01  0.43309314483E+02  0.41800000000E+01 0. -1.
         -5    1    3    3    0  502 -0.12100853726E+02  0.12409569812E+02 -0.21162591669E+03  0.21237567916E+03  0.41800000000E+01 0. -1.
        -11    1    1    2    0    0 -0.27052721684E+02 -0.62514674040E+01 -0.17887005927E+02  0.33028405596E+02  0.00000000000E+00 0.  1.
         11    1    1    2    0    0  0.40153448892E+02  0.35989199849E+02 -0.15862261334E+03  0.16753702703E+03  0.00000000000E+00 0. -1.
</event>
<event>
 7    1  0.6473813E-006  0.8563468E+02  0.7561462E-02  0.1313781E+00
          1   -1    0    0  501    0  0.00000000000E+00  0.00000000000E+00  0.38202763065E+03  0.38202763065E+03  0.00000000000E+00 0. -1.
         -1   -1    0    0    0  501 -0.00000000000E+00 -0.00000000000E+00 -0.31540950741E+02  0.31540950741E+02  0.00000000000E+00 0.  1.
         23    2    1    2    0    0 -0.97960305725E+01 -0.87275758058E+01  0.23016377286E+03  0.26228679733E+03  0.12508744511E+03 0.  0.
          5    1    3    3  502    0 -0.44257138892E+02 -0.43940326901E+02  0.18516296837E+03  0.19542836008E+03  0.41800000000E+01 0.  1.
         -5    1    3    3    0  502  0.34461108319E+02  0.35212751096E+02  0.45000804495E+02  0.66858437250E+02  0.41800000000E+01 0.  1.
        -11    1    1    2    0    0  0.34133669762E+02  0.26750069199E+01  0.12144369880E+03  0.12617779143E+03  0.00000000000E+00 0. -1.
         11    1    1    2    0    0 -0.24337639189E+02  0.60525688859E+01 -0.11207917500E+01  0.25103992622E+02  0.00000000000E+00 0.  1.
</event>
<event>
 7    1  0.6473813E-006  0.1730406E+03  0.7561462E-02  0.1174714E+00
         -1   -1    0    0    0  501 -0.00000000000E+00  0.00000000000E+00  0.16275002394E+03  0.16275002394E+03  0.00000000000E+00 0.  1.
          1   -1    0    0  501    0  0.00000000000E+00 -0.00000000000E+00 -0.22181662646E+03  0.22181662646E+03  0.00000000000E+00 0. -1.
         23    2    1    2    0    0 -0.40510766378E+02 -0.13855323845E+03  0.28432890915E+02  0.19311941217E+03  0.12509418849E+03 0.  0.
          5    1    3    3  502    0 -0.81589257723E+02 -0.59289433164E+02  0.23306376944E+02  0.10359876190E+03  0.41800000000E+01 0. -1.
         -5    1    3    3    0  502  0.41078491345E+02 -0.79263805284E+02  0.51265139707E+01  0.89520650270E+02  0.41800000000E+01 0. -1.
        -11    1    1    2    0    0 -0.15198679763E+02  0.35504129842E+02  0.90228165566E+01  0.39660488159E+02  0.00000000000E+00 0.  1.
         11    1    1    2    0    0  0.55709446141E+02  0.10304910861E+03 -0.96522309986E+02  0.15178675008E+03  0.00000000000E+00 0. -1.
</event>
<event>
 7    1  0.6473813E-006  0.1250875E+03  0.7561462E-02  0.1234933E+00
          1   -1    0    0  501    0  0.00000000000E+00  0.00000000000E+00  0.22101328123E+03  0.22101328123E+03  0.00000000000E+00 0. -1.
         -1   -1    0    0    0  501 -0.00000000000E+00 -0.00000000000E+00 -0.95018561634E+02  0.95018561634E+02  0.00000000000E+00 0.  1.
         23    2    1    2    0    0 -0.37156293101E+02 -0.92160269048E+02  0.64064432252E+02  0.17212349253E+03  0.12509252532E+03 0.  0.
          5    1    3    3  502    0  0.18766705566E+02 -0.86910582948E+01 -0.28491698561E+02  0.35453815295E+02  0.41800000000E+01 0.  1.
         -5    1    3    3    0  502 -0.55922998666E+02 -0.83469210753E+02  0.92556130813E+02  0.13666967723E+03  0.41800000000E+01 0.  1.
        -11    1    1    2    0    0 -0.12787734092E+02  0.74428166438E+02  0.46592255845E+02  0.88735091183E+02  0.00000000000E+00 0.  1.
         11    1    1    2    0    0  0.49944027192E+02  0.17732102610E+02  0.15338031497E+02  0.55173259151E+02  0.00000000000E+00 0. -1.
</event>
<event>
 7    1  0.6473813E-006  0.1182982E+03  0.7561462E-02  0.1245931E+00
          2   -1    0    0  501    0  0.00000000000E+00  0.00000000000E+00  0.77223044039E+03  0.77223044039E+03  0.00000000000E+00 0. -1.
         -2   -1    0    0    0  501 -0.00000000000E+00 -0.00000000000E+00 -0.29949996403E+02  0.29949996403E+02  0.00000000000E+00 0.  1.
         23    2    1    2    0    0  0.66304044944E+02  0.24830359222E+02  0.23386159772E+03  0.27450594715E+03  0.12509794170E+03 0.  0.
          5    1    3    3  502    0  0.31323208139E+02 -0.26471867449E+02  0.10365208037E+02  0.42506623861E+02  0.41800000000E+01 0.  1.
         -5    1    3    3    0  502  0.34980836805E+02  0.51302226672E+02  0.22349638968E+03  0.23199932329E+03  0.41800000000E+01 0.  1.
        -11    1    1    2    0    0 -0.61511792740E+02  0.36563575733E+02  0.35901831683E+03  0.36608024740E+03  0.00000000000E+00 0. -1.
         11    1    1    2    0    0 -0.47922522036E+01 -0.61393934955E+02  0.14940052945E+03  0.16159424225E+03  0.00000000000E+00 0.  1.
</event>
<event>
 7    1  0.6473813E-006  0.1130185E+03  0.7561462E-02  0.1255080E+00
         -1   -1    0    0    0  501 -0.00000000000E+00  0.00000000000E+00  0.36366759698E+02  0.36366759698E+02  0.00000000000E+00 0.  1.
          1   -1    0    0  501    0  0.00000000000E+00 -0.00000000000E+00 -0.70751883350E+03  0.70751883350E+03  0.00000000000E+00 0. -1.
         23    2    1    2    0    0 -0.15677001126E+02  0.34208360769E+02 -0.10075824227E+03  0.16496941744E+03  0.12508678985E+03 0.  0.
          5    1    3    3  502    0 -0.62179092444E+02  0.47716942822E+02 -0.80135043108E+02  0.11217060089E+03  0.41800000000E+01 0. -1.
         -5    1    3    3    0  502  0.46502091318E+02 -0.13508582053E+02 -0.20623199164E+02  0.52798816556E+02  0.41800000000E+01 0. -1.
        -11    1    1    2    0    0 -0.36864834068E+02 -0.11827498487E+01 -0.20627327197E+03  0.20954492983E+03  0.00000000000E+00 0. -1.
         11    1    1    2    0    0  0.52541835194E+02 -0.33025610920E+02 -0.36412055956E+03  0.36937124592E+03  0.00000000000E+00 0.  1.
</event>
<event>
 7    1  0.6473813E-006  0.9735054E+02  0.7561462E-02  0.1285968E+00
          1   -1    0    0  501    0  0.00000000000E+00  0.00000000000E+00  0.33372946471E+03  0.33372946471E+03  0.00000000000E+00 0. -1.
         -1   -1    0    0    0  501 -0.00000000000E+00 -0.00000000000E+00 -0.47521395717E+02  0.47521395717E+02  0.00000000000E+00 0.  1.
         23    2    1    2    0    0 -0.84080911592E+01  0.63692572734E+02  0.15499896729E+03  0.20927240621E+03  0.12507126098E+03 0.  0.
          5    1    3    3  502    0  0.19110695714E+02  0.82900163413E+02  0.15334531412E+03  0.17541355006E+03  0.41800000000E+01 0. -1.
         -5    1    3    3    0  502 -0.27518786873E+02 -0.19207590679E+02  0.16536531711E+01  0.33858856146E+02  0.41800000000E+01 0. -1.
        -11    1    1    2    0    0 -0.10188748238E+02 -0.53573883516E+02  0.18938382069E+02  0.57728969339E+02  0.00000000000E+00 0.  1.
         11    1    1    2    0    0  0.18596839397E+02 -0.10118689218E+02  0.11227071964E+03  0.11424948488E+03  0.00000000000E+00 0. -1.
</event>
<event>
 7    1  0.6473813E-006  0.2059154E+03  0.7561462E-02  0.1144842E+00
         -1   -1    0    0    0  501 -0.00000000000E+00  0.00000000000E+00  0.29871396309E+03  0.29871396309E+03  0.00000000000E+00 0.  1.
          1   -1    0    0  501    0  0.00000000000E+00 -0.00000000000E+00 -0.16795968370E+03  0.16795968370E+03  0.00000000000E+00 0. -1.
         23    2    1    2    0    0  0.82226782169E+02 -0.17694060961E+03  0.75319875513E+02  0.24369719060E+03  0.12508402786E+03 0.  0.
          5    1    3    3  502    0 -0.36560006261E+01 -0.81811067496E+02 -0.19416959634E+02  0.84266884520E+02  0.41800000000E+01 0.  1.
         -5    1    3    3    0  502  0.85882782795E+02 -0.95129542112E+02  0.94736835147E+02  0.15943030608E+03  0.41800000000E+01 0.  1.
        -11    1    1    2    0    0 -0.87018502853E+02  0.14352587162E+03  0.12428202507E+02  0.16830435491E+03  0.00000000000E+00 0. -1.
         11    1    1    2    0    0  0.47917206847E+01  0.33414737985E+02  0.43006201377E+02  0.54672101282E+02  0.00000000000E+00 0.  1.
</event>
<event>
 7    1  0.6473813E-006  0.1000954E+03  0.7561462E-02  0.1280095E+00
          2   -1    0    0  501    0  0.00000000000E+00  0.00000000000E+00  0.26053162364E+03  0.26053162364E+03  0.00000000000E+00 0. -1.
         -2   -1    0    0    0  501 -0.00000000000E+00 -0.00000000000E+00 -0.66237261309E+02  0.66237261309E+02  0.00000000000E+00 0.  1.
         23    2    1    2    0    0 -0.15419489336E+02  0.30128474720E+02  0.26099391473E+02  0.13218566367E+03  0.12508551397E+03 0.  0.
          5    1    3    3  502    0  0.34070311471E+02  0.58526236947E+02 -0.31662519114E+01  0.67923516444E+02  0.41800000000E+01 0. -1.
         -5    1    3    3    0  502 -0.49489800807E+02 -0.28397762227E+02  0.29265643384E+02  0.64262147226E+02  0.41800000000E+01 0. -1.
        -11    1    1    2    0    0  0.31108257803E+02  0.94854027122E+01  0.13943520165E+03  0.14317776373E+03  0.00000000000E+00 0. -1.
         11    1    1    2    0    0 -0.15688768466E+02 -0.39613877432E+02  0.28759769216E+02  0.51405457556E+02  0.00000000000E+00 0.  1.
</event>
<event>
 7    1  0.6473813E-006  0.3306973E+03  0.7561462E-02  0.1070829E+00
          2   -1    0    0  501    0  0.00000000000E+00  0.00000000000E+00  0.47047958866E+03  0.47047958866E+03  0.00000000000E+00 0.  1.
         -2   -1    0    0    0  501 -0.00000000000E+00 -0.00000000000E+00 -0.27306620233E+03  0.27306620233E+03  0.00000000000E+00 0. -1.
         23    2    1    2    0    0 -0.29120311068E+03  0.14646905327E+03 -0.49804150377E+01  0.34917876720E+03  0.12509425124E+03 0.  0.
          5    1    3    3  502    0 -0.85791330756E+02  0.69843968747E+02 -0.55970230491E+02  0.12405027813E+03  0.41800000000E+01 0. -1.
         -5    1    3    3    0  502 -0.20541177993E+03  0.76625084523E+02  0.50989815454E+02  0.22512848907E+03  0.41800000000E+01 0. -1.
        -11    1    1    2    0    0  0.22128908318E+03 -0.81055833789E+02  0.17863793851E+03  0.29572017111E+03  0.00000000000E+00 0.  1.
         11    1    1    2    0    0  0.69914027503E+02 -0.65413219481E+02  0.23755862855E+02  0.98646852684E+02  0.00000000000E+00 0. -1.
</event>
<event>
 7    1  0.6473813E-006  0.1323354E+03  0.7561462E-02  0.1224031E+00
         -3   -1    0    0    0  501 -0.00000000000E+00  0.00000000000E+00  0.57556297059E+03  0.57556297059E+03  0.00000000000E+00 0.  1.
          3   -1    0    0  501    0  0.00000000000E+00 -0.00000000000E+00 -0.39039622553E+02  0.39039622553E+02  0.00000000000E+00 0. -1.
         23    2    1    2    0    0  0.77691124863E+02 -0.62208331173E+02  0.34143887568E+03  0.37700849623E+03  0.12509641504E+03 0.  0.
          5    1    3    3  502    0  0.62969294334E+02  0.16980145149E+02  0.23219955108E+03  0.24122098018E+03  0.41800000000E+01 0. -1.
         -5    1    3    3    0  502  0.14721830529E+02 -0.79188476322E+02  0.10923932460E+03  0.13578751605E+03  0.41800000000E+01 0. -1.
        -11    1    1    2    0    0  0.94707162276E+01  0.19333643455E+02  0.97712267269E+02  0.10005584146E+03  0.00000000000E+00 0.  1.
         11    1    1    2    0    0 -0.87161841090E+02  0.42874687718E+02  0.97372205086E+02  0.13753825545E+03  0.00000000000E+00 0. -1.
</event>
<event>
 7    1  0.6473813E-006  0.8932309E+02  0.7561462E-02  0.1304499E+00
          2   -1    0    0  501    0  0.00000000000E+00  0.00000000000E+00  0.24821514981E+02  0.24821514981E+02  0.00000000000E+00 0. -1.
         -2   -1    0    0    0  501 -0.00000000000E+00 -0.00000000000E+00 -0.13802740244E+04  0.13802740244E+04  0.00000000000E+00 0.  1.
         23    2    1    2    0    0  0.12085967460E+02  0.37313723379E+02 -0.12599619427E+04  0.12667637061E+04  0.12509118835E+03 0.  0.
          5    1    3    3  502    0 -0.37101244206E+02  0.58172502751E+01 -0.13251367736E+03  0.13779582653E+03  0.41800000000E+01 0. -1.
         -5    1    3    3    0  502  0.49187211666E+02  0.31496473104E+02 -0.11274482654E+04  0.11289678796E+04  0.41800000000E+01 0. -1.
        -11    1    1    2    0    0 -0.32867823746E+02  0.67778047536E+01 -0.80690139028E+02  0.87390680347E+02  0.00000000000E+00 0.  1.
         11    1    1    2    0    0  0.20781856287E+02 -0.44091528133E+02 -0.14800427670E+02  0.50941152942E+02  0.00000000000E+00 0. -1.
</event>
<event>
 7    1  0.6473813E-006  0.5375892E+02  0.7561462E-02  0.1426061E+00
         -3   -1    0    0    0  501 -0.00000000000E+00  0.00000000000E+00  0.30429765758E+03  0.30429765758E+03  0.00000000000E+00 0.  1.
          3   -1    0    0  501    0  0.00000000000E+00 -0.00000000000E+00 -0.25973017099E+02  0.25973017099E+02  0.00000000000E+00 0. -1.
         23    2    1    2    0    0  0.72190189338E+01  0.25961465616E+02  0.27403448361E+03  0.30049865575E+03  0.12032635608E+03 0.  0.
          5    1    3    3  502    0  0.17768081522E+02 -0.22130533105E+02  0.78150239593E+01  0.29732342927E+02  0.41800000000E+01 0. -1.
         -5    1    3    3    0  502 -0.10549062588E+02  0.48091998721E+02  0.26621945965E+03  0.27076631282E+03  0.41800000000E+01 0.  1.
        -11    1    1    2    0    0  0.26292903375E+01 -0.12296359149E+02  0.26287347033E+01  0.12846161377E+02  0.00000000000E+00 0. -1.
         11    1    1    2    0    0 -0.98483092713E+01 -0.13665106468E+02  0.16614221678E+01  0.16925857553E+02  0.00000000000E+00 0.  1.
</event>
<event>
 7    1  0.6473813E-006  0.1905669E+03  0.7561462E-02  0.1157951E+00
          1   -1    0    0  501    0  0.00000000000E+00  0.00000000000E+00  0.31724765601E+03  0.31724765601E+03  0.00000000000E+00 0. -1.
         -1   -1    0    0    0  501 -0.00000000000E+00 -0.00000000000E+00 -0.13225760138E+03  0.13225760138E+03  0.00000000000E+00 0.  1.
         23    2    1    2    0    0 -0.16807529846E+03  0.90516234060E+01  0.51259239910E+02  0.21588528251E+03  0.12509079779E+03 0.  0.
          5    1    3    3  502    0  0.10295665305E+02  0.11982373834E+02 -0.18145226904E+02  0.24419247863E+02  0.41800000000E+01 0. -1.
         -5    1    3    3    0  502 -0.17837096376E+03 -0.29307504282E+01  0.69404466815E+02  0.19146603465E+03  0.41800000000E+01 0. -1.
        -11    1    1    2    0    0  0.96507005170E+02  0.34595330990E+02  0.10014048841E+03  0.14331279214E+03  0.00000000000E+00 0. -1.
         11    1    1    2    0    0  0.71568293286E+02 -0.43646954396E+02  0.33590326315E+02  0.90307182737E+02  0.00000000000E+00 0.  1.
</event>
<event>
 7    1  0.6473813E-006  0.2028760E+03  0.7561462E-02  0.1147335E+00
          2   -1    0    0  501    0  0.00000000000E+00  0.00000000000E+00  0.79332564339E+03  0.79332564339E+03  0.00000000000E+00 0. -1.
         -2   -1    0    0    0  501 -0.00000000000E+00 -0.00000000000E+00 -0.82318950405E+02  0.82318950405E+02  0.00000000000E+00 0.  1.
         23    2    1    2    0    0  0.60256234501E+02  0.16397918001E+03  0.10597796553E+03  0.23957903008E+03  0.12508715843E+03 0.  0.
          5    1    3    3  502    0  0.92380920840E+02  0.14829703742E+03  0.68767743120E+02  0.18781033181E+03  0.41800000000E+01 0.  1.
         -5    1    3    3    0  502 -0.32124686339E+02  0.15682142592E+02  0.37210222411E+02  0.51768698270E+02  0.41800000000E+01 0.  1.
        -11    1    1    2    0    0  0.51004426189E+01 -0.11029924015E+03  0.37791561400E+03  0.39371582163E+03  0.00000000000E+00 0. -1.
         11    1    1    2    0    0 -0.65356677120E+02 -0.53679939863E+02  0.22711311345E+03  0.24234974208E+03  0.00000000000E+00 0.  1.
</event>
<event>
 7    1  0.6473813E-006  0.9379385E+02  0.7561462E-02  0.1293916E+00
         -1   -1    0    0    0  501 -0.00000000000E+00  0.00000000000E+00  0.67026346436E+02  0.67026346436E+02  0.00000000000E+00 0.  1.
          1   -1    0    0  501    0  0.00000000000E+00 -0.00000000000E+00 -0.18647054321E+03  0.18647054321E+03  0.00000000000E+00 0. -1.
         23    2    1    2    0    0  0.76048392259E+00 -0.22158556311E+02 -0.60116360228E+02  0.14054848571E+03  0.12509324569E+03 0.  0.
          5    1    3    3  502    0 -0.40417580500E+02 -0.49101993105E+02 -0.64861283208E+02  0.90934289461E+02  0.41800000000E+01 0.  1.
         -5    1    3    3    0  502  0.41178064423E+02  0.26943436794E+02  0.47449229799E+01  0.49614196254E+02  0.41800000000E+01 0.  1.
        -11    1    1    2    0    0  0.35114195282E+02  0.12979599804E+02 -0.65464803522E+02  0.75412977805E+02  0.00000000000E+00 0. -1.
         11    1    1    2    0    0 -0.35874679204E+02  0.91789565072E+01  0.61369669782E+01  0.37535426123E+02  0.00000000000E+00 0.  1.
</event>
<event>
 7    1  0.6473813E-006  0.9859290E+02  0.7561462E-02  0.1283283E+00
         -2   -1    0    0    0  501 -0.00000000000E+00  0.00000000000E+00  0.27454230007E+02  0.27454230007E+02  0.00000000000E+00 0.  1.
          2   -1    0    0  501    0  0.00000000000E+00 -0.00000000000E+00 -0.47990728109E+03  0.47990728109E+03  0.00000000000E+00 0. -1.
         23    2    1    2    0    0 -0.35495218380E+02  0.14136802888E+02 -0.22921291596E+03  0.26390481869E+03  0.12508969885E+03 0.  0.
          5    1    3    3  502    0 -0.63003894131E+02  0.34958475715E+02 -0.21422830653E+03  0.22605934048E+03  0.41800000000E+01 0.  1.
         -5    1    3    3    0  502  0.27508675751E+02 -0.20821672827E+02 -0.14984609435E+02  0.37845478209E+02  0.41800000000E+01 0.  1.
        -11    1    1    2    0    0 -0.12508929121E+02  0.25241072676E+02 -0.11755066145E+03  0.12087904312E+03  0.00000000000E+00 0. -1.
         11    1    1    2    0    0  0.48004147500E+02 -0.39377875563E+02 -0.10568947366E+03  0.12257764929E+03  0.00000000000E+00 0.  1.
</event>
<event>
 7    1  0.6473813E-006  0.1230730E+03  0.7561462E-02  0.1238112E+00
          2   -1    0    0  501    0  0.00000000000E+00  0.00000000000E+00  0.63078043771E+03  0.63078043771E+03  0.00000000000E+00 0. -1.
         -2   -1    0    0    0  501 -0.00000000000E+00 -0.00000000000E+00 -0.27812915054E+02  0.27812915054E+02  0.00000000000E+00 0.  1.
         23    2    1    2    0    0 -0.16693510928E+02  0.71841525393E+02  0.28612288856E+03  0.32086496467E+03  0.12509252623E+03 0.  0.
          5    1    3    3  502    0 -0.70487936120E+02  0.29107823282E+02  0.15253919822E+03  0.17059159976E+03  0.41800000000E+01 0.  1.
         -5    1    3    3    0  502  0.53794425192E+02  0.42733702111E+02  0.13358369033E+03  0.15027336491E+03  0.41800000000E+01 0.  1.
        -11    1    1    2    0    0 -0.26842840886E+02 -0.21552417480E+02  0.38941708235E+02  0.51975969893E+02  0.00000000000E+00 0.  1.
         11    1    1    2    0    0  0.43536351814E+02 -0.50289107913E+02  0.27790292587E+03  0.28575241821E+03  0.00000000000E+00 0. -1.
</event>
<event>
 6    1  0.6473813E-006  0.8932330E+02  0.7561462E-02  0.1304499E+00
         -1   -1    0    0    0  501 -0.00000000000E+00  0.00000000000E+00  0.75504620635E+02  0.75504620635E+02  0.00000000000E+00 0.  1.
          1   -1    0    0  501    0  0.00000000000E+00 -0.00000000000E+00 -0.21097778701E+03  0.21097778701E+03  0.00000000000E+00 0. -1.
          5    1    1    2  502    0 -0.12684167555E+02 -0.13078161701E+02  0.34521561962E+02  0.39257318558E+02  0.41800000000E+01 0. -1.
         -5    1    1    2    0  502  0.60527077629E+02 -0.94947296830E+01 -0.10887257100E+03  0.12499754451E+03  0.41800000000E+01 0.  1.
        -11    1    1    2    0    0 -0.49517669008E+02 -0.21825841440E+02 -0.55377138342E+02  0.77427348847E+02  0.00000000000E+00 0. -1.
         11    1    1    2    0    0  0.16747589342E+01  0.44398732825E+02 -0.57450189955E+01  0.44800195727E+02  0.00000000000E+00 0.  1.
</event>
<event>
 7    1  0.6473813E-006  0.1035562E+03  0.7561462E-02  0.1272991E+00
         -3   -1    0    0    0  501 -0.00000000000E+00  0.00000000000E+00  0.57341089769E+02  0.57341089769E+02  0.00000000000E+00 0.  1.
          3   -1    0    0  501    0  0.00000000000E+00 -0.00000000000E+00 -0.25387218265E+03  0.25387218265E+03  0.00000000000E+00 0. -1.
         23    2    1    2    0    0 -0.41982440550E+02  0.31832334696E+02 -0.10150232383E+03  0.16948780691E+03  0.12509025583E+03 0.  0.
          5    1    3    3  502    0  0.35304289174E+02  0.34357303284E+02 -0.11508904470E+02  0.50761643050E+02  0.41800000000E+01 0. -1.
         -5    1    3    3    0  502 -0.77286729724E+02 -0.25249685879E+01 -0.89993419359E+02  0.11872616386E+03  0.41800000000E+01 0. -1.
        -11    1    1    2    0    0 -0.14657219912E+02 -0.15392088726E+02 -0.77258891516E+02  0.80129188247E+02  0.00000000000E+00 0. -1.
         11    1    1    2    0    0  0.56639660462E+02 -0.16440245969E+02 -0.17769877538E+02  0.61596277262E+02  0.00000000000E+00 0.  1.
</event>
<event>
 7    1  0.6473813E-006  0.1930207E+03  0.7561462E-02  0.1155765E+00
          2   -1    0    0  501    0  0.00000000000E+00  0.00000000000E+00  0.24302546786E+03  0.24302546786E+03  0.00000000000E+00 0. -1.
         -2   -1    0    0    0  501 -0.00000000000E+00 -0.00000000000E+00 -0.19434685806E+03  0.19434685806E+03  0.00000000000E+00 0.  1.
         23    2    1    2    0    0  0.18221236389E+03 -0.45321591787E+02  0.33796439702E+02  0.22816631194E+03  0.12514900850E+03 0.  0.
          5    1    3    3  502    0  0.90011464555E+02 -0.49611571561E+02  0.74696157184E+02  0.12712340493E+03  0.41800000000E+01 0. -1.
         -5    1    3    3    0  502  0.92200899337E+02  0.42899797740E+01 -0.40899717482E+02  0.10104290700E+03  0.41800000000E+01 0. -1.
        -11    1    1    2    0    0 -0.92449437570E+02  0.40382208669E+02 -0.34520981762E+02  0.10662701096E+03  0.00000000000E+00 0. -1.
         11    1    1    2    0    0 -0.89762926323E+02  0.49393831181E+01  0.49403151868E+02  0.10257900303E+03  0.00000000000E+00 0.  1.
</event>
<event>
 7    1  0.6473813E-006  0.6199336E+02  0.7561462E-02  0.1389652E+00
          1   -1    0    0  501    0  0.00000000000E+00  0.00000000000E+00  0.31595566209E+03  0.31595566209E+03  0.00000000000E+00 0. -1.
         -1   -1    0    0    0  501 -0.00000000000E+00 -0.00000000000E+00 -0.54082200478E+02  0.54082200478E+02  0.00000000000E+00 0.  1.
         23    2    1    2    0    0  0.90443557097E+01  0.16805904592E+02  0.30526134635E+02  0.12051344637E+03  0.11501046501E+03 0.  0.
          5    1    3    3  502    0  0.21639335072E+01  0.23501550573E+02  0.72965537866E+02  0.76801351575E+02  0.41800000000E+01 0. -1.
         -5    1    3    3    0  502  0.68804222026E+01 -0.66956459810E+01 -0.42439403232E+02  0.43712094796E+02  0.41800000000E+01 0.  1.
        -11    1    1    2    0    0 -0.49907719069E+01  0.36121638006E+02  0.13127009327E+03  0.13624066178E+03  0.00000000000E+00 0.  1.
         11    1    1    2    0    0 -0.40535838029E+01 -0.52927542598E+02  0.10007723371E+03  0.11328375441E+03  0.00000000000E+00 0. -1.
</event>
<event>
 7    1  0.6473813E-006  0.1459058E+03  0.7561462E-02  0.1205596E+00
          4   -1    0    0  501    0  0.00000000000E+00  0.00000000000E+00  0.54418261437E+03  0.54418261437E+03  0.00000000000E+00 0. -1.
         -4   -1    0    0    0  501 -0.00000000000E+00 -0.00000000000E+00 -0.53347306821E+02  0.53347306821E+02  0.00000000000E+00 0.  1.
         23    2    1    2    0    0  0.11336335865E+03  0.16798475310E+02  0.15113985693E+03  0.22720705915E+03  0.12508537692E+03 0.  0.
          5    1    3    3  502    0  0.65528760022E+02 -0.39843253139E+02  0.24886913031E+02  0.80736200375E+02  0.41800000000E+01 0. -1.
         -5    1    3    3    0  502  0.47834598626E+02  0.56641728449E+02  0.12625294390E+03  0.14647085878E+03  0.41800000000E+01 0. -1.
        -11    1    1    2    0    0 -0.71150138189E+02  0.30449967967E+02  0.13029045386E+03  0.15154255204E+03  0.00000000000E+00 0. -1.
         11    1    1    2    0    0 -0.42213220459E+02 -0.47248443277E+02  0.20940499676E+03  0.21878030999E+03  0.00000000000E+00 0.  1.
</event>
<event>
 7    1  0.6473813E-006  0.1369084E+03  0.7561462E-02  0.1217550E+00
          1   -1    0    0  501    0  0.00000000000E+00  0.00000000000E+00  0.46997075765E+03  0.46997075765E+03  0.00000000000E+00 0. -1.
         -1   -1    0    0    0  501 -0.00000000000E+00 -0.00000000000E+00 -0.83114207524E+02  0.83114207524E+02  0.00000000000E+00 0.  1.
         23    2    1    2    0    0  0.25387917065E+02 -0.13148650820E+03  0.67039607480E+02  0.19512808785E+03  0.12508962198E+03 0.  0.
          5    1    3    3  502    0  0.20898558513E+02 -0.68572132878E+02  0.10056873305E+03  0.12357357979E+03  0.41800000000E+01 0. -1.
         -5    1    3    3    0  502  0.44893585519E+01 -0.62914375319E+02 -0.33529125572E+02  0.71554508059E+02  0.41800000000E+01 0. -1.
        -11    1    1    2    0    0  0.94471025041E+01  0.33267674926E+02  0.18697457281E+02  0.39313876042E+02  0.00000000000E+00 0.  1.
         11    1    1    2    0    0 -0.34835019569E+02  0.98218833271E+02  0.30111948537E+03  0.31864300128E+03  0.00000000000E+00 0. -1.
</event>
<event>
 7    1  0.6473813E-006  0.2225521E+03  0.7561462E-02  0.1131995E+00
          3   -1    0    0  501    0  0.00000000000E+00  0.00000000000E+00  0.13089379624E+03  0.13089379624E+03  0.00000000000E+00 0. -1.
         -3   -1    0    0    0  501 -0.00000000000E+00 -0.00000000000E+00 -0.46131716992E+03  0.46131716992E+03  0.00000000000E+00 0.  1.
         23    2    1    2    0    0 -0.61913935790E+02 -0.20855233358E+03 -0.19963298575E+03  0.32067029654E+03  0.12509475929E+03 0.  0.
          5    1    3    3  502    0 -0.58801910794E+02 -0.97861659041E+02 -0.17196387592E+03  0.20645487654E+03  0.41800000000E+01 0.  1.
         -5    1    3    3    0  502 -0.31120249957E+01 -0.11069067454E+03 -0.27669109824E+02  0.11421542001E+03  0.41800000000E+01 0.  1.
        -11    1    1    2    0    0  0.23924414602E+02  0.13660571279E+03 -0.13013073083E+03  0.19017756305E+03  0.00000000000E+00 0.  1.
         11    1    1    2    0    0  0.37989521188E+02  0.71946620783E+02 -0.65965710940E+00  0.81363106563E+02  0.00000000000E+00 0. -1.
</event>
<event>
 7    1  0.6473813E-006  0.1080662E+03  0.7561462E-02  0.1264193E+00
         -1   -1    0    0    0  501 -0.00000000000E+00  0.00000000000E+00  0.38008981246E+02  0.38008981246E+02  0.00000000000E+00 0. -1.
          1   -1    0    0  501    0  0.00000000000E+00 -0.00000000000E+00 -0.32074772023E+03  0.32074772023E+03  0.00000000000E+00 0.  1.
         23    2    1    2    0    0 -0.70393151051E+01 -0.10559503499E+02 -0.14030836539E+03  0.18840367400E+03  0.12509377245E+03 0.  0.
          5    1    3    3  502    0 -0.64638298898E+02 -0.61181142595E+01 -0.54477195953E+02  0.84857399710E+02  0.41800000000E+01 0. -1.
         -5    1    3    3    0  502  0.57598983793E+02 -0.44413892396E+01 -0.85831169433E+02  0.10354627429E+03  0.41800000000E+01 0. -1.
        -11    1    1    2    0    0 -0.37251423647E+02 -0.17039754926E+02 -0.55868049789E+02  0.69276697373E+02  0.00000000000E+00 0. -1.
         11    1    1    2    0    0  0.44290738752E+02  0.27599258425E+02 -0.86562323808E+02  0.10107633011E+03  0.00000000000E+00 0.  1.
</event>
<event>
 7    1  0.6473813E-006  0.8938916E+02  0.7561462E-02  0.1304338E+00
          2   -1    0    0  501    0  0.00000000000E+00  0.00000000000E+00  0.33192602668E+02  0.33192602668E+02  0.00000000000E+00 0. -1.
         -2   -1    0    0    0  501 -0.00000000000E+00 -0.00000000000E+00 -0.68343722311E+03  0.68343722311E+03  0.00000000000E+00 0.  1.
         23    2    1    2    0    0  0.56733269354E+00  0.19491625151E+02 -0.59541282355E+03  0.60872348931E+03  0.12509040997E+03 0.  0.
          5    1    3    3  502    0  0.56671600551E+02  0.46353157232E+00 -0.17148362388E+03  0.18065434075E+03  0.41800000000E+01 0.  1.
         -5    1    3    3    0  502 -0.56104267858E+02  0.19028093579E+02 -0.42392919967E+03  0.42806914856E+03  0.41800000000E+01 0.  1.
        -11    1    1    2    0    0  0.22506026316E+02 -0.29754520143E+02 -0.69371308622E+02  0.78766941984E+02  0.00000000000E+00 0.  1.
         11    1    1    2    0    0 -0.23073359009E+02  0.10262894992E+02  0.14539511733E+02  0.29139394486E+02  0.00000000000E+00 0. -1.
</event>
<event>
 7    1  0.6473813E-006  0.1207828E+03  0.7561462E-02  0.1241811E+00
          3   -1    0    0  501    0  0.00000000000E+00  0.00000000000E+00  0.26889129497E+03  0.26889129497E+03  0.00000000000E+00 0. -1.
         -3   -1    0    0    0  501 -0.00000000000E+00 -0.00000000000E+00 -0.76866555332E+02  0.76866555332E+02  0.00000000000E+00 0.  1.
         23    2    1    2    0    0  0.59395372095E+02  0.60416019514E+02  0.55535810530E+02  0.16096507868E+03  0.12509046591E+03 0.  0.
          5    1    3    3  502    0 -0.22003436205E+02  0.76598992609E+01 -0.25286942248E+02  0.34637077096E+02  0.41800000000E+01 0. -1.
         -5    1    3    3    0  502  0.81398808300E+02  0.52756120253E+02  0.80822752779E+02  0.12632800158E+03  0.41800000000E+01 0. -1.
        -11    1    1    2    0    0 -0.72897559536E+02 -0.16338738691E+02  0.61483691897E+02  0.96753568087E+02  0.00000000000E+00 0.  1.
         11    1    1    2    0    0  0.13502187441E+02 -0.44077280824E+02  0.75005237211E+02  0.88039203538E+02  0.00000000000E+00 0. -1.
</event>
<event>
 6    1  0.6473813E-006  0.1339680E+03  0.7561462E-02  0.1221684E+00
          2   -1    0    0  501    0  0.00000000000E+00  0.00000000000E+00  0.70534681756E+02  0.70534681756E+02  0.00000000000E+00 0. -1.
         -2   -1    0    0    0  501 -0.00000000000E+00 -0.00000000000E+00 -0.33815375280E+03  0.33815375280E+03  0.00000000000E+00 0.  1.
          5    1    1    2  502    0 -0.40975887181E+02  0.98421622761E+02 -0.85468701668E+02  0.13670482991E+03  0.41800000000E+01 0. -1.
         -5    1    1    2    0  502 -0.97855445559E+01 -0.52016919309E+02 -0.94122376977E+02  0.10806484639E+03  0.41800000000E+01 0.  1.
        -11    1    1    2    0    0  0.58476797662E+02 -0.65349750603E+02 -0.16126225871E+02  0.89163787097E+02  0.00000000000E+00 0.  1.
         11    1    1    2    0    0 -0.77153659250E+01  0.18945047151E+02 -0.71901766528E+02  0.74754971158E+02  0.00000000000E+00 0. -1.
</event>
<event>
 7    1  0.6473813E-006  0.1483379E+03  0.7561462E-02  0.1202530E+00
          2   -1    0    0  501    0  0.00000000000E+00  0.00000000000E+00  0.32208922145E+03  0.32208922145E+03  0.00000000000E+00 0. -1.
         -2   -1    0    0    0  501 -0.00000000000E+00 -0.00000000000E+00 -0.12594154600E+03  0.12594154600E+03  0.00000000000E+00 0.  1.
         23    2    1    2    0    0 -0.58723430966E+01 -0.14340842685E+03  0.27237001853E+01  0.19040556629E+03  0.12508557001E+03 0.  0.
          5    1    3    3  502    0 -0.25876911957E+02 -0.89396786250E+02 -0.55467681495E+02  0.10842294985E+03  0.41800000000E+01 0. -1.
         -5    1    3    3    0  502  0.20004568861E+02 -0.54011640596E+02  0.58191381681E+02  0.81982616433E+02  0.41800000000E+01 0. -1.
        -11    1    1    2    0    0 -0.72442497565E+01  0.10359931095E+03  0.64957472730E+02  0.12249395760E+03  0.00000000000E+00 0.  1.
         11    1    1    2    0    0  0.13116592853E+02  0.39809115892E+02  0.12846650254E+03  0.13513124357E+03  0.00000000000E+00 0. -1.
</event>
<event>
 7    1  0.6473813E-006  0.8473798E+02  0.7561462E-02  0.1316119E+00
         -3   -1    0    0    0  501 -0.00000000000E+00  0.00000000000E+00  0.38188394441E+03  0.38188394441E+03  0.00000000000E+00 0.  1.
          3   -1    0    0  501    0  0.00000000000E+00 -0.00000000000E+00 -0.37813157907E+02  0.37813157907E+02  0.00000000000E+00 0. -1.
         23    2    1    2    0    0  0.31488621743E+00  0.49339300540E+02  0.21911584120E+03  0.25708684523E+03  0.12508968140E+03 0.  0.
          5    1    3    3  502    0  0.10104588668E+02  0.64008886781E+02  0.22788203964E+03  0.23695344836E+03  0.41800000000E+01 0. -1.
         -5    1    3    3    0  502 -0.97897024508E+01 -0.14669586241E+02 -0.87661984360E+01  0.20133396871E+02  0.41800000000E+01 0. -1.
        -11    1    1    2    0    0  0.30008026050E+02 -0.47309946041E+02  0.31358164217E+02  0.64203170365E+02  0.00000000000E+00 0. -1.
         11    1    1    2    0    0 -0.30322912267E+02 -0.20293544987E+01  0.93596781081E+02  0.98407086720E+02  0.00000000000E+00 0.  1.
</event>
<event>
 7    1  0.6473813E-006  0.1191587E+03  0.7561462E-02  0.1244491E+00
          2   -1    0    0  501    0  0.00000000000E+00  0.00000000000E+00  0.31540046440E+03  0.31540046440E+03  0.00000000000E+00 0. -1.
         -2   -1    0    0    0  501 -0.00000000000E+00 -0.00000000000E+00 -0.57335146909E+02  0.57335146909E+02  0.00000000000E+00 0.  1.
         23    2    1    2    0    0  0.47378381627E+02  0.28301511685E+02  0.63865778392E+02  0.15090677278E+03  0.12509328443E+03 0.  0.
          5    1    3    3  502    0  0.18249111473E+02  0.77146425883E+02  0.32086983381E+02  0.85625043057E+02  0.41800000000E+01 0.  1.
         -5    1    3    3    0  502  0.29129270154E+02 -0.48844914198E+02  0.31778795011E+02  0.65281729718E+02  0.41800000000E+01 0.  1.
        -11    1    1    2    0    0 -0.21176182636E+02  0.30731141456E+02  0.40301544463E+02  0.54927663816E+02  0.00000000000E+00 0.  1.
         11    1    1    2    0    0 -0.26202198991E+02 -0.59032653141E+02  0.15389799464E+03  0.16690117472E+03  0.00000000000E+00 0. -1.
</event>
<event>
 7    1  0.6473813E-006  0.1072071E+03  0.7561462E-02  0.1265831E+00
         -1   -1    0    0    0  501 -0.00000000000E+00  0.00000000000E+00  0.65563521248E+02  0.65563521248E+02  0.00000000000E+00 0.  1.
          1   -1    0    0  501    0  0.00000000000E+00 -0.00000000000E+00 -0.22659670374E+03  0.22659670374E+03  0.00000000000E+00 0. -1.
         23    2    1    2    0    0  0.15148399216E+02 -0.43578005758E+02 -0.54659721146E+02  0.14409549242E+03  0.12508920511E+03 0.  0.
          5    1    3    3  502    0 -0.68790339195E+01  0.41822078968E+02 -0.52376131488E+01  0.42910516058E+02  0.41800000000E+01 0.  1.
         -5    1    3    3    0  502  0.22027433135E+02 -0.85400084726E+02 -0.49422107998E+02  0.10118497636E+03  0.41800000000E+01 0.  1.
        -11    1    1    2    0    0  0.27777592683E+02  0.22293205483E+02 -0.91037572460E+02  0.97756949959E+02  0.00000000000E+00 0. -1.
         11    1    1    2    0    0 -0.42925991899E+02  0.21284800275E+02 -0.15335888881E+02  0.50307782609E+02  0.00000000000E+00 0.  1.
</event>
<event>
 7    1  0.6473813E-006  0.1550892E+03  0.7561462E-02  0.1194355E+00
         -2   -1    0    0    0  501 -0.00000000000E+00  0.00000000000E+00  0.42584053783E+02  0.42584053783E+02  0.00000000000E+00 0.  1.
          2   -1    0    0  501    0  0.00000000000E+00 -0.00000000000E+00 -0.60470987464E+03  0.60470987464E+03  0.00000000000E+00 0. -1.
         23    2    1    2    0    0 -0.10269735406E+03 -0.49045757801E+02 -0.24286726232E+03  0.29589869069E+03  0.12497717853E+03 0.  0.
          5    1    3    3  502    0 -0.94575804974E+02 -0.87826869090E+02 -0.18875892070E+03  0.22870405411E+03  0.41800000000E+01 0. -1.
         -5    1    3    3    0  502 -0.81215490895E+01  0.38781111289E+02 -0.54108341622E+02  0.67194636583E+02  0.41800000000E+01 0. -1.
        -11    1    1    2    0    0  0.25844158911E+02  0.58321379774E+02 -0.19326706168E+03  0.20352263024E+03  0.00000000000E+00 0. -1.
         11    1    1    2    0    0  0.76853195152E+02 -0.92756219728E+01 -0.12599149685E+03  0.14787260749E+03  0.00000000000E+00 0.  1.
</event>
<event>
 7    1  0.6473813E-006  0.1227159E+03  0.7561462E-02  0.1238683E+00
         -1   -1    0    0    0  501 -0.00000000000E+00  0.00000000000E+00  0.29961611361E+02  0.29961611361E+02  0.00000000000E+00 0.  1.
          1   -1    0    0  501    0  0.00000000000E+00 -0.00000000000E+00 -0.64647635368E+03  0.64647635368E+03  0.00000000000E+00 0. -1.
         23    2    1    2    0    0  0.15638915044E+02 -0.85604334096E+02 -0.31795459561E+03  0.35258519577E+03  0.12509403555E+03 0.  0.
          5    1    3    3  502    0  0.24636042238E+02  0.77344024471E+01 -0.60300583899E+01  0.26843799332E+02  0.41800000000E+01 0.  1.
         -5    1    3    3    0  502 -0.89971271941E+01 -0.93338736543E+02 -0.31192453722E+03  0.32574139644E+03  0.41800000000E+01 0.  1.
        -11    1    1    2    0    0  0.36945357428E+02  0.48876580374E+02 -0.15084121112E+03  0.16280955291E+03  0.00000000000E+00 0. -1.
         11    1    1    2    0    0 -0.52584272472E+02  0.36727753722E+02 -0.14771893558E+03  0.16104321636E+03  0.00000000000E+00 0.  1.
</event>
<event>
 6    1  0.6473813E-006  0.1524365E+03  0.7561462E-02  0.1197511E+00
          1   -1    0    0  501    0  0.00000000000E+00  0.00000000000E+00  0.12162924182E+03  0.12162924182E+03  0.00000000000E+00 0. -1.
         -1   -1    0    0    0  501 -0.00000000000E+00 -0.00000000000E+00 -0.31321103612E+03  0.31321103612E+03  0.00000000000E+00 0.  1.
          5    1    1    2  502    0 -0.88866223781E+02  0.99435101643E+02 -0.15027229300E+03  0.20095715865E+03  0.41800000000E+01 0. -1.
         -5    1    1    2    0  502  0.14252835918E+02 -0.30274940276E+02 -0.82666049747E+02  0.89279692658E+02  0.41800000000E+01 0.  1.
        -11    1    1    2    0    0  0.44439175483E+02 -0.90463993571E+02  0.37190347210E+02  0.10743228740E+03  0.00000000000E+00 0. -1.
         11    1    1    2    0    0  0.30174212381E+02  0.21303832204E+02  0.41662012371E+01  0.37171139237E+02  0.00000000000E+00 0.  1.
</event>
<event>
 7    1  0.6473813E-006  0.1002786E+03  0.7561462E-02  0.1279711E+00
          3   -1    0    0  501    0  0.00000000000E+00  0.00000000000E+00  0.92291810798E+02  0.92291810798E+02  0.00000000000E+00 0. -1.
         -3   -1    0    0    0  501 -0.00000000000E+00 -0.00000000000E+00 -0.21181555676E+03  0.21181555676E+03  0.00000000000E+00 0.  1.
         23    2    1    2    0    0 -0.21965015914E+02  0.79001462391E+02 -0.10946760219E+03  0.18534872732E+03  0.12508917541E+03 0.  0.
          5    1    3    3  502    0 -0.39479639481E+01  0.29873607124E+01  0.27152722280E+02  0.27915111867E+02  0.41800000000E+01 0.  1.
         -5    1    3    3    0  502 -0.18017051966E+02  0.76014101678E+02 -0.13662032447E+03  0.15743361545E+03  0.41800000000E+01 0.  1.
        -11    1    1    2    0    0  0.97465874247E+01  0.16716977877E+02 -0.11000228603E+02  0.22258893618E+02  0.00000000000E+00 0.  1.
         11    1    1    2    0    0  0.12218428489E+02 -0.95718440268E+02  0.94408483055E+00  0.96499746622E+02  0.00000000000E+00 0. -1.
</event>
<event>
 6    1  0.6473813E-006  0.1851356E+03  0.7561462E-02  0.1162923E+00
          2   -1    0    0  501    0  0.00000000000E+00  0.00000000000E+00  0.12875077980E+03  0.12875077980E+03  0.00000000000E+00 0. -1.
         -2   -1    0    0    0  501 -0.00000000000E+00 -0.00000000000E+00 -0.58257885273E+03  0.58257885273E+03  0.00000000000E+00 0.  1.
          5    1    1    2  502    0  0.29275857931E+02 -0.45341068022E+02 -0.26205650105E+02  0.60142304615E+02  0.41800000000E+01 0. -1.
         -5    1    1    2    0  502  0.10749611383E+03  0.11927870317E+03 -0.44225624794E+03  0.47052192803E+03  0.41800000000E+01 0.  1.
        -11    1    1    2    0    0 -0.30933707084E+02 -0.15145502328E+02 -0.35647370857E+02  0.49568291516E+02  0.00000000000E+00 0.  1.
         11    1    1    2    0    0 -0.10583826468E+03 -0.58792132825E+02  0.50281195972E+02  0.13109710836E+03  0.00000000000E+00 0. -1.
</event>
<event>
 6    1  0.6473813E-006  0.3406799E+03  0.7561462E-02  0.1066507E+00
          2   -1    0    0  501    0  0.00000000000E+00  0.00000000000E+00  0.11927181442E+04  0.11927181442E+04  0.00000000000E+00 0. -1.
         -2   -1    0    0    0  501 -0.00000000000E+00 -0.00000000000E+00 -0.11696946928E+03  0.11696946928E+03  0.00000000000E+00 0.  1.
          5    1    1    2  502    0 -0.30976243311E+03  0.74683545262E+02  0.49075950732E+03  0.58514336989E+03  0.41800000000E+01 0. -1.
         -5    1    1    2    0  502  0.24294464592E+03 -0.28659292794E+01  0.19184503213E+03  0.30960023141E+03  0.41800000000E+01 0.  1.
        -11    1    1    2    0    0  0.78781593867E+02 -0.73341595997E+02  0.38643023273E+03  0.40114069103E+03  0.00000000000E+00 0.  1.
         11    1    1    2    0    0 -0.11963806679E+02  0.15239800143E+01  0.67139027899E+01  0.13803321195E+02  0.00000000000E+00 0. -1.
</event>
<event>
 7    1  0.6473813E-006  0.8670434E+02  0.7561462E-02  0.1311035E+00
         -2   -1    0    0    0  501 -0.00000000000E+00  0.00000000000E+00  0.44604957611E+02  0.44604957611E+02  0.00000000000E+00 0.  1.
          2   -1    0    0  501    0  0.00000000000E+00 -0.00000000000E+00 -0.29532360348E+03  0.29532360348E+03  0.00000000000E+00 0. -1.
         23    2    1    2    0    0 -0.82758147165E+01 -0.10504840716E+02 -0.10881138334E+03  0.16632797087E+03  0.12508491501E+03 0.  0.
          5    1    3    3  502    0 -0.32780558287E+02 -0.42621918369E+02 -0.41835212406E+01  0.54094058611E+02  0.41800000000E+01 0.  1.
         -5    1    3    3    0  502  0.24504743571E+02  0.32117077653E+02 -0.10462786209E+03  0.11223391226E+03  0.41800000000E+01 0.  1.
        -11    1    1    2    0    0  0.34767105837E+02  0.30040469825E+02 -0.25333018166E+02  0.52468498025E+02  0.00000000000E+00 0.  1.
         11    1    1    2    0    0 -0.26491291120E+02 -0.19535629109E+02 -0.11657424437E+03  0.12113209220E+03  0.00000000000E+00 0. -1.
</event>
<event>
 7    1  0.6473813E-006  0.3313113E+03  0.7561462E-02  0.1070558E+00
          2   -1    0    0  501    0  0.00000000000E+00  0.00000000000E+00  0.62741885094E+03  0.62741885094E+03  0.00000000000E+00 0. -1.
         -2   -1    0    0    0  501 -0.00000000000E+00 -0.00000000000E+00 -0.36916435770E+03  0.36916435770E+03  0.00000000000E+00 0.  1.
         23    2    1    2    0    0 -0.31552147754E+03 -0.50057606279E+02 -0.22469278713E+03  0.41011634654E+03  0.12509597269E+03 0.  0.
          5    1    3    3  502    0 -0.20073632540E+03 -0.87471075741E+02 -0.17129890569E+03  0.27804145180E+03  0.41800000000E+01 0.  1.
         -5    1    3    3    0  502 -0.11478515213E+03  0.37413469463E+02 -0.53393881439E+02  0.13207489475E+03  0.41800000000E+01 0.  1.
        -11    1    1    2    0    0  0.11911359780E+03  0.41796239095E+02  0.12251588525E+03  0.17591224210E+03  0.00000000000E+00 0. -1.
         11    1    1    2    0    0  0.19640787974E+03  0.82613671840E+01  0.36043139512E+03  0.41055461999E+03  0.00000000000E+00 0.  1.
</event>
<event>
 7    1  0.6473813E-006  0.1597496E+03  0.7561462E-02  0.1188980E+00
         -1   -1    0    0    0  501 -0.00000000000E+00  0.00000000000E+00  0.95313474400E+02  0.95313474400E+02  0.00000000000E+00 0.  1.
          1   -1    0    0  501    0  0.00000000000E+00 -0.00000000000E+00 -0.30923515830E+03  0.30923515830E+03  0.00000000000E+00 0. -1.
         23    2    1    2    0    0  0.87586667529E+02  0.88328062900E+02 -0.76886540703E+02  0.19243793031E+03  0.12509015092E+03 0.  0.
          5    1    3    3  502    0  0.10288133321E+03  0.10174069009E+03 -0.40116394193E+02  0.15020830279E+03  0.41800000000E+01 0. -1.
         -5    1    3    3    0  502 -0.15294665683E+02 -0.13412627189E+02 -0.36770146510E+02  0.42229627524E+02  0.41800000000E+01 0. -1.
        -11    1    1    2    0    0 -0.92026678399E+02 -0.31932867643E+02 -0.11666626705E+03  0.15198564222E+03  0.00000000000E+00 0. -1.
         11    1    1    2    0    0  0.44400108697E+01 -0.56395195257E+02 -0.20368876142E+02  0.60125060165E+02  0.00000000000E+00 0.  1.
</event>
<event>
 7    1  0.6473813E-006  0.1598635E+03  0.7561462E-02  0.1188851E+00
         -2   -1    0    0    0  501 -0.00000000000E+00  0.00000000000E+00  0.41044250636E+02  0.41044250636E+02  0.00000000000E+00 0.  1.
          2   -1    0    0  501    0  0.00000000000E+00 -0.00000000000E+00 -0.73506414086E+03  0.73506414086E+03  0.00000000000E+00 0. -1.
         23    2    1    2    0    0  0.64952103123E+02  0.11837556557E+03 -0.36595677867E+03  0.40963776070E+03  0.12508869220E+03 0.  0.
          5    1    3    3  502    0 -0.10707325084E+01  0.10418693267E+03 -0.14533075561E+03  0.17887024440E+03  0.41800000000E+01 0.  1.
         -5    1    3    3    0  502  0.66022835631E+02  0.14188632899E+02 -0.22062602306E+03  0.23076751630E+03  0.41800000000E+01 0.  1.
        -11    1    1    2    0    0 -0.73770211149E+02 -0.81727957359E+02 -0.29974412903E+03  0.31932435854E+03  0.00000000000E+00 0.  1.
         11    1    1    2    0    0  0.88181080265E+01 -0.36647608206E+02 -0.28318982524E+02  0.47146272255E+02  0.00000000000E+00 0. -1.
</event>
<event>
 7    1  0.6473813E-006  0.1120315E+03  0.7561462E-02  0.1256853E+00
          2   -1    0    0  501    0  0.00000000000E+00  0.00000000000E+00  0.84976589684E+03  0.84976589684E+03  0.00000000000E+00 0. -1.
         -2   -1    0    0    0  501 -0.00000000000E+00 -0.00000000000E+00 -0.14815136317E+02  0.14815136317E+02  0.00000000000E+00 0.  1.
         23    2    1    2    0    0  0.29709957138E+02 -0.13382892017E+02  0.50281949520E+03  0.51916916028E+03  0.12508952349E+03 0.  0.
          5    1    3    3  502    0  0.57376138478E+02  0.39257630199E+02  0.26927919338E+03  0.27814014306E+03  0.41800000000E+01 0.  1.
         -5    1    3    3    0  502 -0.27666181340E+02 -0.52640522217E+02  0.23354030182E+03  0.24102901722E+03  0.41800000000E+01 0.  1.
        -11    1    1    2    0    0 -0.18578624481E+02 -0.37961774481E+02  0.15405008880E+03  0.15974257876E+03  0.00000000000E+00 0.  1.
         11    1    1    2    0    0 -0.11131332658E+02  0.51344666498E+02  0.17808117653E+03  0.18566929412E+03  0.00000000000E+00 0. -1.
</event>
<event>
 7    1  0.6473813E-006  0.1074094E+03  0.7561462E-02  0.1265444E+00
         -2   -1    0    0    0  501 -0.00000000000E+00  0.00000000000E+00  0.44452910094E+02  0.44452910094E+02  0.00000000000E+00 0. -1.
          2   -1    0    0  501    0  0.00000000000E+00 -0.00000000000E+00 -0.39698723324E+03  0.39698723324E+03  0.00000000000E+00 0.  1.
         23    2    1    2    0    0 -0.35503165795E+02  0.46520868584E+02 -0.11905641629E+03  0.18233964348E+03  0.12509456154E+03 0.  0.
          5    1    3    3  502    0  0.25681406250E+02 -0.28643271950E+02 -0.50173478347E+02  0.63362622929E+02  0.41800000000E+01 0.  1.
         -5    1    3    3    0  502 -0.61184572046E+02  0.75164140534E+02 -0.68882937945E+02  0.11897702055E+03  0.41800000000E+01 0.  1.
        -11    1    1    2    0    0 -0.37412934134E+01 -0.38969787488E+02 -0.20811992288E+03  0.21177002600E+03  0.00000000000E+00 0.  1.
         11    1    1    2    0    0  0.39244459209E+02 -0.75510810965E+01 -0.25357983978E+02  0.47330473859E+02  0.00000000000E+00 0. -1.
</event>
<event>
 7    1  0.6473813E-006  0.9147478E+02  0.7561462E-02  0.1299319E+00
          2   -1    0    0  501    0  0.00000000000E+00  0.00000000000E+00  0.55648767938E+03  0.55648767938E+03  0.00000000000E+00 0. -1.
         -2   -1    0    0    0  501 -0.00000000000E+00 -0.00000000000E+00 -0.29396640504E+02  0.29396640504E+02  0.00000000000E+00 0.  1.
         23    2    1    2    0    0  0.50348786299E+01  0.16113792367E+02  0.14103012996E+03  0.18926762638E+03  0.12509089708E+03 0.  0.
          5    1    3    3  502    0  0.44798011508E+02  0.29035382629E+02  0.13827157347E+02  0.55304411758E+02  0.41800000000E+01 0. -1.
         -5    1    3    3    0  502 -0.39763132879E+02 -0.12921590263E+02  0.12720297261E+03  0.13396321462E+03  0.41800000000E+01 0. -1.
        -11    1    1    2    0    0 -0.36208107963E+02  0.18617202983E+02  0.23534035232E+03  0.23883615463E+03  0.00000000000E+00 0.  1.
         11    1    1    2    0    0  0.31173229333E+02 -0.34730995350E+02  0.15072055659E+03  0.15778053887E+03  0.00000000000E+00 0. -1.
</event>
<event>
 7    1  0.6473813E-006  0.7784708E+02  0.7561462E-02  0.1335275E+00
         -1   -1    0    0    0  501 -0.00000000000E+00  0.00000000000E+00  0.49601010466E+03  0.49601010466E+03  0.00000000000E+00 0.  1.
          1   -1    0    0  501    0  0.00000000000E+00 -0.00000000000E+00 -0.35109680348E+02  0.35109680348E+02  0.00000000000E+00 0. -1.
         23    2    1    2    0    0  0.12581770165E+02  0.61558404375E+02  0.34011326072E+03  0.36779280733E+03  0.12508709333E+03 0.  0.
          5    1    3    3  502    0 -0.47914228372E+00  0.55358032360E+01  0.29364149787E+03  0.29372380967E+03  0.41800000000E+01 0.  1.
         -5    1    3    3    0  502  0.13060912449E+02  0.56022601139E+02  0.46471762847E+02  0.74068997661E+02  0.41800000000E+01 0.  1.
        -11    1    1    2    0    0 -0.39056483121E+02 -0.46048210870E+02  0.29856925218E+02  0.67359354076E+02  0.00000000000E+00 0. -1.
         11    1    1    2    0    0  0.26474712955E+02 -0.15510193505E+02  0.90930238379E+02  0.95967623604E+02  0.00000000000E+00 0.  1.
</event>
<event>
 6    1  0.6473813E-006  0.7769775E+02  0.7561462E-02  0.1335715E+00
         -2   -1    0    0    0  501 -0.00000000000E+00  0.00000000000E+00  0.56009618940E+03  0.56009618940E+03  0.00000000000E+00 0.  1.
          2   -1    0    0  501    0  0.00000000000E+00 -0.00000000000E+00 -0.23693298246E+02  0.23693298246E+02  0.00000000000E+00 0. -1.
          5    1    1    2  502    0 -0.36321523361E+02  0.43469902676E+02  0.13787664179E+03  0.14911849734E+03  0.41800000000E+01 0. -1.
         -5    1    1    2    0  502  0.43841140077E+02 -0.52098190118E+02  0.39841140204E+03  0.40420958011E+03  0.41800000000E+01 0.  1.
        -11    1    1    2    0    0  0.16293077325E+01  0.17533347826E+02  0.11893952105E+01  0.17649011038E+02  0.00000000000E+00 0. -1.
         11    1    1    2    0    0 -0.91489244485E+01 -0.89050603840E+01 -0.10745478858E+01  0.12812399157E+02  0.00000000000E+00 0.  1.
</event>
<event>
 7    1  0.6473813E-006  0.1085115E+03  0.7561462E-02  0.1263351E+00
         -1   -1    0    0    0  501 -0.00000000000E+00  0.00000000000E+00  0.93270066618E+03  0.93270066618E+03  0.00000000000E+00 0.  1.
          1   -1    0    0  501    0  0.00000000000E+00 -0.00000000000E+00 -0.15365437798E+02  0.15365437798E+02  0.00000000000E+00 0. -1.
         23    2    1    2    0    0  0.49276289915E+01 -0.34291290825E+02  0.65968149199E+03  0.67233010924E+03  0.12509168942E+03 0.  0.
          5    1    3    3  502    0 -0.17619605410E+02 -0.78148826821E+02  0.39570902078E+03  0.40375833262E+03  0.41800000000E+01 0.  1.
         -5    1    3    3    0  502  0.22547234402E+02  0.43857535997E+02  0.26397247120E+03  0.26857177662E+03  0.41800000000E+01 0.  1.
        -11    1    1    2    0    0  0.92261206920E+01 -0.24846890777E+02  0.29680387824E+02  0.39792143768E+02  0.00000000000E+00 0.  1.
         11    1    1    2    0    0 -0.14153749683E+02  0.59138181601E+02  0.22797334857E+03  0.23594385097E+03  0.00000000000E+00 0. -1.
</event>
<event>
 6    1  0.6473813E-006  0.1674247E+03  0.7561462E-02  0.1180560E+00
         -1   -1    0    0    0  501 -0.00000000000E+00  0.00000000000E+00  0.12304813084E+04  0.12304813084E+04  0.00000000000E+00 0.  1.
          1   -1    0    0  501    0  0.00000000000E+00 -0.00000000000E+00 -0.68854971681E+02  0.68854971681E+02  0.00000000000E+00 0. -1.
          5    1    1    2  502    0 -0.11558640888E+03 -0.48795623176E+02  0.51185712823E+03  0.52702601727E+03  0.41800000000E+01 0. -1.
         -5    1    1    2    0  502 -0.14543436942E+02  0.45114818317E+02  0.59744688386E+03  0.59933889397E+03  0.41800000000E+01 0.  1.
        -11    1    1    2    0    0  0.96481110163E+02  0.46639405413E+02  0.18433859241E+02  0.10873658962E+03  0.00000000000E+00 0. -1.
         11    1    1    2    0    0  0.33648735661E+02 -0.42958600554E+02  0.33888465351E+02  0.64234779186E+02  0.00000000000E+00 0.  1.
</event>
<event>
 7    1  0.6473813E-006  0.1706050E+03  0.7561462E-02  0.1177218E+00
          3   -1    0    0  501    0  0.00000000000E+00  0.00000000000E+00  0.12689572050E+03  0.12689572050E+03  0.00000000000E+00 0. -1.
         -3   -1    0    0    0  501 -0.00000000000E+00 -0.00000000000E+00 -0.62429105275E+03  0.62429105275E+03  0.00000000000E+00 0.  1.
         23    2    1    2    0    0  0.82962470259E+02  0.12867688141E+03 -0.53202680871E+03  0.56757449027E+03  0.12509102900E+03 0.  0.
          5    1    3    3  502    0  0.56533953108E+02  0.35569329408E+01 -0.27083895725E+03  0.27673083094E+03  0.41800000000E+01 0.  1.
         -5    1    3    3    0  502  0.26428517151E+02  0.12511994847E+03 -0.26118785146E+03  0.29084365933E+03  0.41800000000E+01 0.  1.
        -11    1    1    2    0    0  0.19439993586E+01 -0.12024849450E+02  0.37370895029E+02  0.39305978337E+02  0.00000000000E+00 0. -1.
         11    1    1    2    0    0 -0.84906469617E+02 -0.11665203196E+03 -0.27394185661E+01  0.14430630463E+03  0.00000000000E+00 0.  1.
</event>
<event>
 7    1  0.6473813E-006  0.8040902E+02  0.7561462E-02  0.1327895E+00
          1   -1    0    0  501    0  0.00000000000E+00  0.00000000000E+00  0.25163508234E+03  0.25163508234E+03  0.00000000000E+00 0. -1.
         -1   -1    0    0    0  501 -0.00000000000E+00 -0.00000000000E+00 -0.62389821582E+02  0.62389821582E+02  0.00000000000E+00 0.  1.
         23    2    1    2    0    0  0.16296441801E+02  0.60558617181E+02  0.91305683386E+02  0.16708815813E+03  0.12509518231E+03 0.  0.
          5    1    3    3  502    0 -0.11566935885E+02  0.95389253044E+01 -0.29277978787E+02  0.33158069057E+02  0.41800000000E+01 0.  1.
         -5    1    3    3    0  502  0.27863377685E+02  0.51019691877E+02  0.12058366217E+03  0.13393008907E+03  0.41800000000E+01 0.  1.
        -11    1    1    2    0    0 -0.33593551718E+02 -0.12414861422E+02 -0.69963783278E+00  0.35821013306E+02  0.00000000000E+00 0.  1.
         11    1    1    2    0    0  0.17297109918E+02 -0.48143755760E+02  0.98639215204E+02  0.11111573249E+03  0.00000000000E+00 0. -1.
</event>
<event>
 7    1  0.6473813E-006  0.1048674E+03  0.7561462E-02  0.1270381E+00
         -2   -1    0    0    0  501 -0.00000000000E+00  0.00000000000E+00  0.52843958027E+02  0.52843958027E+02  0.00000000000E+00 0. -1.
          2   -1    0    0  501    0  0.00000000000E+00 -0.00000000000E+00 -0.32907480840E+03  0.32907480840E+03  0.00000000000E+00 0.  1.
         23    2    1    2    0    0 -0.33034197806E+02  0.40324920850E+02 -0.73279518681E+02  0.15406150218E+03  0.12509077156E+03 0.  0.
          5    1    3    3  502    0 -0.33448980058E+01 -0.35338682082E+02 -0.62452754750E+02  0.71957138421E+02  0.41800000000E+01 0. -1.
         -5    1    3    3    0  502 -0.29689299800E+02  0.75663602932E+02 -0.10826763931E+02  0.82104363760E+02  0.41800000000E+01 0. -1.
        -11    1    1    2    0    0  0.45108902493E+01  0.22849458424E+02 -0.15437208055E+02  0.27941962595E+02  0.00000000000E+00 0. -1.
         11    1    1    2    0    0  0.28523307556E+02 -0.63174379274E+02 -0.18751412364E+03  0.19991530165E+03  0.00000000000E+00 0.  1.
</event>
<event>
 7    1  0.6473813E-006  0.9990612E+02  0.7561462E-02  0.1280493E+00
         -3   -1    0    0    0  501 -0.00000000000E+00  0.00000000000E+00  0.49750618577E+02  0.49750618577E+02  0.00000000000E+00 0.  1.
          3   -1    0    0  501    0  0.00000000000E+00 -0.00000000000E+00 -0.39435449241E+03  0.39435449241E+03  0.00000000000E+00 0. -1.
         23    2    1    2    0    0 -0.52520410188E+02 -0.30591695467E+01 -0.76125436198E+02  0.15559624598E+03  0.12508939891E+03 0.  0.
          5    1    3    3  502    0 -0.28538520316E+02  0.60036712412E+02 -0.49188671940E+02  0.82800071415E+02  0.41800000000E+01 0. -1.
         -5    1    3    3    0  502 -0.23981889872E+02 -0.63095881959E+02 -0.26936764258E+02  0.72796174561E+02  0.41800000000E+01 0. -1.
        -11    1    1    2    0    0  0.11096355873E+02  0.18330973945E+02 -0.58731227095E+01  0.22218174763E+02  0.00000000000E+00 0.  1.
         11    1    1    2    0    0  0.41424054315E+02 -0.15271804399E+02 -0.26260531493E+03  0.26629069025E+03  0.00000000000E+00 0. -1.
</event>
<event>
 6    1  0.6473813E-006  0.1376632E+03  0.7561462E-02  0.1216508E+00
          2   -1    0    0  501    0  0.00000000000E+00  0.00000000000E+00  0.41941747266E+03  0.41941747266E+03  0.00000000000E+00 0. -1.
         -2   -1    0    0    0  501 -0.00000000000E+00 -0.00000000000E+00 -0.71039410691E+02  0.71039410691E+02  0.00000000000E+00 0.  1.
          5    1    1    2  502    0 -0.13599853452E+02 -0.61358133793E+02  0.10759408775E+03  0.12467452312E+03  0.41800000000E+01 0. -1.
         -5    1    1    2    0  502 -0.69914419391E+02  0.62676032255E+02 -0.28742111918E+01  0.94032146354E+02  0.41800000000E+01 0.  1.
        -11    1    1    2    0    0  0.57125859665E+02  0.39708997150E+02  0.16668860628E+03  0.18062463774E+03  0.00000000000E+00 0. -1.
         11    1    1    2    0    0  0.26388413177E+02 -0.41026895612E+02  0.76969579136E+02  0.91125576135E+02  0.00000000000E+00 0.  1.
</event>
<event>
 7    1  0.6473813E-006  0.1998543E+03  0.7561462E-02  0.1149862E+00
         -2   -1    0    0    0  501 -0.00000000000E+00  0.00000000000E+00  0.18407456476E+03  0.18407456476E+03  0.00000000000E+00 0.  1.
          2   -1    0    0  501    0  0.00000000000E+00 -0.00000000000E+00 -0.26946700954E+03  0.26946700954E+03  0.00000000000E+00 0. -1.
         23    2    1    2    0    0 -0.15025511588E+03  0.12304003569E+03 -0.66442731641E+01  0.23109704911E+03  0.12508496916E+03 0.  0.
          5    1    3    3  502    0 -0.10268401411E+03  0.41167826597E+02 -0.56185094593E+02  0.12414924065E+03  0.41800000000E+01 0.  1.
         -5    1    3    3    0  502 -0.47571101773E+02  0.81872209092E+02  0.49540821429E+02  0.10694780845E+03  0.41800000000E+01 0.  1.
        -11    1    1    2    0    0  0.35165629299E+02 -0.27514323098E+02 -0.55257394675E+02  0.71042516325E+02  0.00000000000E+00 0. -1.
         11    1    1    2    0    0  0.11508948658E+03 -0.95525712591E+02 -0.23490776944E+02  0.15140200887E+03  0.00000000000E+00 0.  1.
</event>
<event>
 7    1  0.6473813E-006  0.1100414E+03  0.7561462E-02  0.1260493E+00
          1   -1    0    0  501    0  0.00000000000E+00  0.00000000000E+00  0.55240345693E+02  0.55240345693E+02  0.00000000000E+00 0. -1.
         -1   -1    0    0    0  501 -0.00000000000E+00 -0.00000000000E+00 -0.55494004623E+03  0.55494004623E+03  0.00000000000E+00 0.  1.
         23    2    1    2    0    0  0.10639885135E+02  0.24082755612E+02 -0.48990301618E+03  0.50584151342E+03  0.12319693648E+03 0.  0.
          5    1    3    3  502    0  0.61741148650E+02  0.75822023714E+01 -0.16272134739E+03  0.17425604301E+03  0.41800000000E+01 0. -1.
         -5    1    3    3    0  502 -0.51101263516E+02  0.16500553241E+02 -0.32718166879E+03  0.33158547041E+03  0.41800000000E+01 0.  1.
        -11    1    1    2    0    0 -0.44458152048E+02  0.19638020501E+02 -0.42614675269E+01  0.48788720399E+02  0.00000000000E+00 0.  1.
         11    1    1    2    0    0  0.33818266914E+02 -0.43720776113E+02 -0.55352168325E+01  0.55550158113E+02  0.00000000000E+00 0. -1.
</event>
<event>
 7    1  0.6473813E-006  0.2434536E+03  0.7561462E-02  0.1117513E+00
          1   -1    0    0  501    0  0.00000000000E+00  0.00000000000E+00  0.64038782183E+03  0.64038782183E+03  0.00000000000E+00 0. -1.
         -1   -1    0    0    0  501 -0.00000000000E+00 -0.00000000000E+00 -0.97003198595E+02  0.97003198595E+02  0.00000000000E+00 0.  1.
         23    2    1    2    0    0  0.91284352044E+02  0.20400756453E+03  0.25450325148E+03  0.36107212088E+03  0.12509697097E+03 0.  0.
          5    1    3    3  502    0 -0.13423649260E+02  0.98619002291E+02  0.14730091915E+03  0.17782276332E+03  0.41800000000E+01 0.  1.
         -5    1    3    3    0  502  0.10470800130E+03  0.10538856224E+03  0.10720233233E+03  0.18324935756E+03  0.41800000000E+01 0.  1.
        -11    1    1    2    0    0 -0.85644942955E+02 -0.88965457958E+02  0.12235869175E+03  0.17384348826E+03  0.00000000000E+00 0.  1.
         11    1    1    2    0    0 -0.56394090895E+01 -0.11504210657E+03  0.16652268001E+03  0.20247541129E+03  0.00000000000E+00 0. -1.
</event>
<event>
 7    1  0.6473813E-006  0.8170966E+02  0.7561462E-02  0.1324268E+00
         -2   -1    0    0    0  501 -0.00000000000E+00  0.00000000000E+00  0.78184599870E+02  0.78184599870E+02  0.00000000000E+00 0.  1.
          2   -1    0    0  501    0  0.00000000000E+00 -0.00000000000E+00 -0.19945073647E+03  0.19945073647E+03  0.00000000000E+00 0. -1.
         23    2    1    2    0    0  0.26029838017E+02 -0.55037650299E+02 -0.58516474524E+02  0.15092381669E+03  0.12508846963E+03 0.  0.
          5    1    3    3  502    0 -0.45292256316E+01 -0.30523281293E+01  0.37138777305E+02  0.37770249821E+02  0.41800000000E+01 0.  1.
         -5    1    3    3    0  502  0.30559063649E+02 -0.51985322170E+02 -0.95655251828E+02  0.11315356687E+03  0.41800000000E+01 0.  1.
        -11    1    1    2    0    0 -0.63341949077E+01 -0.18714909994E+02  0.92147161994E+01  0.21800937499E+02  0.00000000000E+00 0.  1.
         11    1    1    2    0    0 -0.19695643109E+02  0.73752560293E+02 -0.71964378276E+02  0.10491058215E+03  0.00000000000E+00 0. -1.
</event>
<event>
 7    1  0.6473813E-006  0.1424416E+03  0.7561462E-02  0.1210081E+00
         -1   -1    0    0    0  501 -0.00000000000E+00  0.00000000000E+00  0.94812067472E+02  0.94812067472E+02  0.00000000000E+00 0.  1.
          1   -1    0    0  501    0  0.00000000000E+00 -0.00000000000E+00 -0.27187254199E+03  0.27187254199E+03  0.00000000000E+00 0. -1.
         23    2    1    2    0    0 -0.44434812681E+02  0.93041553096E+02 -0.29417774382E+02  0.16475371647E+03  0.12508876232E+03 0.  0.
          5    1    3    3  502    0 -0.72244644945E+02  0.20856995114E+02 -0.42059406171E+02  0.86259892279E+02  0.41800000000E+01 0. -1.
         -5    1    3    3    0  502  0.27809832264E+02  0.72184557982E+02  0.12641631789E+02  0.78493824190E+02  0.41800000000E+01 0. -1.
        -11    1    1    2    0    0  0.53461495663E+01 -0.92860063072E+02 -0.75181000858E+02  0.11959830901E+03  0.00000000000E+00 0.  1.
         11    1    1    2    0    0  0.39088663115E+02 -0.18149002454E+00 -0.72461699272E+02  0.82332583976E+02  0.00000000000E+00 0. -1.
</event>
<event>
 7    1  0.6473813E-006  0.1660192E+03  0.7561462E-02  0.1182064E+00
          1   -1    0    0  501    0  0.00000000000E+00  0.00000000000E+00  0.33183275013E+03  0.33183275013E+03  0.00000000000E+00 0. -1.
         -1   -1    0    0    0  501 -0.00000000000E+00 -0.00000000000E+00 -0.20464035029E+03  0.20464035029E+03  0.00000000000E+00 0.  1.
         23    2    1    2    0    0 -0.44763293380E+02 -0.14919449547E+03 -0.11974097052E+03  0.23291134695E+03  0.12508815134E+03 0.  0.
          5    1    3    3  502    0  0.23849842354E+02 -0.28926510223E+02 -0.80553069695E+02  0.88948453676E+02  0.41800000000E+01 0. -1.
         -5    1    3    3    0  502 -0.68613135734E+02 -0.12026798524E+03 -0.39187900828E+02  0.14396289328E+03  0.41800000000E+01 0. -1.
        -11    1    1    2    0    0  0.13071467280E+02  0.47974213228E+02  0.21010339566E+02  0.53979836609E+02  0.00000000000E+00 0.  1.
         11    1    1    2    0    0  0.31691826101E+02  0.10122028224E+03  0.22592303080E+03  0.24958191686E+03  0.00000000000E+00 0. -1.
</event>
<event>
 7    1  0.6473813E-006  0.1021156E+03  0.7561462E-02  0.1275909E+00
         -1   -1    0    0    0  501 -0.00000000000E+00  0.00000000000E+00  0.14919568746E+03  0.14919568746E+03  0.00000000000E+00 0.  1.
          1   -1    0    0  501    0  0.00000000000E+00 -0.00000000000E+00 -0.13226768992E+03  0.13226768992E+03  0.00000000000E+00 0. -1.
         23    2    1    2    0    0 -0.32233717265E+02 -0.75316649341E+02  0.45218556221E+02  0.15621785111E+03  0.12509072300E+03 0.  0.
          5    1    3    3  502    0 -0.28034439342E+02 -0.80430070205E+02  0.82183392859E+02  0.11843356131E+03  0.41800000000E+01 0.  1.
         -5    1    3    3    0  502 -0.41992779227E+01  0.51134208643E+01 -0.36964836639E+02  0.37784289800E+02  0.41800000000E+01 0.  1.
        -11    1    1    2    0    0  0.26889735014E+02 -0.76744661757E+01  0.14738893899E+02  0.31609971109E+02  0.00000000000E+00 0.  1.
         11    1    1    2    0    0  0.53439822510E+01  0.82991115516E+02 -0.43029452576E+02  0.93635555159E+02  0.00000000000E+00 0. -1.
</event>
<event>
 7    1  0.6473813E-006  0.1083312E+03  0.7561462E-02  0.1263692E+00
          1   -1    0    0  501    0  0.00000000000E+00  0.00000000000E+00  0.39589823038E+03  0.39589823038E+03  0.00000000000E+00 0. -1.
         -1   -1    0    0    0  501 -0.00000000000E+00 -0.00000000000E+00 -0.37127933682E+02  0.37127933682E+02  0.00000000000E+00 0.  1.
         23    2    1    2    0    0 -0.19209557023E+02  0.28308155145E+02  0.12645311661E+03  0.18113036757E+03  0.12508981024E+03 0.  0.
          5    1    3    3  502    0  0.44743200426E+02 -0.17812079665E+02  0.65373975872E+02  0.81304694131E+02  0.41800000000E+01 0. -1.
         -5    1    3    3    0  502 -0.63952757449E+02  0.46120234810E+02  0.61079140737E+02  0.99825673438E+02  0.41800000000E+01 0. -1.
        -11    1    1    2    0    0 -0.15667241294E+02  0.22694324556E+02  0.12551510234E+03  0.12850889359E+03  0.00000000000E+00 0. -1.
         11    1    1    2    0    0  0.34876798317E+02 -0.51002479701E+02  0.10680207775E+03  0.12338690291E+03  0.00000000000E+00 0.  1.
</event>
<event>
 7    1  0.6473813E-006  0.1106390E+03  0.7561462E-02  0.1259391E+00
          1   -1    0    0  501    0  0.00000000000E+00  0.00000000000E+00  0.76100597027E+03  0.76100597027E+03  0.00000000000E+00 0. -1.
         -1   -1    0    0    0  501 -0.00000000000E+00 -0.00000000000E+00 -0.36851172552E+02  0.36851172552E+02  0.00000000000E+00 0.  1.
         23    2    1    2    0    0 -0.66993718434E+02  0.87541240073E+02  0.23467234640E+03  0.28787147059E+03  0.12508895390E+03 0.  0.
          5    1    3    3  502    0 -0.20541515193E+02  0.20851337356E+02 -0.90502346427E+01  0.30921048867E+02  0.41800000000E+01 0.  1.
         -5    1    3    3    0  502 -0.46452203242E+02  0.66689902717E+02  0.24372258104E+03  0.25695042172E+03  0.41800000000E+01 0.  1.
        -11    1    1    2    0    0  0.56550222072E+02 -0.76500318465E+02  0.48485406702E+03  0.49409886930E+03  0.00000000000E+00 0. -1.
         11    1    1    2    0    0  0.10443496362E+02 -0.11040921607E+02  0.46283842971E+01  0.15886802932E+02  0.00000000000E+00 0.  1.
</event>
<event>
 7    1  0.6473813E-006  0.1152041E+03  0.7561462E-02  0.1251225E+00
          1   -1    0    0  501    0  0.00000000000E+00  0.00000000000E+00  0.64607381870E+03  0.64607381870E+03  0.00000000000E+00 0. -1.
         -1   -1    0    0    0  501 -0.00000000000E+00 -0.00000000000E+00 -0.22084702109E+02  0.22084702109E+02  0.00000000000E+00 0.  1.
         23    2    1    2    0    0  0.44180270548E+02  0.17076882157E+02  0.29688201379E+03  0.32562182559E+03  0.12508847660E+03 0.  0.
          5    1    3    3  502    0  0.80810903228E+02  0.34519144563E+02  0.24009992318E+03  0.25570963793E+03  0.41800000000E+01 0. -1.
         -5    1    3    3    0  502 -0.36630632680E+02 -0.17442262406E+02  0.56782090616E+02  0.69912187657E+02  0.41800000000E+01 0. -1.
        -11    1    1    2    0    0 -0.63545050970E+02  0.13964781553E+02  0.20952890413E+03  0.21939769892E+03  0.00000000000E+00 0. -1.
         11    1    1    2    0    0  0.19364780422E+02 -0.31041663710E+02  0.11757819867E+03  0.12313899629E+03  0.00000000000E+00 0.  1.
</event>
<event>
 7    1  0.6473813E-006  0.1031998E+03  0.7561462E-02  0.1273707E+00
          2   -1    0    0  501    0  0.00000000000E+00  0.00000000000E+00  0.63824073826E+03  0.63824073826E+03  0.00000000000E+00 0. -1.
         -2   -1    0    0    0  501 -0.00000000000E+00 -0.00000000000E+00 -0.26208697097E+02  0.26208697097E+02  0.00000000000E+00 0.  1.
         23    2    1    2    0    0  0.60475870165E+02 -0.23300081698E+01  0.24320032748E+03  0.28009973766E+03  0.12508678564E+03 0.  0.
          5    1    3    3  502    0 -0.67002550910E+01 -0.25822464959E+02  0.18802377599E+03  0.18995290431E+03  0.41800000000E+01 0.  1.
         -5    1    3    3    0  502  0.67176125255E+02  0.23492456789E+02  0.55176551485E+02  0.90146833356E+02  0.41800000000E+01 0.  1.
        -11    1    1    2    0    0  0.16711638775E+02  0.22785038067E+02  0.97408786672E+02  0.10142439820E+03  0.00000000000E+00 0. -1.
         11    1    1    2    0    0 -0.77187508940E+02 -0.20455029898E+02  0.27142292702E+03  0.28292529949E+03  0.00000000000E+00 0.  1.
</event>
<event>
 7    1  0.6473813E-006  0.7461491E+02  0.7561462E-02  0.1345068E+00
          1   -1    0    0  501    0  0.00000000000E+00  0.00000000000E+00  0.56003823423E+02  0.56003823423E+02  0.00000000000E+00 0.  1.
         -1   -1    0    0    0  501 -0.00000000000E+00 -0.00000000000E+00 -0.34846796439E+03  0.34846796439E+03  0.00000000000E+00 0. -1.
         23    2    1    2    0    0 -0.12672357185E+02  0.54084096315E+02 -0.29544997707E+03  0.32561324125E+03  0.12509043056E+03 0.  0.
          5    1    3    3  502    0 -0.34293167876E+01 -0.79301296961E+01 -0.24457143675E+03  0.24475969285E+03  0.41800000000E+01 0.  1.
         -5    1    3    3    0  502 -0.92430403969E+01  0.62014226011E+02 -0.50878540317E+02  0.80853548397E+02  0.41800000000E+01 0.  1.
        -11    1    1    2    0    0  0.29213488049E+02 -0.12012245901E+02  0.99537524948E+01  0.33117957731E+02  0.00000000000E+00 0.  1.
         11    1    1    2    0    0 -0.16541130864E+02 -0.42071850414E+02 -0.69679163895E+01  0.45740588828E+02  0.00000000000E+00 0. -1.
</event>
<event>
 7    1  0.6473813E-006  0.1832696E+03  0.7561462E-02  0.1164676E+00
         -1   -1    0    0    0  501 -0.00000000000E+00  0.00000000000E+00  0.14639594386E+03  0.14639594386E+03  0.00000000000E+00 0.  1.
          1   -1    0    0  501    0  0.00000000000E+00 -0.00000000000E+00 -0.25501980531E+03  0.25501980531E+03  0.00000000000E+00 0. -1.
         23    2    1    2    0    0 -0.11429990246E+03  0.10973978528E+03 -0.58314804274E+02  0.21013006211E+03  0.12508692348E+03 0.  0.
          5    1    3    3  502    0 -0.12589544539E+03  0.69562234661E+02 -0.78050774457E+02  0.16370083523E+03  0.41800000000E+01 0. -1.
         -5    1    3    3    0  502  0.11595542924E+02  0.40177550621E+02  0.19735970183E+02  0.46429226880E+02  0.41800000000E+01 0. -1.
        -11    1    1    2    0    0  0.39977265942E+02 -0.97390002005E+02 -0.97653870090E+01  0.10572774974E+03  0.00000000000E+00 0.  1.
         11    1    1    2    0    0  0.74322636523E+02 -0.12349783278E+02 -0.40543670168E+02  0.85557937313E+02  0.00000000000E+00 0. -1.
</event>
<event>
 7    1  0.6473813E-006  0.1016531E+03  0.7561462E-02  0.1276858E+00
         -1   -1    0    0    0  501 -0.00000000000E+00  0.00000000000E+00  0.23536549550E+03  0.23536549550E+03  0.00000000000E+00 0.  1.
          1   -1    0    0  501    0  0.00000000000E+00 -0.00000000000E+00 -0.73871136452E+02  0.73871136452E+02  0.00000000000E+00 0. -1.
         23    2    1    2    0    0  0.17631866596E+02  0.68819695896E+02  0.11371938767E+03  0.18337683041E+03  0.12509168452E+03 0.  0.
          5    1    3    3  502    0 -0.12347758822E+02  0.64605815236E+02  0.29634493878E+00  0.65908563409E+02  0.41800000000E+01 0.  1.
         -5    1    3    3    0  502  0.29979625418E+02  0.42138806600E+01  0.11342304273E+03  0.11746826700E+03  0.41800000000E+01 0.  1.
        -11    1    1    2    0    0 -0.22448602826E+02  0.12284289179E+02  0.35392692141E+02  0.43674777464E+02  0.00000000000E+00 0.  1.
         11    1    1    2    0    0  0.48167362304E+01 -0.81103985075E+02  0.12382279235E+02  0.82185024074E+02  0.00000000000E+00 0. -1.
</event>
<event>
 7    1  0.6473813E-006  0.1059959E+03  0.7561462E-02  0.1268170E+00
          2   -1    0    0  501    0  0.00000000000E+00  0.00000000000E+00  0.12242600355E+03  0.12242600355E+03  0.00000000000E+00 0. -1.
         -2   -1    0    0    0  501 -0.00000000000E+00 -0.00000000000E+00 -0.12338110636E+03  0.12338110636E+03  0.00000000000E+00 0.  1.
         23    2    1    2    0    0  0.56042253897E+02 -0.31468962331E+01 -0.12808741975E+02  0.13770364122E+03  0.12509033438E+03 0.  0.
          5    1    3    3  502    0  0.59333227378E+02 -0.52197572440E+02 -0.31178674823E+02  0.85056455390E+02  0.41800000000E+01 0.  1.
         -5    1    3    3    0  502 -0.32909734814E+01  0.49050676207E+02  0.18369932848E+02  0.52647185828E+02  0.41800000000E+01 0.  1.
        -11    1    1    2    0    0  0.13693516248E+02  0.13314979367E+01  0.32550415600E+02  0.35338574246E+02  0.00000000000E+00 0. -1.
         11    1    1    2    0    0 -0.69735770145E+02  0.18153982964E+01 -0.20696776439E+02  0.72764894446E+02  0.00000000000E+00 0.  1.
</event>
<event>
 7    1  0.6473813E-006  0.8840703E+02  0.7561462E-02  0.1306756E+00
         -2   -1    0    0    0  501 -0.00000000000E+00  0.00000000000E+00  0.17197353318E+03  0.17197353318E+03  0.00000000000E+00 0.  1.
          2   -1    0    0  501    0  0.00000000000E+00 -0.00000000000E+00 -0.90207012005E+02  0.90207012005E+02  0.00000000000E+00 0. -1.
         23    2    1    2    0    0  0.45508118149E+02 -0.25931720208E+02  0.81263051300E+02  0.15814468656E+03  0.12515037136E+03 0.  0.
          5    1    3    3  502    0 -0.27234254175E+02 -0.65511356199E+01  0.77659794163E+02  0.82662796999E+02  0.41800000000E+01 0.  1.
         -5    1    3    3    0  502  0.72742372324E+02 -0.19380584588E+02  0.36032571377E+01  0.75481889565E+02  0.41800000000E+01 0.  1.
        -11    1    1    2    0    0  0.51803382027E+01 -0.97967686708E+01  0.32439980119E+02  0.34280678092E+02  0.00000000000E+00 0.  1.
         11    1    1    2    0    0 -0.50688456352E+02  0.35728488879E+02 -0.31936510240E+02  0.69755180533E+02  0.00000000000E+00 0. -1.
</event>
<event>
 7    1  0.6473813E-006  0.8263548E+02  0.7561462E-02  0.1321734E+00
         -1   -1    0    0    0  501 -0.00000000000E+00  0.00000000000E+00  0.43460977876E+03  0.43460977876E+03  0.00000000000E+00 0.  1.
          1   -1    0    0  501    0  0.00000000000E+00 -0.00000000000E+00 -0.48681114690E+02  0.48681114690E+02  0.00000000000E+00 0. -1.
         23    2    1    2    0    0  0.38891493668E+02  0.87429714957E+01  0.35408550984E+03  0.37764159306E+03  0.12509051402E+03 0.  0.
          5    1    3    3  502    0 -0.59178172729E+01  0.23662279066E+02  0.48688131813E+01  0.25221057743E+02  0.41800000000E+01 0.  1.
         -5    1    3    3    0  502  0.44809310941E+02 -0.14919307570E+02  0.34921669666E+03  0.35242053532E+03  0.41800000000E+01 0.  1.
        -11    1    1    2    0    0 -0.57313946178E+02  0.18499154122E+02  0.39318494437E+02  0.71923926022E+02  0.00000000000E+00 0.  1.
         11    1    1    2    0    0  0.18422452510E+02 -0.27242125618E+02 -0.74753402141E+01  0.33725374364E+02  0.00000000000E+00 0. -1.
</event>
<event>
 6    1  0.6473813E-006  0.1335875E+03  0.7561462E-02  0.1222228E+00
          2   -1    0    0  501    0  0.00000000000E+00  0.00000000000E+00  0.13551287772E+03  0.13551287772E+03  0.00000000000E+00 0. -1.
         -2   -1    0    0    0  501 -0.00000000000E+00 -0.00000000000E+00 -0.15686252474E+03  0.15686252474E+03  0.00000000000E+00 0.  1.
          5    1    1    2  502    0 -0.27523015655E+02  0.12915540132E+03 -0.41205515433E+02  0.13839798041E+03  0.41800000000E+01 0. -1.
         -5    1    1    2    0  502  0.10254843823E+02 -0.87976653304E+02 -0.22147326933E+02  0.91394911448E+02  0.41800000000E+01 0.  1.
        -11    1    1    2    0    0  0.11162440823E+02 -0.11289991752E+02  0.15007977679E+02  0.21847274267E+02  0.00000000000E+00 0.  1.
         11    1    1    2    0    0  0.61057310089E+01 -0.29888756261E+02  0.26995217672E+02  0.40735236333E+02  0.00000000000E+00 0. -1.
</event>
<event>
 7    1  0.6473813E-006  0.8139395E+02  0.7561462E-02  0.1325142E+00
          1   -1    0    0  501    0  0.00000000000E+00  0.00000000000E+00  0.12520489081E+03  0.12520489081E+03  0.00000000000E+00 0. -1.
         -1   -1    0    0    0  501 -0.00000000000E+00 -0.00000000000E+00 -0.94821871701E+02  0.94821871701E+02  0.00000000000E+00 0.  1.
         23    2    1    2    0    0 -0.12719640491E+02  0.87158892732E+01  0.58884030276E+01  0.12617853308E+03  0.12509433617E+03 0.  0.
          5    1    3    3  502    0 -0.53293652538E+02  0.22822986935E+01  0.44540008148E+02  0.69618295110E+02  0.41800000000E+01 0.  1.
         -5    1    3    3    0  502  0.40574012047E+02  0.64335905797E+01 -0.38651605121E+02  0.56560237975E+02  0.41800000000E+01 0.  1.
        -11    1    1    2    0    0  0.11362879649E+02  0.28534524365E+02 -0.19349386931E+02  0.36300590756E+02  0.00000000000E+00 0.  1.
         11    1    1    2    0    0  0.13567608420E+01 -0.37250413639E+02  0.43844003008E+02  0.57547638666E+02  0.00000000000E+00 0. -1.
</event>
<event>
 7    1  0.6473813E-006  0.1118186E+03  0.7561462E-02  0.1257239E+00
         -2   -1    0    0    0  501 -0.00000000000E+00  0.00000000000E+00  0.41046660356E+02  0.41046660356E+02  0.00000000000E+00 0.  1.
          2   -1    0    0  501    0  0.00000000000E+00 -0.00000000000E+00 -0.38149994671E+03  0.38149994671E+03  0.00000000000E+00 0. -1.
         23    2    1    2    0    0  0.39183218083E+02  0.42719832725E+02 -0.22455083835E+03  0.26349617801E+03  0.12508736203E+03 0.  0.
          5    1    3    3  502    0 -0.30875848253E+02  0.58177426820E+02 -0.10864270354E+03  0.12711664104E+03  0.41800000000E+01 0. -1.
         -5    1    3    3    0  502  0.70059066336E+02 -0.15457594095E+02 -0.11590813480E+03  0.13637953697E+03  0.41800000000E+01 0. -1.
        -11    1    1    2    0    0  0.15330199058E+02 -0.23331579821E+02 -0.92529362298E+02  0.96649161959E+02  0.00000000000E+00 0.  1.
         11    1    1    2    0    0 -0.54513417141E+02 -0.19388252904E+02 -0.23373085707E+02  0.62401267091E+02  0.00000000000E+00 0. -1.
</event>
<event>
 7    1  0.8227302E-006  0.1592515E+03  0.7561462E-02  0.1189544E+00
         -3   -1    0    0    0  501 -0.00000000000E+00  0.00000000000E+00  0.31275289813E+02  0.31275289813E+02  0.00000000000E+00 0.  1.
          3   -1    0    0  501    0  0.00000000000E+00 -0.00000000000E+00 -0.98384732753E+03  0.98384732753E+03  0.00000000000E+00 0. -1.
         23    2    1    2    0    0 -0.13342166560E+03 -0.38929421309E+01 -0.40743815014E+03  0.44662025352E+03  0.12508920343E+03 0.  0.
          5    1    3    3  502    0 -0.14067771167E+03  0.12634020373E+02 -0.40370471234E+03  0.42772047437E+03  0.41800000000E+01 0.  1.
         -5    1    3    3    0  502  0.72560460683E+01 -0.16526962504E+02 -0.37334378021E+01  0.18899779151E+02  0.41800000000E+01 0.  1.
        -11    1    1    2    0    0  0.12758465117E+02  0.32282252585E+02 -0.81512730731E+02  0.88595979228E+02  0.00000000000E+00 0.  1.
         11    1    1    2    0    0  0.12066320048E+03 -0.28389310454E+02 -0.46362115684E+03  0.47990638459E+03  0.00000000000E+00 0. -1.
</event>
<event>
 7    1  0.6473813E-006  0.8578863E+02  0.7561462E-02  0.1313383E+00
         -1   -1    0    0    0  501 -0.00000000000E+00  0.00000000000E+00  0.23784511461E+03  0.23784511461E+03  0.00000000000E+00 0.  1.
          1   -1    0    0  501    0  0.00000000000E+00 -0.00000000000E+00 -0.71345364503E+02  0.71345364503E+02  0.00000000000E+00 0. -1.
         23    2    1    2    0    0 -0.46388981610E+02 -0.16606222407E+02  0.17803011607E+03  0.22309284109E+03  0.12509192332E+03 0.  0.
          5    1    3    3  502    0  0.50205380661E+01 -0.55867692901E+02  0.13230834389E+03  0.14376847768E+03  0.41800000000E+01 0.  1.
         -5    1    3    3    0  502 -0.51409519676E+02  0.39261470494E+02  0.45721772182E+02  0.79324363408E+02  0.41800000000E+01 0.  1.
        -11    1    1    2    0    0  0.13173216690E+02  0.10243821626E+02  0.28909457087E+02  0.33380027390E+02  0.00000000000E+00 0.  1.
         11    1    1    2    0    0  0.33215764921E+02  0.63624007811E+01 -0.40439823048E+02  0.52717610635E+02  0.00000000000E+00 0. -1.
</event>
<event>
 7    1  0.6473813E-006  0.1528638E+03  0.7561462E-02  0.1196997E+00
         -2   -1    0    0    0  501 -0.00000000000E+00  0.00000000000E+00  0.14190593305E+03  0.14190593305E+03  0.00000000000E+00 0.  1.
          2   -1    0    0  501    0  0.00000000000E+00 -0.00000000000E+00 -0.19330889498E+03  0.19330889498E+03  0.00000000000E+00 0. -1.
         23    2    1    2    0    0 -0.21655614517E+02  0.11447856259E+03  0.17775857888E+02  0.17186667892E+03  0.12509143563E+03 0.  0.
          5    1    3    3  502    0 -0.12421960012E+02  0.14041347380E+03  0.24707186106E+02  0.14317180645E+03  0.41800000000E+01 0. -1.
         -5    1    3    3    0  502 -0.92336545054E+01 -0.25934911216E+02 -0.69313282182E+01  0.28694872472E+02  0.41800000000E+01 0. -1.
        -11    1    1    2    0    0 -0.26295803791E+02 -0.50134765159E+02 -0.60140554031E+02  0.82594492635E+02  0.00000000000E+00 0.  1.
         11    1    1    2    0    0  0.47951418308E+02 -0.64343797427E+02 -0.90382657919E+01  0.80753656472E+02  0.00000000000E+00 0. -1.
</event>
<event>
 7    1  0.6473813E-006  0.1355206E+03  0.7561462E-02  0.1219487E+00
         -1   -1    0    0    0  501 -0.00000000000E+00  0.00000000000E+00  0.10760100075E+04  0.10760100075E+04  0.00000000000E+00 0.  1.
          1   -1    0    0  501    0  0.00000000000E+00 -0.00000000000E+00 -0.18665447246E+02  0.18665447246E+02  0.00000000000E+00 0. -1.
         23    2    1    2    0    0  0.79940145672E+02  0.39970265164E+02  0.64891291379E+03  0.66687593850E+03  0.12508996236E+03 0.  0.
          5    1    3    3  502    0 -0.26255621971E+02  0.24933139694E+02  0.28926886440E+03  0.29155611373E+03  0.41800000000E+01 0.  1.
         -5    1    3    3    0  502  0.10619576764E+03  0.15037125470E+02  0.35964404938E+03  0.37531982477E+03  0.41800000000E+01 0.  1.
        -11    1    1    2    0    0  0.43992424747E+01  0.22102997408E+02  0.74095107247E+02  0.77446631604E+02  0.00000000000E+00 0.  1.
         11    1    1    2    0    0 -0.84339388147E+02 -0.62073262572E+02  0.33433653920E+03  0.35035288462E+03  0.00000000000E+00 0. -1.
</event>
<event>
 7    1  0.6473813E-006  0.6596482E+02  0.7561462E-02  0.1374379E+00
          2   -1    0    0  501    0  0.00000000000E+00  0.00000000000E+00  0.92147161660E+02  0.92147161660E+02  0.00000000000E+00 0. -1.
         -2   -1    0    0    0  501 -0.00000000000E+00 -0.00000000000E+00 -0.19149163688E+03  0.19149163688E+03  0.00000000000E+00 0.  1.
         23    2    1    2    0    0  0.52824679884E+02 -0.20665600930E+02 -0.10723895619E+03  0.17425371576E+03  0.12508656948E+03 0.  0.
          5    1    3    3  502    0  0.61443324902E+02 -0.13055793153E+02  0.32994288200E+01  0.63040419894E+02  0.41800000000E+01 0.  1.
         -5    1    3    3    0  502 -0.86186450186E+01 -0.76098077777E+01 -0.11053838501E+03  0.11121329587E+03  0.41800000000E+01 0.  1.
        -11    1    1    2    0    0 -0.34988126983E+02  0.14427364220E+02 -0.41699574850E+02  0.56313163744E+02  0.00000000000E+00 0.  1.
         11    1    1    2    0    0 -0.17836552901E+02  0.62382367104E+01  0.49594055825E+02  0.53071919033E+02  0.00000000000E+00 0. -1.
</event>
<event>
 7    1  0.6473813E-006  0.1336388E+03  0.7561462E-02  0.1222154E+00
          1   -1    0    0  501    0  0.00000000000E+00  0.00000000000E+00  0.11021018067E+03  0.11021018067E+03  0.00000000000E+00 0. -1.
         -1   -1    0    0    0  501 -0.00000000000E+00 -0.00000000000E+00 -0.20769830655E+03  0.20769830655E+03  0.00000000000E+00 0.  1.
         23    2    1    2    0    0  0.57669465233E+02  0.87400735339E+02 -0.68655976745E+02  0.17699731192E+03  0.12509895893E+03 0.  0.
          5    1    3    3  502    0 -0.67663784190E+01  0.96788984116E+02 -0.49444829884E+02  0.10897777262E+03  0.41800000000E+01 0. -1.
         -5    1    3    3    0  502  0.64435843652E+02 -0.93882487770E+01 -0.19211146861E+02  0.68019539295E+02  0.41800000000E+01 0. -1.
        -11    1    1    2    0    0 -0.21486314296E+02 -0.38362531892E+02 -0.58458845043E+02  0.73149040451E+02  0.00000000000E+00 0.  1.
         11    1    1    2    0    0 -0.36183150936E+02 -0.49038203447E+02  0.29626695916E+02  0.67762134853E+02  0.00000000000E+00 0. -1.
</event>
<event>
 7    1  0.7892395E-006  0.2776746E+03  0.7561462E-02  0.1096966E+00
         -1   -1    0    0    0  501 -0.00000000000E+00  0.00000000000E+00  0.15997551205E+03  0.15997551205E+03  0.00000000000E+00 0.  1.
          1   -1    0    0  501    0  0.00000000000E+00 -0.00000000000E+00 -0.55355489404E+03  0.55355489404E+03  0.00000000000E+00 0. -1.
         23    2    1    2    0    0  0.22734108975E+03  0.13149139086E+03 -0.95710508046E+02  0.30623975278E+03  0.12509327670E+03 0.  0.
          5    1    3    3  502    0  0.12185767834E+03  0.13145148873E+03 -0.29707497390E+02  0.18173826086E+03  0.41800000000E+01 0.  1.
         -5    1    3    3    0  502  0.10548341142E+03  0.39902133562E-01 -0.66003010656E+02  0.12450149193E+03  0.41800000000E+01 0.  1.
        -11    1    1    2    0    0 -0.11305698348E+03 -0.10245487585E+03 -0.21300780278E+03  0.26201375373E+03  0.00000000000E+00 0. -1.
         11    1    1    2    0    0 -0.11428410627E+03 -0.29036515017E+02 -0.84861071163E+02  0.14527689957E+03  0.00000000000E+00 0.  1.
</event>
<event>
 7    1  0.6473813E-006  0.1243190E+03  0.7561462E-02  0.1236137E+00
          2   -1    0    0  501    0  0.00000000000E+00  0.00000000000E+00  0.34029275273E+03  0.34029275273E+03  0.00000000000E+00 0. -1.
         -2   -1    0    0    0  501 -0.00000000000E+00 -0.00000000000E+00 -0.59896658230E+02  0.59896658230E+02  0.00000000000E+00 0.  1.
         23    2    1    2    0    0  0.80684987111E+02  0.41958239751E+02  0.16441497433E+03  0.22572342681E+03  0.12509284791E+03 0.  0.
          5    1    3    3  502    0  0.73355899534E+02 -0.28601449179E+02  0.58498617191E+02  0.98176837924E+02  0.41800000000E+01 0.  1.
         -5    1    3    3    0  502  0.73290875772E+01  0.70559688930E+02  0.10591635714E+03  0.12754658889E+03  0.41800000000E+01 0.  1.
        -11    1    1    2    0    0 -0.24865983138E+02  0.54957748530E+01 -0.11098681150E+02  0.27779513710E+02  0.00000000000E+00 0.  1.
         11    1    1    2    0    0 -0.55819003973E+02 -0.47454014604E+02  0.12707980132E+03  0.14668647044E+03  0.00000000000E+00 0. -1.
</event>
<event>
 7    1  0.6473813E-006  0.1441479E+03  0.7561462E-02  0.1207854E+00
         -1   -1    0    0    0  501 -0.00000000000E+00  0.00000000000E+00  0.74394213741E+02  0.74394213741E+02  0.00000000000E+00 0.  1.
          1   -1    0    0  501    0  0.00000000000E+00 -0.00000000000E+00 -0.37130310423E+03  0.37130310423E+03  0.00000000000E+00 0. -1.
         23    2    1    2    0    0  0.86018437446E+02  0.82183839041E+02 -0.10682937163E+03  0.20300917487E+03  0.12508739128E+03 0.  0.
          5    1    3    3  502    0  0.82303287306E+02  0.11192192512E+03 -0.70875521396E+02  0.15601653873E+03  0.41800000000E+01 0.  1.
         -5    1    3    3    0  502  0.37151501408E+01 -0.29738086083E+02 -0.35953850237E+02  0.46992636139E+02  0.41800000000E+01 0.  1.
        -11    1    1    2    0    0 -0.70720771333E+01 -0.85072804393E+01  0.10267066674E+02  0.15093069719E+02  0.00000000000E+00 0.  1.
         11    1    1    2    0    0 -0.78946360313E+02 -0.73676558601E+02 -0.20034658553E+03  0.22759507338E+03  0.00000000000E+00 0. -1.
</event>
<event>
 7    1  0.6473813E-006  0.1522737E+03  0.7561462E-02  0.1197707E+00
         -2   -1    0    0    0  501 -0.00000000000E+00  0.00000000000E+00  0.52829211754E+03  0.52829211754E+03  0.00000000000E+00 0.  1.
          2   -1    0    0  501    0  0.00000000000E+00 -0.00000000000E+00 -0.45503076302E+02  0.45503076302E+02  0.00000000000E+00 0. -1.
         23    2    1    2    0    0 -0.83400081214E+02  0.94122464706E+02  0.29498153980E+03  0.34420333449E+03  0.12508882742E+03 0.  0.
          5    1    3    3  502    0 -0.68650975458E+02 -0.82319226697E+01  0.81521427448E+02  0.10697633624E+03  0.41800000000E+01 0.  1.
         -5    1    3    3    0  502 -0.14749105756E+02  0.10235438738E+03  0.21346011235E+03  0.23722699825E+03  0.41800000000E+01 0.  1.
        -11    1    1    2    0    0  0.45326583739E+02 -0.22351801833E+02  0.64835024274E+02  0.82205125213E+02  0.00000000000E+00 0. -1.
         11    1    1    2    0    0  0.38073497475E+02 -0.71770662873E+02  0.12297247717E+03  0.14738673414E+03  0.00000000000E+00 0.  1.
</event>
<event>
 7    1  0.6473813E-006  0.1346613E+03  0.7561462E-02  0.1220699E+00
          3   -1    0    0  501    0  0.00000000000E+00  0.00000000000E+00  0.34442037885E+02  0.34442037885E+02  0.00000000000E+00 0. -1.
         -3   -1    0    0    0  501 -0.00000000000E+00 -0.00000000000E+00 -0.61084843370E+03  0.61084843370E+03  0.00000000000E+00 0.  1.
         23    2    1    2    0    0 -0.91514488849E+02 -0.30298536650E+02 -0.30966970308E+03  0.34761369779E+03  0.12508818845E+03 0.  0.
          5    1    3    3  502    0 -0.67601309982E+02 -0.77996906967E+02 -0.18383732685E+03  0.21087221190E+03  0.41800000000E+01 0. -1.
         -5    1    3    3    0  502 -0.23913178867E+02  0.47698370317E+02 -0.12583237623E+03  0.13674148589E+03  0.41800000000E+01 0. -1.
        -11    1    1    2    0    0  0.85015617127E+02  0.36731473027E+01 -0.25318454303E+03  0.26710215274E+03  0.00000000000E+00 0.  1.
         11    1    1    2    0    0  0.64988717221E+01  0.26625389347E+02 -0.13552149700E+02  0.30574621061E+02  0.00000000000E+00 0. -1.
</event>
<event>
 7    1  0.6473813E-006  0.9773429E+02  0.7561462E-02  0.1285134E+00
         -2   -1    0    0    0  501 -0.00000000000E+00  0.00000000000E+00  0.68454776004E+02  0.68454776004E+02  0.00000000000E+00 0. -1.
          2   -1    0    0  501    0  0.00000000000E+00 -0.00000000000E+00 -0.22849032032E+03  0.22849032032E+03  0.00000000000E+00 0.  1.
         23    2    1    2    0    0  0.49528637334E+01 -0.18585872862E+02 -0.19229307052E+02  0.12802700513E+03  0.12510468521E+03 0.  0.
          5    1    3    3  502    0  0.31792088892E+02  0.37572280827E+02  0.21132714774E+02  0.53725945653E+02  0.41800000000E+01 0. -1.
         -5    1    3    3    0  502 -0.26839225158E+02 -0.56158153689E+02 -0.40362021826E+02  0.74301059473E+02  0.41800000000E+01 0. -1.
        -11    1    1    2    0    0  0.12546856761E+02 -0.29748557567E+02 -0.94022542897E+02  0.99411462441E+02  0.00000000000E+00 0.  1.
         11    1    1    2    0    0 -0.17499720494E+02  0.48334430430E+02 -0.46783694364E+02  0.69506628753E+02  0.00000000000E+00 0. -1.
</event>
<event>
 7    1  0.6473813E-006  0.1046716E+03  0.7561462E-02  0.1270768E+00
          1   -1    0    0  501    0  0.00000000000E+00  0.00000000000E+00  0.11834717655E+03  0.11834717655E+03  0.00000000000E+00 0. -1.
         -1   -1    0    0    0  501 -0.00000000000E+00 -0.00000000000E+00 -0.12049213372E+03  0.12049213372E+03  0.00000000000E+00 0.  1.
         23    2    1    2    0    0  0.42772692560E+02  0.11295547941E+02 -0.27970968289E+02  0.13559628606E+03  0.12508750975E+03 0.  0.
          5    1    3    3  502    0  0.62023920420E+02  0.46095675370E+02  0.12852362163E+02  0.78450198248E+02  0.41800000000E+01 0. -1.
         -5    1    3    3    0  502 -0.19251227860E+02 -0.34800127428E+02 -0.40823330452E+02  0.57146087813E+02  0.41800000000E+01 0. -1.
        -11    1    1    2    0    0 -0.58228571136E+01  0.33439157952E+02 -0.95844638602E+01  0.35269603017E+02  0.00000000000E+00 0.  1.
         11    1    1    2    0    0 -0.36949835447E+02 -0.44734705893E+02  0.35410474978E+02  0.67973421196E+02  0.00000000000E+00 0. -1.
</event>
<event>
 7    1  0.6473813E-006  0.1475441E+03  0.7561462E-02  0.1203524E+00
          2   -1    0    0  501    0  0.00000000000E+00  0.00000000000E+00  0.38256962347E+03  0.38256962347E+03  0.00000000000E+00 0. -1.
         -2   -1    0    0    0  501 -0.00000000000E+00 -0.00000000000E+00 -0.73286124430E+02  0.73286124430E+02  0.00000000000E+00 0.  1.
         23    2    1    2    0    0  0.73051795176E+02  0.76141403321E+02  0.66698432377E+02  0.17671998787E+03  0.12508874910E+03 0.  0.
          5    1    3    3  502    0  0.57236653096E+02 -0.19268772069E+02  0.49939464576E+02  0.78477656417E+02  0.41800000000E+01 0. -1.
         -5    1    3    3    0  502  0.15815142080E+02  0.95410175390E+02  0.16758967801E+02  0.98242331450E+02  0.41800000000E+01 0. -1.
        -11    1    1    2    0    0 -0.14178865941E+02  0.20297583328E+02  0.36425461085E+02  0.44043686761E+02  0.00000000000E+00 0.  1.
         11    1    1    2    0    0 -0.58872929235E+02 -0.96438986648E+02  0.20615960558E+03  0.23509207327E+03  0.00000000000E+00 0. -1.
</event>
<event>
 7    1  0.6473813E-006  0.1475270E+03  0.7561462E-02  0.1203545E+00
         -1   -1    0    0    0  501 -0.00000000000E+00  0.00000000000E+00  0.14774798662E+03  0.14774798662E+03  0.00000000000E+00 0.  1.
          1   -1    0    0  501    0  0.00000000000E+00 -0.00000000000E+00 -0.17696787214E+03  0.17696787214E+03  0.00000000000E+00 0. -1.
         23    2    1    2    0    0 -0.50865281405E+02 -0.85209649923E+02  0.37317385779E+02  0.16396968697E+03  0.12508201178E+03 0.  0.
          5    1    3    3  502    0 -0.68374773752E+01 -0.10881970862E+03  0.20017524808E+02  0.11093535857E+03  0.41800000000E+01 0. -1.
         -5    1    3    3    0  502 -0.44027804030E+02  0.23610058696E+02  0.17299860970E+02  0.53034328401E+02  0.41800000000E+01 0. -1.
        -11    1    1    2    0    0  0.78306635552E+02  0.63025813210E+02 -0.73822285559E+02  0.12471532443E+03  0.00000000000E+00 0. -1.
         11    1    1    2    0    0 -0.27441354146E+02  0.22183836712E+02  0.72850142596E+01  0.36030847359E+02  0.00000000000E+00 0.  1.
</event>
<event>
 7    1  0.6473813E-006  0.9658440E+02  0.7561462E-02  0.1287647E+00
         -2   -1    0    0    0  501 -0.00000000000E+00  0.00000000000E+00  0.80739646988E+02  0.80739646988E+02  0.00000000000E+00 0.  1.
          2   -1    0    0  501    0  0.00000000000E+00 -0.00000000000E+00 -0.20057366073E+03  0.20057366073E+03  0.00000000000E+00 0. -1.
         23    2    1    2    0    0 -0.64784595405E+02  0.13452803901E+02 -0.73711097854E+02  0.15955498575E+03  0.12508575378E+03 0.  0.
          5    1    3    3  502    0  0.11041036848E+02 -0.16067091339E+02 -0.75470218869E+02  0.78059478957E+02  0.41800000000E+01 0. -1.
         -5    1    3    3    0  502 -0.75825632252E+02  0.29519895240E+02  0.17591210155E+01  0.81495506798E+02  0.41800000000E+01 0. -1.
        -11    1    1    2    0    0 -0.37229634188E+01  0.16550863712E+02  0.16907174490E+02  0.23950868365E+02  0.00000000000E+00 0.  1.
         11    1    1    2    0    0  0.68507558824E+02 -0.30003667613E+02 -0.63030090377E+02  0.97807453597E+02  0.00000000000E+00 0. -1.
</event>
<event>
 6    1  0.6473813E-006  0.2709836E+03  0.7561462E-02  0.1100718E+00
          2   -1    0    0  501    0  0.00000000000E+00  0.00000000000E+00  0.35008453407E+03  0.35008453407E+03  0.00000000000E+00 0. -1.
         -2   -1    0    0    0  501 -0.00000000000E+00 -0.00000000000E+00 -0.30778170060E+03  0.30778170060E+03  0.00000000000E+00 0.  1.
          5    1    1    2  502    0  0.12943229492E+03  0.19540932635E+03 -0.15323375114E+03  0.28006352615E+03  0.41800000000E+01 0. -1.
         -5    1    1    2    0  502 -0.88136767417E+02 -0.18733830915E+03  0.74139367619E+02  0.21994965350E+03  0.41800000000E+01 0.  1.
        -11    1    1    2    0    0 -0.97865847250E+01 -0.48347196582E+02  0.66916331466E+02  0.83132569278E+02  0.00000000000E+00 0.  1.
         11    1    1    2    0    0 -0.31508942783E+02  0.40276179381E+02  0.54480885529E+02  0.74720485737E+02  0.00000000000E+00 0. -1.
</event>
<event>
 7    1  0.6473813E-006  0.6165251E+02  0.7561462E-02  0.1391025E+00
          1   -1    0    0  501    0  0.00000000000E+00  0.00000000000E+00  0.10265608307E+03  0.10265608307E+03  0.00000000000E+00 0. -1.
         -1   -1    0    0    0  501 -0.00000000000E+00 -0.00000000000E+00 -0.14748807892E+03  0.14748807892E+03  0.00000000000E+00 0.  1.
         23    2    1    2    0    0  0.41458609430E+02 -0.35554804715E+02 -0.71158449766E+02  0.15392702067E+03  0.12508813807E+03 0.  0.
          5    1    3    3  502    0  0.15735945751E+02 -0.34218857200E+02  0.30705781675E+02  0.48773636372E+02  0.41800000000E+01 0. -1.
         -5    1    3    3    0  502  0.25722663679E+02 -0.13359475157E+01 -0.10186423144E+03  0.10515338430E+03  0.41800000000E+01 0. -1.
        -11    1    1    2    0    0 -0.28946943602E+02  0.95907210308E+01  0.50237514852E+02  0.58768319461E+02  0.00000000000E+00 0. -1.
         11    1    1    2    0    0 -0.12511665828E+02  0.25964083684E+02 -0.23911060935E+02  0.37448821856E+02  0.00000000000E+00 0.  1.
</event>
<event>
 7    1  0.6473813E-006  0.7183709E+02  0.7561462E-02  0.1353955E+00
         -1   -1    0    0    0  501 -0.00000000000E+00  0.00000000000E+00  0.51564337692E+03  0.51564337692E+03  0.00000000000E+00 0. -1.
          1   -1    0    0  501    0  0.00000000000E+00 -0.00000000000E+00 -0.32979679534E+02  0.32979679534E+02  0.00000000000E+00 0.  1.
         23    2    1    2    0    0 -0.79991258933E+01  0.11709406044E+02  0.42833213782E+03  0.44645005301E+03  0.12509249913E+03 0.  0.
          5    1    3    3  502    0 -0.31644684548E+02 -0.48228284402E+01  0.41154505538E+03  0.41280921833E+03  0.41800000000E+01 0. -1.
         -5    1    3    3    0  502  0.23645558654E+02  0.16532234484E+02  0.16787082446E+02  0.33640834683E+02  0.41800000000E+01 0. -1.
        -11    1    1    2    0    0  0.36650715597E+02  0.18114222496E+02  0.11137688852E+02  0.42372728534E+02  0.00000000000E+00 0.  1.
         11    1    1    2    0    0 -0.28651589703E+02 -0.29823628540E+02  0.43193870707E+02  0.59800274903E+02  0.00000000000E+00 0. -1.
</event>
<event>
 7    1  0.6473813E-006  0.1026210E+03  0.7561462E-02  0.1274879E+00
          1   -1    0    0  501    0  0.00000000000E+00  0.00000000000E+00  0.23246258101E+03  0.23246258101E+03  0.00000000000E+00 0.  1.
         -1   -1    0    0    0  501 -0.00000000000E+00 -0.00000000000E+00 -0.11719447725E+03  0.11719447725E+03  0.00000000000E+00 0. -1.
         23    2    1    2    0    0  0.63456976270E+02 -0.45988899921E+02 -0.39523275168E+02  0.15280924023E+03  0.12508720105E+03 0.  0.
          5    1    3    3  502    0  0.74675185254E+02 -0.53498016518E+02 -0.72391532133E+02  0.11703173667E+03  0.41800000000E+01 0.  1.
         -5    1    3    3    0  502 -0.11218208984E+02  0.75091165966E+01  0.32868256965E+02  0.35777503557E+02  0.41800000000E+01 0.  1.
        -11    1    1    2    0    0 -0.10575217663E+02 -0.15050010137E+02  0.93952127769E+02  0.95735784041E+02  0.00000000000E+00 0.  1.
         11    1    1    2    0    0 -0.52881758607E+02  0.61038910058E+02  0.60839251160E+02  0.10111203398E+03  0.00000000000E+00 0. -1.
</event>
<event>
 7    1  0.6473813E-006  0.9389070E+02  0.7561462E-02  0.1293694E+00
          1   -1    0    0  501    0  0.00000000000E+00  0.00000000000E+00  0.35986639164E+03  0.35986639164E+03  0.00000000000E+00 0. -1.
         -1   -1    0    0    0  501 -0.00000000000E+00 -0.00000000000E+00 -0.47566661151E+02  0.47566661151E+02  0.00000000000E+00 0.  1.
         23    2    1    2    0    0  0.33994959302E+02 -0.19985094975E+02  0.83339067905E+02  0.15539592792E+03  0.12508969940E+03 0.  0.
          5    1    3    3  502    0 -0.75453024602E+01 -0.38236412597E+02 -0.18860629271E+02  0.43498857158E+02  0.41800000000E+01 0.  1.
         -5    1    3    3    0  502  0.41540261762E+02  0.18251317622E+02  0.10219969718E+03  0.11189707076E+03  0.41800000000E+01 0.  1.
        -11    1    1    2    0    0  0.33457795102E+02  0.92905637582E+01  0.10382526318E+03  0.10947796081E+03  0.00000000000E+00 0.  1.
         11    1    1    2    0    0 -0.67452754405E+02  0.10694531217E+02  0.12513539940E+03  0.14255916406E+03  0.00000000000E+00 0. -1.
</event>
<event>
 7    1  0.6473813E-006  0.2050715E+03  0.7561462E-02  0.1145529E+00
         -1   -1    0    0    0  501 -0.00000000000E+00  0.00000000000E+00  0.13516870838E+03  0.13516870838E+03  0.00000000000E+00 0.  1.
          1   -1    0    0  501    0  0.00000000000E+00 -0.00000000000E+00 -0.36586499539E+03  0.36586499539E+03  0.00000000000E+00 0. -1.
         23    2    1    2    0    0 -0.14464192943E+03  0.12666930908E+03 -0.95760156093E+02  0.24856366079E+03  0.12508990510E+03 0.  0.
          5    1    3    3  502    0  0.12343930520E+02  0.24404765807E+02 -0.47623597781E+02  0.55076716319E+02  0.41800000000E+01 0. -1.
         -5    1    3    3    0  502 -0.15698585995E+03  0.10226454327E+03 -0.48136558312E+02  0.19348694447E+03  0.41800000000E+01 0. -1.
        -11    1    1    2    0    0  0.90787095149E+02 -0.57712564855E+02 -0.22336380887E+02  0.10987242920E+03  0.00000000000E+00 0.  1.
         11    1    1    2    0    0  0.53854834284E+02 -0.68956744221E+02 -0.11259975003E+03  0.14259761378E+03  0.00000000000E+00 0. -1.
</event>
<event>
 7    1  0.6473813E-006  0.2223680E+03  0.7561462E-02  0.1132130E+00
          3   -1    0    0  501    0  0.00000000000E+00  0.00000000000E+00  0.23960198500E+03  0.23960198500E+03  0.00000000000E+00 0. -1.
         -3   -1    0    0    0  501 -0.00000000000E+00 -0.00000000000E+00 -0.23280315765E+03  0.23280315765E+03  0.00000000000E+00 0.  1.
         23    2    1    2    0    0  0.17994696212E+03 -0.12048207346E+03  0.22660870938E+01  0.25009860306E+03  0.12508931569E+03 0.  0.
          5    1    3    3  502    0  0.11829994853E+03 -0.36661632058E+02  0.52377292908E+02  0.13453552059E+03  0.41800000000E+01 0. -1.
         -5    1    3    3    0  502  0.61647013585E+02 -0.83820441406E+02 -0.50111205814E+02  0.11556308247E+03  0.41800000000E+01 0. -1.
        -11    1    1    2    0    0 -0.91832801312E+02  0.65913091150E+02  0.27084352126E+02  0.11623838055E+03  0.00000000000E+00 0. -1.
         11    1    1    2    0    0 -0.88114160806E+02  0.54568982314E+02 -0.22551611866E+02  0.10606815904E+03  0.00000000000E+00 0.  1.
</event>
<event>
 7    1  0.6473813E-006  0.1751933E+03  0.7561462E-02  0.1172538E+00
          1   -1    0    0  501    0  0.00000000000E+00  0.00000000000E+00  0.84118282571E+03  0.84118282571E+03  0.00000000000E+00 0. -1.
         -1   -1    0    0    0  501 -0.00000000000E+00 -0.00000000000E+00 -0.38818560847E+02  0.38818560847E+02  0.00000000000E+00 0.  1.
         23    2    1    2    0    0 -0.13225070856E+03 -0.50088348106E+02  0.35776945131E+03  0.40452980328E+03  0.12508512671E+03 0.  0.
          5    1    3    3  502    0 -0.13405897485E+03 -0.51198061938E-01  0.21746315719E+03  0.25549854891E+03  0.41800000000E+01 0.  1.
         -5    1    3    3    0  502  0.18082662862E+01 -0.50037150044E+02  0.14030629412E+03  0.14903125437E+03  0.41800000000E+01 0.  1.
        -11    1    1    2    0    0  0.14523198318E+03  0.44612556963E+02  0.37774813056E+03  0.40715630821E+03  0.00000000000E+00 0.  1.
         11    1    1    2    0    0 -0.12981274618E+02  0.54757911429E+01  0.66846682992E+02  0.68315275059E+02  0.00000000000E+00 0. -1.
</event>
<event>
 6    1  0.6473813E-006  0.1138989E+03  0.7561462E-02  0.1253515E+00
          3   -1    0    0  501    0  0.00000000000E+00  0.00000000000E+00  0.41444960041E+03  0.41444960041E+03  0.00000000000E+00 0. -1.
         -3   -1    0    0    0  501 -0.00000000000E+00 -0.00000000000E+00 -0.71022336573E+02  0.71022336573E+02  0.00000000000E+00 0.  1.
          5    1    1    2  502    0  0.18758253938E+02  0.29600163869E+02  0.83903798640E+02  0.91023961780E+02  0.41800000000E+01 0. -1.
         -5    1    1    2    0  502 -0.87334538470E+02  0.27812504757E+02 -0.14438458795E+02  0.92880560523E+02  0.41800000000E+01 0.  1.
        -11    1    1    2    0    0  0.48524770768E+02 -0.63390251256E+02  0.26825201293E+03  0.27987875906E+03  0.00000000000E+00 0. -1.
         11    1    1    2    0    0  0.20051513764E+02  0.59775826296E+01  0.57099110642E+01  0.21688655622E+02  0.00000000000E+00 0.  1.
</event>
<event>
 7    1  0.6473813E-006  0.1051194E+03  0.7561462E-02  0.1269884E+00
         -1   -1    0    0    0  501 -0.00000000000E+00  0.00000000000E+00  0.30004678872E+02  0.30004678872E+02  0.00000000000E+00 0.  1.
          1   -1    0    0  501    0  0.00000000000E+00 -0.00000000000E+00 -0.55659026385E+03  0.55659026385E+03  0.00000000000E+00 0. -1.
         23    2    1    2    0    0 -0.54687134553E+02  0.74262873774E+01 -0.20541278868E+03  0.24675366272E+03  0.12508846422E+03 0.  0.
          5    1    3    3  502    0  0.53179341248E+01 -0.31087006496E+02 -0.15765773503E+03  0.16083568077E+03  0.41800000000E+01 0. -1.
         -5    1    3    3    0  502 -0.60005068677E+02  0.38513293873E+02 -0.47755053654E+02  0.85917981945E+02  0.41800000000E+01 0. -1.
        -11    1    1    2    0    0  0.78767424921E+02 -0.17844380783E+02 -0.19673104871E+03  0.21266366563E+03  0.00000000000E+00 0.  1.
         11    1    1    2    0    0 -0.24080290369E+02  0.10418093405E+02 -0.12444174758E+03  0.12717761437E+03  0.00000000000E+00 0. -1.
</event>
<event>
 7    1  0.6473813E-006  0.1266806E+03  0.7561462E-02  0.1232466E+00
         -1   -1    0    0    0  501 -0.00000000000E+00  0.00000000000E+00  0.42435302497E+03  0.42435302497E+03  0.00000000000E+00 0.  1.
          1   -1    0    0  501    0  0.00000000000E+00 -0.00000000000E+00 -0.59560933842E+02  0.59560933842E+02  0.00000000000E+00 0. -1.
         23    2    1    2    0    0 -0.22463881391E+02  0.99335112721E+02  0.27994598066E+03  0.32309321956E+03  0.12508951137E+03 0.  0.
          5    1    3    3  502    0 -0.60929920493E+02  0.51228828353E+02  0.76487849385E+02  0.11047493639E+03  0.41800000000E+01 0. -1.
         -5    1    3    3    0  502  0.38466039102E+02  0.48106284368E+02  0.20345813128E+03  0.21261828318E+03  0.41800000000E+01 0. -1.
        -11    1    1    2    0    0  0.35495232693E+02 -0.87023109571E+02  0.10008239277E+03  0.13729318441E+03  0.00000000000E+00 0.  1.
         11    1    1    2    0    0 -0.13031351302E+02 -0.12312003150E+02 -0.15236282300E+02  0.23527554838E+02  0.00000000000E+00 0. -1.
</event>
<event>
 7    1  0.6473813E-006  0.1086694E+03  0.7561462E-02  0.1263054E+00
          1   -1    0    0  501    0  0.00000000000E+00  0.00000000000E+00  0.19990267480E+03  0.19990267480E+03  0.00000000000E+00 0. -1.
         -1   -1    0    0    0  501 -0.00000000000E+00 -0.00000000000E+00 -0.61696430293E+02  0.61696430293E+02  0.00000000000E+00 0.  1.
         23    2    1    2    0    0 -0.22944579743E+01 -0.11731797484E+02  0.55475690151E+02  0.13735629075E+03  0.12508516619E+03 0.  0.
          5    1    3    3  502    0 -0.20874194452E+02 -0.65343607465E+02  0.28683883342E+02  0.74469836807E+02  0.41800000000E+01 0.  1.
         -5    1    3    3    0  502  0.18579736478E+02  0.53611809981E+02  0.26791806809E+02  0.62886453940E+02  0.41800000000E+01 0.  1.
        -11    1    1    2    0    0  0.15237169455E+02  0.49502347201E+02  0.55503897525E+02  0.75916640810E+02  0.00000000000E+00 0. -1.
         11    1    1    2    0    0 -0.12942711480E+02 -0.37770549718E+02  0.27226656834E+02  0.48326173538E+02  0.00000000000E+00 0.  1.
</event>
<event>
 7    1  0.6473813E-006  0.1180048E+03  0.7561462E-02  0.1246425E+00
          2   -1    0    0  501    0  0.00000000000E+00  0.00000000000E+00  0.61145663731E+03  0.61145663731E+03  0.00000000000E+00 0.  1.
         -2   -1    0    0    0  501 -0.00000000000E+00 -0.00000000000E+00 -0.29981761832E+02  0.29981761832E+02  0.00000000000E+00 0. -1.
         23    2    1    2    0    0  0.61743048907E+02 -0.43393096058E+01  0.19609893803E+03  0.24069333319E+03  0.12508978155E+03 0.  0.
          5    1    3    3  502    0  0.31033958883E+02  0.60215200447E+02  0.91206709352E+02  0.11368866786E+03  0.41800000000E+01 0. -1.
         -5    1    3    3    0  502  0.30709090024E+02 -0.64554510053E+02  0.10489222868E+03  0.12700466533E+03  0.41800000000E+01 0. -1.
        -11    1    1    2    0    0 -0.29389991703E+02 -0.34930229823E+02  0.88906903573E+02  0.99941633320E+02  0.00000000000E+00 0. -1.
         11    1    1    2    0    0 -0.32353057204E+02  0.39269539429E+02  0.29646903387E+03  0.30080343263E+03  0.00000000000E+00 0.  1.
</event>
<event>
 7    1  0.6473813E-006  0.1935331E+03  0.7561462E-02  0.1155313E+00
         -2   -1    0    0    0  501 -0.00000000000E+00  0.00000000000E+00  0.85100057624E+02  0.85100057624E+02  0.00000000000E+00 0.  1.
          2   -1    0    0  501    0  0.00000000000E+00 -0.00000000000E+00 -0.59065317519E+03  0.59065317519E+03  0.00000000000E+00 0. -1.
         23    2    1    2    0    0  0.80039400339E+02  0.16420228373E+03 -0.15657385835E+03  0.27116627306E+03  0.12508828457E+03 0.  0.
          5    1    3    3  502    0 -0.22259152421E+01  0.61703768787E+02  0.58792184441E+01  0.62163875287E+02  0.41800000000E+01 0.  1.
         -5    1    3    3    0  502  0.82265315581E+02  0.10249851495E+03 -0.16245307680E+03  0.20900239777E+03  0.41800000000E+01 0.  1.
        -11    1    1    2    0    0 -0.17894660557E+02  0.23606875293E+00 -0.54748410943E+01  0.18714926927E+02  0.00000000000E+00 0.  1.
         11    1    1    2    0    0 -0.62144739782E+02 -0.16443835249E+03 -0.34350441811E+03  0.38587203282E+03  0.00000000000E+00 0. -1.
</event>
<event>
 7    1  0.6473813E-006  0.5949602E+02  0.7561462E-02  0.1399959E+00
          1   -1    0    0  501    0  0.00000000000E+00  0.00000000000E+00  0.44827536587E+03  0.44827536587E+03  0.00000000000E+00 0. -1.
         -1   -1    0    0    0  501 -0.00000000000E+00 -0.00000000000E+00 -0.29205851378E+02  0.29205851378E+02  0.00000000000E+00 0.  1.
         23    2    1    2    0    0 -0.27657425390E+02  0.46648084887E+01  0.18630968498E+03  0.22615247905E+03  0.12508777496E+03 0.  0.
          5    1    3    3  502    0 -0.28176234611E+02  0.98384329504E+01  0.20453569018E+03  0.20674384131E+03  0.41800000000E+01 0.  1.
         -5    1    3    3    0  502  0.51880922107E+00 -0.51736244617E+01 -0.18226005207E+02  0.19408637739E+02  0.41800000000E+01 0.  1.
        -11    1    1    2    0    0  0.66290399020E+01  0.35892825058E+02  0.16896774717E+03  0.17286508799E+03  0.00000000000E+00 0. -1.
         11    1    1    2    0    0  0.21028385488E+02 -0.40557633547E+02  0.63792082344E+02  0.78463650215E+02  0.00000000000E+00 0.  1.
</event>
<event>
 7    1  0.6473813E-006  0.1064250E+03  0.7561462E-02  0.1267337E+00
          1   -1    0    0  501    0  0.00000000000E+00  0.00000000000E+00  0.11079805566E+03  0.11079805566E+03  0.00000000000E+00 0. -1.
         -1   -1    0    0    0  501 -0.00000000000E+00 -0.00000000000E+00 -0.11334295493E+03  0.11334295493E+03  0.00000000000E+00 0.  1.
         23    2    1    2    0    0 -0.30608258294E+02 -0.33113431959E+01 -0.89948533243E+01  0.12913599310E+03  0.12508943544E+03 0.  0.
          5    1    3    3  502    0 -0.17755082719E+02  0.60291748209E+02 -0.11648569456E+02  0.64058562541E+02  0.41800000000E+01 0.  1.
         -5    1    3    3    0  502 -0.12853175575E+02 -0.63603091405E+02  0.26537161312E+01  0.65077430557E+02  0.41800000000E+01 0.  1.
        -11    1    1    2    0    0  0.57607719998E+02  0.47144364224E+01  0.24201201789E+02  0.62662376927E+02  0.00000000000E+00 0. -1.
         11    1    1    2    0    0 -0.26999461704E+02 -0.14030932264E+01 -0.17751247727E+02  0.32342640566E+02  0.00000000000E+00 0.  1.
</event>
<event>
 7    1  0.6473813E-006  0.1206354E+03  0.7561462E-02  0.1242052E+00
         -1   -1    0    0    0  501 -0.00000000000E+00  0.00000000000E+00  0.10718133475E+03  0.10718133475E+03  0.00000000000E+00 0.  1.
          1   -1    0    0  501    0  0.00000000000E+00 -0.00000000000E+00 -0.22697617650E+03  0.22697617650E+03  0.00000000000E+00 0. -1.
         23    2    1    2    0    0 -0.32633413455E+02 -0.53599469150E+02  0.34663921629E+02  0.14417503998E+03  0.12508801671E+03 0.  0.
          5    1    3    3  502    0  0.76834663418E+01  0.34992600692E+02  0.29530138008E+02  0.46615654119E+02  0.41800000000E+01 0. -1.
         -5    1    3    3    0  502 -0.40316879796E+02 -0.88592069842E+02  0.51337836205E+01  0.97559385861E+02  0.41800000000E+01 0. -1.
        -11    1    1    2    0    0  0.86906554032E+01 -0.24549827054E+02 -0.20871391103E+02  0.33374188624E+02  0.00000000000E+00 0. -1.
         11    1    1    2    0    0  0.23942758051E+02  0.78149296205E+02 -0.13358737228E+03  0.15660828264E+03  0.00000000000E+00 0.  1.
</event>
<event>
 7    1  0.2339255E-005  0.2858552E+03  0.7561462E-02  0.1092533E+00
          1   -1    0    0  501    0  0.00000000000E+00  0.00000000000E+00  0.19982556201E+03  0.19982556201E+03  0.00000000000E+00 0. -1.
         -1   -1    0    0    0  501 -0.00000000000E+00 -0.00000000000E+00 -0.44606558981E+03  0.44606558981E+03  0.00000000000E+00 0.  1.
         23    2    1    2    0    0  0.71834445341E+00 -0.26636305344E+03 -0.21043316274E+03  0.36177282770E+03  0.12509064963E+03 0.  0.
          5    1    3    3  502    0  0.56439818050E+02 -0.19818476748E+03 -0.14565041229E+03  0.25237703961E+03  0.41800000000E+01 0. -1.
         -5    1    3    3    0  502 -0.55721473596E+02 -0.68178285960E+02 -0.64782750448E+02  0.10939578809E+03  0.41800000000E+01 0. -1.
        -11    1    1    2    0    0  0.36559207123E+02  0.17497537413E+03  0.10667982510E+01  0.17875708443E+03  0.00000000000E+00 0. -1.
         11    1    1    2    0    0 -0.37277551576E+02  0.91387679309E+02 -0.36873663320E+02  0.10536123968E+03  0.00000000000E+00 0.  1.
</event>
<event>
 7    1  0.6473813E-006  0.1374554E+03  0.7561462E-02  0.1216794E+00
          2   -1    0    0  501    0  0.00000000000E+00  0.00000000000E+00  0.36597981858E+02  0.36597981858E+02  0.00000000000E+00 0. -1.
         -2   -1    0    0    0  501 -0.00000000000E+00 -0.00000000000E+00 -0.63761317214E+03  0.63761317214E+03  0.00000000000E+00 0.  1.
         23    2    1    2    0    0 -0.95332136548E+02 -0.17519110710E+02 -0.42251390767E+03  0.45117710141E+03  0.12509052389E+03 0.  0.
          5    1    3    3  502    0  0.18852551284E+02 -0.36639277846E+02 -0.13465928061E+03  0.14088452586E+03  0.41800000000E+01 0. -1.
         -5    1    3    3    0  502 -0.11418468783E+03  0.19120167136E+02 -0.28785462706E+03  0.31029257556E+03  0.41800000000E+01 0. -1.
        -11    1    1    2    0    0  0.10444151432E+03  0.84380711265E+01 -0.18172881466E+03  0.20977271756E+03  0.00000000000E+00 0.  1.
         11    1    1    2    0    0 -0.91093777757E+01  0.90810395836E+01  0.32275320445E+01  0.13261335019E+02  0.00000000000E+00 0. -1.
</event>
<event>
 7    1  0.6473813E-006  0.9265686E+02  0.7561462E-02  0.1296542E+00
         -1   -1    0    0    0  501 -0.00000000000E+00  0.00000000000E+00  0.45448446824E+02  0.45448446824E+02  0.00000000000E+00 0.  1.
          1   -1    0    0  501    0  0.00000000000E+00 -0.00000000000E+00 -0.27754474863E+03  0.27754474863E+03  0.00000000000E+00 0. -1.
         23    2    1    2    0    0  0.34008898401E+02 -0.15385239087E+01 -0.11114094354E+03  0.17076585162E+03  0.12509873910E+03 0.  0.
          5    1    3    3  502    0  0.12529491185E+01 -0.50717574883E+02 -0.97484530049E+02  0.10997521667E+03  0.41800000000E+01 0.  1.
         -5    1    3    3    0  502  0.32755949282E+02  0.49179050974E+02 -0.13656413491E+02  0.60790634949E+02  0.41800000000E+01 0.  1.
        -11    1    1    2    0    0  0.16195547642E+02 -0.15239402712E+02 -0.23700240129E+01  0.22364082191E+02  0.00000000000E+00 0.  1.
         11    1    1    2    0    0 -0.50204446043E+02  0.16777926621E+02 -0.11858533426E+03  0.12986326164E+03  0.00000000000E+00 0. -1.
</event>
<event>
 7    1  0.6473813E-006  0.1990127E+03  0.7561462E-02  0.1150575E+00
         -2   -1    0    0    0  501 -0.00000000000E+00  0.00000000000E+00  0.34836144687E+03  0.34836144687E+03  0.00000000000E+00 0.  1.
          2   -1    0    0  501    0  0.00000000000E+00 -0.00000000000E+00 -0.15446306579E+03  0.15446306579E+03  0.00000000000E+00 0. -1.
         23    2    1    2    0    0 -0.14228485085E+03  0.10938871147E+03  0.20801042386E+03  0.30186908981E+03  0.12508294036E+03 0.  0.
          5    1    3    3  502    0 -0.14712335236E+03  0.11816887725E+03  0.21711947575E+03  0.28769341930E+03  0.41800000000E+01 0.  1.
         -5    1    3    3    0  502  0.48385015028E+01 -0.87801657781E+01 -0.91090518942E+01  0.14175670506E+02  0.41800000000E+01 0.  1.
        -11    1    1    2    0    0  0.13812444127E+03 -0.12252336240E+03 -0.20497235758E+02  0.18576994451E+03  0.00000000000E+00 0.  1.
         11    1    1    2    0    0  0.41604095885E+01  0.13134650926E+02  0.63851929813E+01  0.15185478336E+02  0.00000000000E+00 0. -1.
</event>
<event>
 6    1  0.6473813E-006  0.1180674E+03  0.7561462E-02  0.1246320E+00
          1   -1    0    0  501    0  0.00000000000E+00  0.00000000000E+00  0.17839671833E+03  0.17839671833E+03  0.00000000000E+00 0. -1.
         -1   -1    0    0    0  501 -0.00000000000E+00 -0.00000000000E+00 -0.15226459146E+03  0.15226459146E+03  0.00000000000E+00 0.  1.
          5    1    1    2  502    0 -0.16323313533E+02  0.34340060712E+02 -0.63717190697E+02  0.74317179203E+02  0.41800000000E+01 0. -1.
         -5    1    1    2    0  502  0.15327229879E+02 -0.95141141589E+02 -0.19399101184E+02  0.98389828363E+02  0.41800000000E+01 0.  1.
        -11    1    1    2    0    0  0.31976596767E+02 -0.13237897753E+01  0.72849566437E+02  0.79569557560E+02  0.00000000000E+00 0. -1.
         11    1    1    2    0    0 -0.30980513112E+02  0.62124870652E+02  0.36398852315E+02  0.78384744664E+02  0.00000000000E+00 0.  1.
</event>
<event>
 7    1  0.6473813E-006  0.1400449E+03  0.7561462E-02  0.1213269E+00
          1   -1    0    0  501    0  0.00000000000E+00  0.00000000000E+00  0.12661636797E+03  0.12661636797E+03  0.00000000000E+00 0. -1.
         -1   -1    0    0    0  501 -0.00000000000E+00 -0.00000000000E+00 -0.15885639371E+03  0.15885639371E+03  0.00000000000E+00 0.  1.
         23    2    1    2    0    0 -0.29395765775E+02 -0.85172588370E+02  0.31786606545E+01  0.15420175496E+03  0.12509834729E+03 0.  0.
          5    1    3    3  502    0  0.27302373548E+02 -0.92344786020E+02 -0.38858901997E+01  0.96465287275E+02  0.41800000000E+01 0. -1.
         -5    1    3    3    0  502 -0.56698139323E+02  0.71721976492E+01  0.70645508542E+01  0.57736467684E+02  0.41800000000E+01 0. -1.
        -11    1    1    2    0    0  0.60596321434E+02  0.44710841103E+02 -0.20709452773E+02  0.78101567959E+02  0.00000000000E+00 0.  1.
         11    1    1    2    0    0 -0.31200555659E+02  0.40461747267E+02 -0.14709233621E+02  0.53169438770E+02  0.00000000000E+00 0. -1.
</event>
<event>
 7    1  0.6473813E-006  0.1305643E+03  0.7561462E-02  0.1226621E+00
         -1   -1    0    0    0  501 -0.00000000000E+00  0.00000000000E+00  0.30832571187E+02  0.30832571187E+02  0.00000000000E+00 0.  1.
          1   -1    0    0  501    0  0.00000000000E+00 -0.00000000000E+00 -0.59273769729E+03  0.59273769729E+03  0.00000000000E+00 0. -1.
         23    2    1    2    0    0 -0.61468071443E+02  0.58064043238E+02 -0.33449915523E+03  0.36389710210E+03  0.11567912146E+03 0.  0.
          5    1    3    3  502    0 -0.89183576133E+01 -0.31189916943E+02 -0.39899816830E+02  0.51592788299E+02  0.41800000000E+01 0. -1.
         -5    1    3    3    0  502 -0.52549713830E+02  0.89253960182E+02 -0.29459933840E+03  0.31230431380E+03  0.41800000000E+01 0.  1.
        -11    1    1    2    0    0  0.33515540313E+02  0.21910842714E+02 -0.85280606085E+02  0.94213365534E+02  0.00000000000E+00 0.  1.
         11    1    1    2    0    0  0.27952531130E+02 -0.79974885952E+02 -0.14212536479E+03  0.16545980084E+03  0.00000000000E+00 0. -1.
</event>
<event>
 7    1  0.6473813E-006  0.1093592E+03  0.7561462E-02  0.1261761E+00
          1   -1    0    0  501    0  0.00000000000E+00  0.00000000000E+00  0.75301837742E+03  0.75301837742E+03  0.00000000000E+00 0. -1.
         -1   -1    0    0    0  501 -0.00000000000E+00 -0.00000000000E+00 -0.22359529930E+02  0.22359529930E+02  0.00000000000E+00 0.  1.
         23    2    1    2    0    0  0.49077720508E+02  0.39536002416E+02  0.28740099922E+03  0.31855089510E+03  0.12208038450E+03 0.  0.
          5    1    3    3  502    0  0.75274004594E+02  0.39011686921E+02  0.27756283987E+03  0.29025280354E+03  0.41800000000E+01 0. -1.
         -5    1    3    3    0  502 -0.26196284086E+02  0.52431549457E+00  0.98381593458E+01  0.28298091560E+02  0.41800000000E+01 0.  1.
        -11    1    1    2    0    0  0.19083243238E+02 -0.33905290290E+02  0.21692122204E+03  0.22038274763E+03  0.00000000000E+00 0.  1.
         11    1    1    2    0    0 -0.68160963747E+02 -0.56307121255E+01  0.22633662623E+03  0.23644426462E+03  0.00000000000E+00 0. -1.
</event>
<event>
 6    1  0.6473813E-006  0.1252971E+03  0.7561462E-02  0.1234606E+00
         -1   -1    0    0    0  501 -0.00000000000E+00  0.00000000000E+00  0.11631191791E+04  0.11631191791E+04  0.00000000000E+00 0.  1.
          1   -1    0    0  501    0  0.00000000000E+00 -0.00000000000E+00 -0.74490559351E+02  0.74490559351E+02  0.00000000000E+00 0. -1.
          5    1    1    2  502    0 -0.22615616031E+02 -0.13640690743E+02  0.27464763720E+02  0.38331712440E+02  0.41800000000E+01 0. -1.
         -5    1    1    2    0  502  0.10230109551E+03  0.47794165879E+02  0.10666156056E+04  0.10725838517E+04  0.41800000000E+01 0.  1.
        -11    1    1    2    0    0 -0.12033558432E+02  0.20581316231E+02  0.24955584272E+02  0.34513450895E+02  0.00000000000E+00 0.  1.
         11    1    1    2    0    0 -0.67651921051E+02 -0.54734791367E+02 -0.30407333878E+02  0.92180723372E+02  0.00000000000E+00 0. -1.
</event>
<event>
 7    1  0.6473813E-006  0.1636807E+03  0.7561462E-02  0.1184603E+00
         -3   -1    0    0    0  501 -0.00000000000E+00  0.00000000000E+00  0.93695536621E+03  0.93695536621E+03  0.00000000000E+00 0.  1.
          3   -1    0    0  501    0  0.00000000000E+00 -0.00000000000E+00 -0.35420131822E+02  0.35420131822E+02  0.00000000000E+00 0. -1.
         23    2    1    2    0    0  0.12607367722E+03 -0.63324525097E+02  0.57064277941E+03  0.60098658732E+03  0.12508848417E+03 0.  0.
          5    1    3    3  502    0  0.71201957403E+02 -0.83312832293E+02  0.22370014270E+03  0.24913846152E+03  0.41800000000E+01 0.  1.
         -5    1    3    3    0  502  0.54871719817E+02  0.19988307195E+02  0.34694263671E+03  0.35184812580E+03  0.41800000000E+01 0.  1.
        -11    1    1    2    0    0 -0.10054219098E+02 -0.15785733029E+02  0.10234817233E+02  0.21331389376E+02  0.00000000000E+00 0. -1.
         11    1    1    2    0    0 -0.11601945812E+03  0.79110258126E+02  0.32065763775E+03  0.35005752134E+03  0.00000000000E+00 0.  1.
</event>
<event>
 7    1  0.6473813E-006  0.2395853E+03  0.7561462E-02  0.1120069E+00
         -2   -1    0    0    0  501 -0.00000000000E+00  0.00000000000E+00  0.11345115532E+03  0.11345115532E+03  0.00000000000E+00 0. -1.
          2   -1    0    0  501    0  0.00000000000E+00 -0.00000000000E+00 -0.62669936079E+03  0.62669936079E+03  0.00000000000E+00 0.  1.
         23    2    1    2    0    0 -0.20883053507E+03  0.54068719338E+02 -0.10625820218E+03  0.27105772709E+03  0.12509143493E+03 0.  0.
          5    1    3    3  502    0 -0.12553800707E+03  0.93118557173E+02 -0.77984021724E+02  0.17472789403E+03  0.41800000000E+01 0.  1.
         -5    1    3    3    0  502 -0.83292527998E+02 -0.39049837835E+02 -0.28274180461E+02  0.96329833053E+02  0.41800000000E+01 0.  1.
        -11    1    1    2    0    0  0.10312753788E+03  0.15350770220E+02 -0.21863200945E+03  0.24222074802E+03  0.00000000000E+00 0. -1.
         11    1    1    2    0    0  0.10570299719E+03 -0.69419489558E+02 -0.18835799384E+03  0.22687204100E+03  0.00000000000E+00 0.  1.
</event>
<event>
 7    1  0.6473813E-006  0.2227553E+03  0.7561462E-02  0.1131845E+00
         -2   -1    0    0    0  501 -0.00000000000E+00  0.00000000000E+00  0.49531501547E+02  0.49531501547E+02  0.00000000000E+00 0.  1.
          2   -1    0    0  501    0  0.00000000000E+00 -0.00000000000E+00 -0.10616664864E+04  0.10616664864E+04  0.00000000000E+00 0. -1.
         23    2    1    2    0    0 -0.61039543018E+02 -0.49355425145E+02 -0.26847779322E+03  0.30641338247E+03  0.12508817572E+03 0.  0.
          5    1    3    3  502    0  0.12723724051E+02 -0.64120759076E+02 -0.79754848810E+02  0.10320694360E+03  0.41800000000E+01 0.  1.
         -5    1    3    3    0  502 -0.73763267069E+02  0.14765333931E+02 -0.18872294441E+03  0.20320643887E+03  0.41800000000E+01 0.  1.
        -11    1    1    2    0    0  0.92132345004E+01  0.17162054320E+03 -0.36305616788E+03  0.40168180887E+03  0.00000000000E+00 0.  1.
         11    1    1    2    0    0  0.51826308518E+02 -0.12226511805E+03 -0.38060102374E+03  0.40310279659E+03  0.00000000000E+00 0. -1.
</event>
<event>
 7    1  0.6473813E-006  0.1479004E+03  0.7561462E-02  0.1203077E+00
          2   -1    0    0  501    0  0.00000000000E+00  0.00000000000E+00  0.81290712693E+02  0.81290712693E+02  0.00000000000E+00 0. -1.
         -2   -1    0    0    0  501 -0.00000000000E+00 -0.00000000000E+00 -0.36803294056E+03  0.36803294056E+03  0.00000000000E+00 0.  1.
         23    2    1    2    0    0 -0.12499551183E+03 -0.51879374213E+02 -0.15172006117E+03  0.23873021631E+03  0.12513109835E+03 0.  0.
          5    1    3    3  502    0 -0.92409671913E+02 -0.32448522406E+02 -0.17999649342E+02  0.99669021495E+02  0.41800000000E+01 0.  1.
         -5    1    3    3    0  502 -0.32585839912E+02 -0.19430851807E+02 -0.13372041183E+03  0.13906119482E+03  0.41800000000E+01 0.  1.
        -11    1    1    2    0    0  0.10908524914E+02  0.43901126893E+02 -0.53959909007E+02  0.70412901079E+02  0.00000000000E+00 0.  1.
         11    1    1    2    0    0  0.11408698691E+03  0.79782473201E+01 -0.81062257693E+02  0.14018053586E+03  0.00000000000E+00 0. -1.
</event>
<event>
 7    1  0.6473813E-006  0.1468556E+03  0.7561462E-02  0.1204391E+00
          1   -1    0    0  501    0  0.00000000000E+00  0.00000000000E+00  0.62838214775E+03  0.62838214775E+03  0.00000000000E+00 0. -1.
         -1   -1    0    0    0  501 -0.00000000000E+00 -0.00000000000E+00 -0.51594072498E+02  0.51594072498E+02  0.00000000000E+00 0.  1.
         23    2    1    2    0    0  0.75995057933E+02  0.92092547957E+02  0.15108701872E+03  0.22963082654E+03  0.12508694197E+03 0.  0.
          5    1    3    3  502    0  0.11101167696E+03  0.70314252447E+02  0.11553479886E+03  0.17502413738E+03  0.41800000000E+01 0. -1.
         -5    1    3    3    0  502 -0.35016619027E+02  0.21778295510E+02  0.35552219865E+02  0.54606689157E+02  0.41800000000E+01 0. -1.
        -11    1    1    2    0    0 -0.21900160062E+02 -0.14737748052E+02  0.18221367158E+02  0.32075480503E+02  0.00000000000E+00 0.  1.
         11    1    1    2    0    0 -0.54094897871E+02 -0.77354799905E+02  0.40747968937E+03  0.41826991321E+03  0.00000000000E+00 0. -1.
</event>
<event>
 7    1  0.6473813E-006  0.2004401E+03  0.7561462E-02  0.1149368E+00
          2   -1    0    0  501    0  0.00000000000E+00  0.00000000000E+00  0.14542603794E+03  0.14542603794E+03  0.00000000000E+00 0. -1.
         -2   -1    0    0    0  501 -0.00000000000E+00 -0.00000000000E+00 -0.46403502583E+03  0.46403502583E+03  0.00000000000E+00 0.  1.
         23    2    1    2    0    0  0.13664734441E+03  0.13210173627E+03 -0.32676978035E+03  0.39818238218E+03  0.12508938673E+03 0.  0.
          5    1    3    3  502    0  0.45391490781E+02  0.30586316963E+02 -0.21443636822E+03  0.22135116588E+03  0.41800000000E+01 0.  1.
         -5    1    3    3    0  502  0.91255853624E+02  0.10151541931E+03 -0.11233341213E+03  0.17683121630E+03  0.41800000000E+01 0.  1.
        -11    1    1    2    0    0 -0.35727608138E+02 -0.95672106944E+02 -0.94013372574E+01  0.10255729702E+03  0.00000000000E+00 0.  1.
         11    1    1    2    0    0 -0.10091973627E+03 -0.36429629330E+02  0.17562129714E+02  0.10872138456E+03  0.00000000000E+00 0. -1.
</event>
<event>
 7    1  0.6473813E-006  0.1217284E+03  0.7561462E-02  0.1240273E+00
         -2   -1    0    0    0  501 -0.00000000000E+00  0.00000000000E+00  0.10234603241E+03  0.10234603241E+03  0.00000000000E+00 0. -1.
          2   -1    0    0  501    0  0.00000000000E+00 -0.00000000000E+00 -0.21303442057E+03  0.21303442057E+03  0.00000000000E+00 0.  1.
         23    2    1    2    0    0 -0.46412647952E+02  0.62939893099E+02  0.52294676941E+01  0.14761712796E+03  0.12509158686E+03 0.  0.
          5    1    3    3  502    0 -0.30863865822E+02 -0.22825159727E+02  0.38215599270E+02  0.54327438349E+02  0.41800000000E+01 0.  1.
         -5    1    3    3    0  502 -0.15548782130E+02  0.85765052825E+02 -0.32986131576E+02  0.93289689614E+02  0.41800000000E+01 0.  1.
        -11    1    1    2    0    0 -0.25805667309E+02 -0.25308537099E+02 -0.17911766176E+02  0.40339631665E+02  0.00000000000E+00 0.  1.
         11    1    1    2    0    0  0.72218315261E+02 -0.37631356000E+02 -0.98006089682E+02  0.12742369335E+03  0.00000000000E+00 0. -1.
</event>
<event>
 7    1  0.6473813E-006  0.1504352E+03  0.7561462E-02  0.1199939E+00
          2   -1    0    0  501    0  0.00000000000E+00  0.00000000000E+00  0.63474104631E+02  0.63474104631E+02  0.00000000000E+00 0.  1.
         -2   -1    0    0    0  501 -0.00000000000E+00 -0.00000000000E+00 -0.42155584983E+03  0.42155584983E+03  0.00000000000E+00 0. -1.
         23    2    1    2    0    0 -0.11368170721E+03 -0.88496001467E+01 -0.26142797607E+03  0.31143399387E+03  0.12507877473E+03 0.  0.
          5    1    3    3  502    0 -0.25611369266E+02  0.53662321923E+02 -0.11385840024E+03  0.12851768258E+03  0.41800000000E+01 0.  1.
         -5    1    3    3    0  502 -0.88070337941E+02 -0.62511922069E+02 -0.14756957583E+03  0.18291631129E+03  0.41800000000E+01 0.  1.
        -11    1    1    2    0    0  0.26948562705E+02 -0.28074737520E+02 -0.61922336153E+02  0.73135433501E+02  0.00000000000E+00 0. -1.
         11    1    1    2    0    0  0.86733144502E+02  0.36924337667E+02 -0.34731432979E+02  0.10046052709E+03  0.00000000000E+00 0.  1.
</event>
<event>
 7    1  0.6473813E-006  0.1043274E+03  0.7561462E-02  0.1271450E+00
         -2   -1    0    0    0  501 -0.00000000000E+00  0.00000000000E+00  0.34617258765E+02  0.34617258765E+02  0.00000000000E+00 0.  1.
          2   -1    0    0  501    0  0.00000000000E+00 -0.00000000000E+00 -0.47863441547E+03  0.47863441547E+03  0.00000000000E+00 0. -1.
         23    2    1    2    0    0 -0.14426897054E+01 -0.82947435403E+02 -0.26287523167E+03  0.30270978527E+03  0.12508984083E+03 0.  0.
          5    1    3    3  502    0 -0.29339807708E+02 -0.74516577450E+02 -0.66611898888E+02  0.10425047772E+03  0.41800000000E+01 0. -1.
         -5    1    3    3    0  502  0.27897118002E+02 -0.84308579530E+01 -0.19626333278E+03  0.19845930755E+03  0.41800000000E+01 0. -1.
        -11    1    1    2    0    0 -0.21543292137E+02  0.12477588918E+02 -0.16179958379E+02  0.29691660688E+02  0.00000000000E+00 0.  1.
         11    1    1    2    0    0  0.22985981842E+02  0.70469846485E+02 -0.16496196665E+03  0.18085022827E+03  0.00000000000E+00 0. -1.
</event>
<event>
 7    1  0.6473813E-006  0.1129218E+03  0.7561462E-02  0.1255253E+00
          1   -1    0    0  501    0  0.00000000000E+00  0.00000000000E+00  0.63673126594E+03  0.63673126594E+03  0.00000000000E+00 0. -1.
         -1   -1    0    0    0  501 -0.00000000000E+00 -0.00000000000E+00 -0.20823282779E+02  0.20823282779E+02  0.00000000000E+00 0.  1.
         23    2    1    2    0    0 -0.43192245790E+02  0.22597587882E+01  0.29802533584E+03  0.32610202278E+03  0.12511095817E+03 0.  0.
          5    1    3    3  502    0 -0.85007764170E+02 -0.15697901638E+02  0.20182082158E+03  0.21959476430E+03  0.41800000000E+01 0. -1.
         -5    1    3    3    0  502  0.41815518380E+02  0.17957660426E+02  0.96204514266E+02  0.10650725849E+03  0.41800000000E+01 0. -1.
        -11    1    1    2    0    0  0.46359511915E+02 -0.36628410322E+02  0.21257618644E+03  0.22063426712E+03  0.00000000000E+00 0.  1.
         11    1    1    2    0    0 -0.31672661255E+01  0.34368651534E+02  0.10530646088E+03  0.11081825881E+03  0.00000000000E+00 0. -1.
</event>
<event>
 7    1  0.6473813E-006  0.1106713E+03  0.7561462E-02  0.1259332E+00
         -2   -1    0    0    0  501 -0.00000000000E+00  0.00000000000E+00  0.95864328595E+03  0.95864328595E+03  0.00000000000E+00 0. -1.
          2   -1    0    0  501    0  0.00000000000E+00 -0.00000000000E+00 -0.13263959688E+02  0.13263959688E+02  0.00000000000E+00 0.  1.
         23    2    1    2    0    0 -0.25041413417E+01  0.19287163245E+02  0.47645759764E+03  0.49298828189E+03  0.12508932143E+03 0.  0.
          5    1    3    3  502    0  0.58290407820E+02 -0.56553089061E+01  0.26896315222E+03  0.27529693754E+03  0.41800000000E+01 0.  1.
         -5    1    3    3    0  502 -0.60794549162E+02  0.24942472151E+02  0.20749444542E+03  0.21769134435E+03  0.41800000000E+01 0.  1.
        -11    1    1    2    0    0 -0.21159733470E+02  0.33108625642E+02  0.21605797994E+03  0.21960183539E+03  0.00000000000E+00 0. -1.
         11    1    1    2    0    0  0.23663874811E+02 -0.52395788888E+02  0.25286374868E+03  0.25931712836E+03  0.00000000000E+00 0.  1.
</event>
<event>
 7    1  0.6473813E-006  0.5316749E+02  0.7561462E-02  0.1428969E+00
         -2   -1    0    0    0  501 -0.00000000000E+00  0.00000000000E+00  0.15854494958E+03  0.15854494958E+03  0.00000000000E+00 0.  1.
          2   -1    0    0  501    0  0.00000000000E+00 -0.00000000000E+00 -0.78975613187E+02  0.78975613187E+02  0.00000000000E+00 0. -1.
         23    2    1    2    0    0  0.23880553160E+01 -0.51519823530E-01  0.74995676310E+02  0.14587254422E+03  0.12509493287E+03 0.  0.
          5    1    3    3  502    0  0.76988177712E+00  0.21474143748E+02  0.10579174002E+03  0.10803284790E+03  0.41800000000E+01 0.  1.
         -5    1    3    3    0  502  0.16181735389E+01 -0.21525663571E+02 -0.30796063714E+02  0.37839696326E+02  0.41800000000E+01 0.  1.
        -11    1    1    2    0    0 -0.27578630457E+02 -0.16666498646E+02 -0.31170430650E+02  0.44832452330E+02  0.00000000000E+00 0. -1.
         11    1    1    2    0    0  0.25190575141E+02  0.16718018470E+02  0.35744090732E+02  0.46815566212E+02  0.00000000000E+00 0.  1.
</event>
<event>
 7    1  0.6473813E-006  0.9306337E+02  0.7561462E-02  0.1295598E+00
          1   -1    0    0  501    0  0.00000000000E+00  0.00000000000E+00  0.67597680926E+02  0.67597680926E+02  0.00000000000E+00 0. -1.
         -1   -1    0    0    0  501 -0.00000000000E+00 -0.00000000000E+00 -0.22997429444E+03  0.22997429444E+03  0.00000000000E+00 0.  1.
         23    2    1    2    0    0 -0.36585026873E+01 -0.53959860036E+02 -0.12586137988E+03  0.18551014793E+03  0.12509147414E+03 0.  0.
          5    1    3    3  502    0 -0.61237739077E+01  0.13698246010E+02 -0.11591031370E+03  0.11695219439E+03  0.41800000000E+01 0.  1.
         -5    1    3    3    0  502  0.24652712204E+01 -0.67658106046E+02 -0.99510661844E+01  0.68557953544E+02  0.41800000000E+01 0.  1.
        -11    1    1    2    0    0  0.30102171660E+02  0.66839489430E+02 -0.13100633179E+02  0.74466668219E+02  0.00000000000E+00 0.  1.
         11    1    1    2    0    0 -0.26443668973E+02 -0.12879629394E+02 -0.23414600451E+02  0.37595159215E+02  0.00000000000E+00 0. -1.
</event>
<event>
 7    1  0.6473813E-006  0.1272140E+03  0.7561462E-02  0.1231649E+00
          1   -1    0    0  501    0  0.00000000000E+00  0.00000000000E+00  0.55361340104E+03  0.55361340104E+03  0.00000000000E+00 0. -1.
         -1   -1    0    0    0  501 -0.00000000000E+00 -0.00000000000E+00 -0.32180242312E+02  0.32180242312E+02  0.00000000000E+00 0.  1.
         23    2    1    2    0    0 -0.67446692345E+02  0.30868540996E+02  0.26270626354E+03  0.30027234156E+03  0.12508786939E+03 0.  0.
          5    1    3    3  502    0 -0.72114388241E+01 -0.40277024541E+02  0.34355026562E+02  0.53590892937E+02  0.41800000000E+01 0. -1.
         -5    1    3    3    0  502 -0.60235253521E+02  0.71145565536E+02  0.22835123698E+03  0.24668144862E+03  0.41800000000E+01 0. -1.
        -11    1    1    2    0    0  0.85825270630E+02 -0.44900553050E+02  0.22063974885E+03  0.24096459390E+03  0.00000000000E+00 0.  1.
         11    1    1    2    0    0 -0.18378578285E+02  0.14032012055E+02  0.38087146333E+02  0.44556707888E+02  0.00000000000E+00 0. -1.
</event>
<event>
 7    1  0.6473813E-006  0.2087845E+03  0.7561462E-02  0.1142532E+00
          1   -1    0    0  501    0  0.00000000000E+00  0.00000000000E+00  0.15210035312E+03  0.15210035312E+03  0.00000000000E+00 0. -1.
         -1   -1    0    0    0  501 -0.00000000000E+00 -0.00000000000E+00 -0.31357943595E+03  0.31357943595E+03  0.00000000000E+00 0.  1.
         23    2    1    2    0    0  0.18140825699E+03  0.51157083245E+02 -0.99551152525E+02  0.24715208892E+03  0.12509084786E+03 0.  0.
          5    1    3    3  502    0  0.19156972647E+03  0.21508626388E+02 -0.95816326148E+02  0.21531331093E+03  0.41800000000E+01 0.  1.
         -5    1    3    3    0  502 -0.10161469476E+02  0.29648456857E+02 -0.37348263774E+01  0.31838777991E+02  0.41800000000E+01 0.  1.
        -11    1    1    2    0    0 -0.15157165147E+03 -0.25338899816E+02 -0.10950764913E+02  0.15406474167E+03  0.00000000000E+00 0. -1.
         11    1    1    2    0    0 -0.29836605524E+02 -0.25818183428E+02 -0.50977165392E+02  0.64462958481E+02  0.00000000000E+00 0.  1.
</event>
<event>
 7    1  0.6473813E-006  0.1185292E+03  0.7561462E-02  0.1245543E+00
         -1   -1    0    0    0  501 -0.00000000000E+00  0.00000000000E+00  0.11899466336E+03  0.11899466336E+03  0.00000000000E+00 0.  1.
          1   -1    0    0  501    0  0.00000000000E+00 -0.00000000000E+00 -0.13210814638E+03  0.13210814638E+03  0.00000000000E+00 0. -1.
         23    2    1    2    0    0 -0.63334429747E+02  0.50943655622E+01 -0.79640148133E+01  0.14053104606E+03  0.12509335244E+03 0.  0.
          5    1    3    3  502    0 -0.33610485107E+02  0.60661440781E+02 -0.27046512678E+02  0.74555089396E+02  0.41800000000E+01 0. -1.
         -5    1    3    3    0  502 -0.29723944640E+02 -0.55567075219E+02  0.19082497865E+02  0.65975956667E+02  0.41800000000E+01 0. -1.
        -11    1    1    2    0    0  0.36529319070E+02  0.38612898035E+02  0.15392158124E+02  0.55337740992E+02  0.00000000000E+00 0. -1.
         11    1    1    2    0    0  0.26805110677E+02 -0.43707263597E+02 -0.20541626328E+02  0.55234022683E+02  0.00000000000E+00 0.  1.
</event>
<event>
 7    1  0.6473813E-006  0.1039343E+03  0.7561462E-02  0.1272234E+00
          1   -1    0    0  501    0  0.00000000000E+00  0.00000000000E+00  0.78679065460E+02  0.78679065460E+02  0.00000000000E+00 0. -1.
         -1   -1    0    0    0  501 -0.00000000000E+00 -0.00000000000E+00 -0.18471172801E+03  0.18471172801E+03  0.00000000000E+00 0.  1.
         23    2    1    2    0    0  0.36717654282E+02  0.13824419429E+02 -0.96482990454E+02  0.16387935140E+03  0.12652341151E+03 0.  0.
          5    1    3    3  502    0  0.79391424359E+02  0.16246919252E+02 -0.33816249027E+02  0.87908883198E+02  0.41800000000E+01 0.  1.
         -5    1    3    3    0  502 -0.42673770078E+02 -0.24224998232E+01 -0.62666741427E+02  0.75970468204E+02  0.41800000000E+01 0.  1.
        -11    1    1    2    0    0  0.46132118866E+01 -0.36394564485E+02 -0.30748815226E+02  0.47867898281E+02  0.00000000000E+00 0.  1.
         11    1    1    2    0    0 -0.41330866168E+02  0.22570145057E+02  0.21199143126E+02  0.51643543792E+02  0.00000000000E+00 0. -1.
</event>
<event>
 7    1  0.6473813E-006  0.2078225E+03  0.7561462E-02  0.1143302E+00
          1   -1    0    0  501    0  0.00000000000E+00  0.00000000000E+00  0.11528836524E+04  0.11528836524E+04  0.00000000000E+00 0. -1.
         -1   -1    0    0    0  501 -0.00000000000E+00 -0.00000000000E+00 -0.15103943722E+03  0.15103943722E+03  0.00000000000E+00 0.  1.
         23    2    1    2    0    0  0.19286279182E+03  0.10865282665E+01 -0.45639119799E+02  0.23436687361E+03  0.12509062786E+03 0.  0.
          5    1    3    3  502    0  0.14142272242E+03  0.26923075761E+02 -0.82409076251E+02  0.16593362129E+03  0.41800000000E+01 0. -1.
         -5    1    3    3    0  502  0.51440069399E+02 -0.25836547495E+02  0.36769956452E+02  0.68433252324E+02  0.41800000000E+01 0. -1.
        -11    1    1    2    0    0 -0.77007369415E+02  0.45033380269E+02  0.51479063512E+03  0.52246295399E+03  0.00000000000E+00 0.  1.
         11    1    1    2    0    0 -0.11585542240E+03 -0.46119908535E+02  0.53269269990E+03  0.54709326206E+03  0.00000000000E+00 0. -1.
</event>
<event>
 6    1  0.6473813E-006  0.1146949E+03  0.7561462E-02  0.1252115E+00
         -2   -1    0    0    0  501 -0.00000000000E+00  0.00000000000E+00  0.62508825073E+02  0.62508825073E+02  0.00000000000E+00 0.  1.
          2   -1    0    0  501    0  0.00000000000E+00 -0.00000000000E+00 -0.21777718826E+03  0.21777718826E+03  0.00000000000E+00 0. -1.
          5    1    1    2  502    0  0.56058665397E+02 -0.10164500237E+02 -0.49061760387E+02  0.75302189632E+02  0.41800000000E+01 0. -1.
         -5    1    1    2    0  502 -0.71217254933E+02  0.29696760598E+02 -0.29708566051E+02  0.82788080586E+02  0.41800000000E+01 0.  1.
        -11    1    1    2    0    0  0.23286411820E+02 -0.54406901812E+02 -0.42918797383E+02  0.73105342548E+02  0.00000000000E+00 0. -1.
         11    1    1    2    0    0 -0.81278222838E+01  0.34874641451E+02 -0.33579239370E+02  0.49090400570E+02  0.00000000000E+00 0.  1.
</event>
<event>
 7    1  0.6473813E-006  0.9488826E+02  0.7561462E-02  0.1291428E+00
          1   -1    0    0  501    0  0.00000000000E+00  0.00000000000E+00  0.74738281941E+02  0.74738281941E+02  0.00000000000E+00 0. -1.
         -1   -1    0    0    0  501 -0.00000000000E+00 -0.00000000000E+00 -0.23929358994E+03  0.23929358994E+03  0.00000000000E+00 0.  1.
         23    2    1    2    0    0 -0.62751107168E+02  0.82328591600E+01 -0.13440849046E+03  0.19421299906E+03  0.12509022853E+03 0.  0.
          5    1    3    3  502    0 -0.48638750800E+02  0.39239646323E+02 -0.14528275238E+03  0.15820881285E+03  0.41800000000E+01 0.  1.
         -5    1    3    3    0  502 -0.14112356368E+02 -0.31006787163E+02  0.10874261916E+02  0.36004186210E+02  0.41800000000E+01 0.  1.
        -11    1    1    2    0    0  0.32579126294E+02  0.29882558989E+02  0.21270884824E+02  0.49059324731E+02  0.00000000000E+00 0. -1.
         11    1    1    2    0    0  0.30171980874E+02 -0.38115418149E+02 -0.51417702356E+02  0.70759548092E+02  0.00000000000E+00 0.  1.
</event>
<event>
 7    1  0.6473813E-006  0.8752315E+02  0.7561462E-02  0.1308963E+00
          2   -1    0    0  501    0  0.00000000000E+00  0.00000000000E+00  0.74931574726E+03  0.74931574726E+03  0.00000000000E+00 0.  1.
         -2   -1    0    0    0  501 -0.00000000000E+00 -0.00000000000E+00 -0.19028519474E+02  0.19028519474E+02  0.00000000000E+00 0. -1.
         23    2    1    2    0    0  0.16292380635E+02  0.27221092367E+02  0.30156741270E+03  0.32802746670E+03  0.12511069087E+03 0.  0.
          5    1    3    3  502    0  0.37803943998E+02 -0.42344746365E+01  0.28273875458E+03  0.28531691976E+03  0.41800000000E+01 0. -1.
         -5    1    3    3    0  502 -0.21511563363E+02  0.31455567004E+02  0.18828658121E+02  0.42710546946E+02  0.41800000000E+01 0. -1.
        -11    1    1    2    0    0 -0.26965974184E+01  0.34821564470E+02  0.19588982754E+03  0.19897898764E+03  0.00000000000E+00 0.  1.
         11    1    1    2    0    0 -0.13595783217E+02 -0.62042656837E+02  0.23282998754E+03  0.24133781239E+03  0.00000000000E+00 0. -1.
</event>
<event>
 7    1  0.6473813E-006  0.2879552E+03  0.7561462E-02  0.1091422E+00
         -1   -1    0    0    0  501 -0.00000000000E+00  0.00000000000E+00  0.49372806082E+03  0.49372806082E+03  0.00000000000E+00 0.  1.
          1   -1    0    0  501    0  0.00000000000E+00 -0.00000000000E+00 -0.18959869493E+03  0.18959869493E+03  0.00000000000E+00 0. -1.
         23    2    1    2    0    0  0.71099955949E+02 -0.26955647400E+03  0.22113806912E+03  0.37717930134E+03  0.12508510437E+03 0.  0.
          5    1    3    3  502    0  0.45465010697E+02 -0.22849932982E+03  0.11371903040E+03  0.25928459499E+03  0.41800000000E+01 0.  1.
         -5    1    3    3    0  502  0.25634945251E+02 -0.41057144182E+02  0.10741903871E+03  0.11789470635E+03  0.41800000000E+01 0.  1.
        -11    1    1    2    0    0 -0.84114901797E+02  0.13454963609E+03  0.52409302131E+02  0.16710971314E+03  0.00000000000E+00 0. -1.
         11    1    1    2    0    0  0.13014945849E+02  0.13500683791E+03  0.30581994642E+02  0.13903774126E+03  0.00000000000E+00 0.  1.
</event>
<event>
 7    1  0.6473813E-006  0.2977252E+03  0.7561462E-02  0.1086383E+00
         -1   -1    0    0    0  501 -0.00000000000E+00  0.00000000000E+00  0.11683249265E+03  0.11683249265E+03  0.00000000000E+00 0.  1.
          1   -1    0    0  501    0  0.00000000000E+00 -0.00000000000E+00 -0.93737062907E+03  0.93737062907E+03  0.00000000000E+00 0. -1.
         23    2    1    2    0    0  0.23097684987E+03  0.17461028011E+03 -0.23965798691E+03  0.39613478346E+03  0.12509101035E+03 0.  0.
          5    1    3    3  502    0  0.49897386631E+02  0.42760941766E+02  0.29437953162E+01  0.65911953879E+02  0.41800000000E+01 0. -1.
         -5    1    3    3    0  502  0.18107946324E+03  0.13184933835E+03 -0.24260178223E+03  0.33022282958E+03  0.41800000000E+01 0. -1.
        -11    1    1    2    0    0 -0.17602385726E+03 -0.17822659416E+03 -0.43260506008E+03  0.49989624443E+03  0.00000000000E+00 0. -1.
         11    1    1    2    0    0 -0.54952992616E+02  0.36163140455E+01 -0.14827508942E+03  0.15817209384E+03  0.00000000000E+00 0.  1.
</event>
<event>
 7    1  0.6473813E-006  0.1033399E+03  0.7561462E-02  0.1273425E+00
         -4   -1    0    0    0  501 -0.00000000000E+00  0.00000000000E+00  0.51266415306E+03  0.51266415306E+03  0.00000000000E+00 0.  1.
          4   -1    0    0  501    0  0.00000000000E+00 -0.00000000000E+00 -0.30494638761E+02  0.30494638761E+02  0.00000000000E+00 0. -1.
         23    2    1    2    0    0 -0.80617320143E+01  0.44988166132E+02  0.36458092977E+03  0.38814440263E+03  0.12509155180E+03 0.  0.
          5    1    3    3  502    0  0.22239699018E+02  0.78180670169E+02  0.17114965386E+03  0.18951648428E+03  0.41800000000E+01 0. -1.
         -5    1    3    3    0  502 -0.30301431033E+02 -0.33192504037E+02  0.19343127591E+03  0.19862791835E+03  0.41800000000E+01 0. -1.
        -11    1    1    2    0    0 -0.10390495185E+02 -0.57127831452E+02  0.11948405475E+03  0.13284574083E+03  0.00000000000E+00 0.  1.
         11    1    1    2    0    0  0.18452227200E+02  0.12139665321E+02 -0.18954702184E+01  0.22168648359E+02  0.00000000000E+00 0. -1.
</event>
<event>
 7    1  0.6473813E-006  0.1100010E+03  0.7561462E-02  0.1260568E+00
         -1   -1    0    0    0  501 -0.00000000000E+00  0.00000000000E+00  0.80767693929E+02  0.80767693929E+02  0.00000000000E+00 0.  1.
          1   -1    0    0  501    0  0.00000000000E+00 -0.00000000000E+00 -0.25603652392E+03  0.25603652392E+03  0.00000000000E+00 0. -1.
         23    2    1    2    0    0 -0.60754684761E+01  0.82268385987E+02 -0.43893624656E+02  0.15613961083E+03  0.12509168292E+03 0.  0.
          5    1    3    3  502    0 -0.49768229616E+02  0.87939701689E+01  0.14244476294E+02  0.52674358993E+02  0.41800000000E+01 0. -1.
         -5    1    3    3    0  502  0.43692761139E+02  0.73474415818E+02 -0.58138100950E+02  0.10346525184E+03  0.41800000000E+01 0. -1.
        -11    1    1    2    0    0  0.85504461323E+01 -0.25772498757E+02  0.95756334619E+01  0.28792786899E+02  0.00000000000E+00 0.  1.
         11    1    1    2    0    0 -0.24749776562E+01 -0.56495887231E+02 -0.14095083880E+03  0.15187182012E+03  0.00000000000E+00 0. -1.
</event>
<event>
 7    1  0.6473813E-006  0.1399259E+03  0.7561462E-02  0.1213429E+00
          2   -1    0    0  501    0  0.00000000000E+00  0.00000000000E+00  0.10947758507E+03  0.10947758507E+03  0.00000000000E+00 0. -1.
         -2   -1    0    0    0  501 -0.00000000000E+00 -0.00000000000E+00 -0.22119222590E+03  0.22119222590E+03  0.00000000000E+00 0.  1.
         23    2    1    2    0    0 -0.10316859080E+03  0.41938783399E+02 -0.54517391884E+02  0.17612731575E+03  0.12508423423E+03 0.  0.
          5    1    3    3  502    0 -0.93667656651E+01 -0.39569479915E+02 -0.13508264805E+01  0.40899598677E+02  0.41800000000E+01 0. -1.
         -5    1    3    3    0  502 -0.93801825134E+02  0.81508263314E+02 -0.53166565403E+02  0.13522771707E+03  0.41800000000E+01 0. -1.
        -11    1    1    2    0    0  0.81140196488E+01 -0.12910645696E+02 -0.52908267414E+02  0.55061845664E+02  0.00000000000E+00 0.  1.
         11    1    1    2    0    0  0.95054571150E+02 -0.29028137704E+02 -0.42889815356E+01  0.99480649564E+02  0.00000000000E+00 0. -1.
</event>
<event>
 6    1  0.6473813E-006  0.1081160E+03  0.7561462E-02  0.1264099E+00
         -1   -1    0    0    0  501 -0.00000000000E+00  0.00000000000E+00  0.16033400890E+04  0.16033400890E+04  0.00000000000E+00 0.  1.
          1   -1    0    0  501    0  0.00000000000E+00 -0.00000000000E+00 -0.29808520317E+02  0.29808520317E+02  0.00000000000E+00 0. -1.
          5    1    1    2  502    0  0.40457075066E+02 -0.34822756215E+02  0.41885160668E+03  0.42226003847E+03  0.41800000000E+01 0. -1.
         -5    1    1    2    0  502 -0.13837054228E+02  0.81864835387E+02  0.10707543574E+04  0.10739765741E+04  0.41800000000E+01 0.  1.
        -11    1    1    2    0    0 -0.16318069309E+02  0.11597810284E+02  0.73865145656E+02  0.76530048557E+02  0.00000000000E+00 0.  1.
         11    1    1    2    0    0 -0.10301951529E+02 -0.58639889456E+02  0.10060458982E+02  0.60381948260E+02  0.00000000000E+00 0. -1.
</event>
<event>
 7    1  0.6473813E-006  0.2031734E+03  0.7561462E-02  0.1147089E+00
         -1   -1    0    0    0  501 -0.00000000000E+00  0.00000000000E+00  0.59014287212E+02  0.59014287212E+02  0.00000000000E+00 0.  1.
          1   -1    0    0  501    0  0.00000000000E+00 -0.00000000000E+00 -0.95875979770E+03  0.95875979770E+03  0.00000000000E+00 0. -1.
         23    2    1    2    0    0  0.17939343163E+03  0.48026960406E+02 -0.24836240081E+03  0.33440289373E+03  0.12511123436E+03 0.  0.
          5    1    3    3  502    0  0.18897578185E+02 -0.32905319261E+02 -0.18067599130E+02  0.42234926723E+02  0.41800000000E+01 0. -1.
         -5    1    3    3    0  502  0.16049585344E+03  0.80932279668E+02 -0.23029480168E+03  0.29216796701E+03  0.41800000000E+01 0. -1.
        -11    1    1    2    0    0 -0.99843249475E+02 -0.42873496826E+02 -0.22824731053E+03  0.25279170469E+03  0.00000000000E+00 0.  1.
         11    1    1    2    0    0 -0.79550182154E+02 -0.51534635800E+01 -0.42313579914E+03  0.43057948649E+03  0.00000000000E+00 0. -1.
</event>
<event>
 7    1  0.6473813E-006  0.1449067E+03  0.7561462E-02  0.1206875E+00
          1   -1    0    0  501    0  0.00000000000E+00  0.00000000000E+00  0.86989957507E+03  0.86989957507E+03  0.00000000000E+00 0. -1.
         -1   -1    0    0    0  501 -0.00000000000E+00 -0.00000000000E+00 -0.26597815454E+02  0.26597815454E+02  0.00000000000E+00 0.  1.
         23    2    1    2    0    0  0.50253013012E+02  0.86306090211E+02  0.34294655386E+03  0.37846374327E+03  0.12509340364E+03 0.  0.
          5    1    3    3  502    0 -0.16973172553E+02  0.88459885864E+02  0.16245830449E+03  0.18580477144E+03  0.41800000000E+01 0.  1.
         -5    1    3    3    0  502  0.67226185565E+02 -0.21537956528E+01  0.18048824937E+03  0.19265897182E+03  0.41800000000E+01 0.  1.
        -11    1    1    2    0    0  0.21102447616E+02 -0.11233356955E+01  0.52373867903E+02  0.56476519171E+02  0.00000000000E+00 0.  1.
         11    1    1    2    0    0 -0.71355460628E+02 -0.85182754516E+02  0.44798133785E+03  0.46155712809E+03  0.00000000000E+00 0. -1.
</event>
<event>
 7    1  0.6473813E-006  0.1080805E+03  0.7561462E-02  0.1264166E+00
         -1   -1    0    0    0  501 -0.00000000000E+00  0.00000000000E+00  0.21692117966E+03  0.21692117966E+03  0.00000000000E+00 0.  1.
          1   -1    0    0  501    0  0.00000000000E+00 -0.00000000000E+00 -0.74413857644E+02  0.74413857644E+02  0.00000000000E+00 0. -1.
         23    2    1    2    0    0  0.42164317961E+02 -0.27008332616E+02  0.13064863839E+03  0.18768079247E+03  0.12509090060E+03 0.  0.
          5    1    3    3  502    0  0.22189922017E+02  0.39080387381E+02  0.10433112565E+03  0.11367552725E+03  0.41800000000E+01 0.  1.
         -5    1    3    3    0  502  0.19974395944E+02 -0.66088719997E+02  0.26317512738E+02  0.74005265224E+02  0.41800000000E+01 0.  1.
        -11    1    1    2    0    0  0.22277716146E+02  0.29976489496E+02 -0.29549673557E+01  0.37464895452E+02  0.00000000000E+00 0. -1.
         11    1    1    2    0    0 -0.64442034107E+02 -0.29681568800E+01  0.14813650984E+02  0.66189349374E+02  0.00000000000E+00 0.  1.
</event>
<event>
 7    1  0.6473813E-006  0.1179837E+03  0.7561462E-02  0.1246461E+00
          2   -1    0    0  501    0  0.00000000000E+00  0.00000000000E+00  0.25119795670E+03  0.25119795670E+03  0.00000000000E+00 0. -1.
         -2   -1    0    0    0  501 -0.00000000000E+00 -0.00000000000E+00 -0.72639828349E+02  0.72639828349E+02  0.00000000000E+00 0.  1.
         23    2    1    2    0    0 -0.30368969861E+02 -0.46778200836E+02  0.29726939950E+02  0.14014772379E+03  0.12508884491E+03 0.  0.
          5    1    3    3  502    0 -0.76489814017E+02 -0.19854073513E+02  0.52372694181E+00  0.79136733401E+02  0.41800000000E+01 0. -1.
         -5    1    3    3    0  502  0.46120844156E+02 -0.26924127323E+02  0.29203213008E+02  0.61010990385E+02  0.41800000000E+01 0. -1.
        -11    1    1    2    0    0 -0.20899886570E+02  0.47603144998E+02  0.48905406062E+02  0.71376490628E+02  0.00000000000E+00 0.  1.
         11    1    1    2    0    0  0.51268856431E+02 -0.82494416189E+00  0.99925782338E+02  0.11231357063E+03  0.00000000000E+00 0. -1.
</event>
<event>
 7    1  0.6473813E-006  0.9447365E+02  0.7561462E-02  0.1292366E+00
         -1   -1    0    0    0  501 -0.00000000000E+00  0.00000000000E+00  0.40046754331E+02  0.40046754331E+02  0.00000000000E+00 0.  1.
          1   -1    0    0  501    0  0.00000000000E+00 -0.00000000000E+00 -0.47774680027E+03  0.47774680027E+03  0.00000000000E+00 0. -1.
         23    2    1    2    0    0 -0.37208668599E+02  0.46647334339E+02 -0.12693414369E+03  0.18792825492E+03  0.12507714956E+03 0.  0.
          5    1    3    3  502    0 -0.64976995016E+01  0.46733771187E+02  0.92489799474E+01  0.48262630453E+02  0.41800000000E+01 0. -1.
         -5    1    3    3    0  502 -0.30710969097E+02 -0.86436847606E-01 -0.13618312363E+03  0.13966562446E+03  0.41800000000E+01 0. -1.
        -11    1    1    2    0    0  0.66819730503E+02 -0.45711010453E+02 -0.22406868102E+03  0.23824597935E+03  0.00000000000E+00 0. -1.
         11    1    1    2    0    0 -0.29611061905E+02 -0.93632388635E+00 -0.86697221237E+02  0.91619320342E+02  0.00000000000E+00 0.  1.
</event>
<event>
 7    1  0.6473813E-006  0.1437018E+03  0.7561462E-02  0.1208433E+00
         -2   -1    0    0    0  501 -0.00000000000E+00  0.00000000000E+00  0.69005666178E+02  0.69005666178E+02  0.00000000000E+00 0.  1.
          2   -1    0    0  501    0  0.00000000000E+00 -0.00000000000E+00 -0.33407998459E+03  0.33407998459E+03  0.00000000000E+00 0. -1.
         23    2    1    2    0    0 -0.39261654818E+02 -0.95983409566E+02 -0.11604567732E+03  0.19967145773E+03  0.12509116418E+03 0.  0.
          5    1    3    3  502    0 -0.72824641944E+02 -0.28528394647E+02 -0.26760967765E+02  0.82770281932E+02  0.41800000000E+01 0. -1.
         -5    1    3    3    0  502  0.33562987126E+02 -0.67455014919E+02 -0.89284709552E+02  0.11690117580E+03  0.41800000000E+01 0. -1.
        -11    1    1    2    0    0 -0.21561457819E+02  0.58079237370E+02 -0.42907929299E+02  0.75360365402E+02  0.00000000000E+00 0. -1.
         11    1    1    2    0    0  0.60823112637E+02  0.37904172196E+02 -0.10612071179E+03  0.12805382764E+03  0.00000000000E+00 0.  1.
</event>
<event>
 7    1  0.6473813E-006  0.1537866E+03  0.7561462E-02  0.1195896E+00
         -1   -1    0    0    0  501 -0.00000000000E+00  0.00000000000E+00  0.23540144524E+03  0.23540144524E+03  0.00000000000E+00 0.  1.
          1   -1    0    0  501    0  0.00000000000E+00 -0.00000000000E+00 -0.17119196497E+03  0.17119196497E+03  0.00000000000E+00 0. -1.
         23    2    1    2    0    0  0.13320435616E+03  0.19964254823E+02  0.13588267255E+03  0.22859065146E+03  0.12509042035E+03 0.  0.
          5    1    3    3  502    0 -0.16868169513E+02  0.26403551805E+01 -0.85481724976E+01  0.19546106294E+02  0.41800000000E+01 0. -1.
         -5    1    3    3    0  502  0.15007252567E+03  0.17323899642E+02  0.14443084505E+03  0.20904454516E+03  0.41800000000E+01 0. -1.
        -11    1    1    2    0    0 -0.56071206056E+02  0.83765218275E+01  0.14920969414E+02  0.58624070097E+02  0.00000000000E+00 0.  1.
         11    1    1    2    0    0 -0.77133150100E+02 -0.28340776650E+02 -0.86594161694E+02  0.11937868865E+03  0.00000000000E+00 0. -1.
</event>
<event>
 7    1  0.6473813E-006  0.9298481E+02  0.7561462E-02  0.1295780E+00
         -3   -1    0    0    0  501 -0.00000000000E+00  0.00000000000E+00  0.11627750284E+03  0.11627750284E+03  0.00000000000E+00 0.  1.
          3   -1    0    0  501    0  0.00000000000E+00 -0.00000000000E+00 -0.11307029799E+03  0.11307029799E+03  0.00000000000E+00 0. -1.
         23    2    1    2    0    0  0.31238309263E+02  0.21014637157E+02  0.73434417090E+01  0.13083921527E+03  0.12509007625E+03 0.  0.
          5    1    3    3  502    0  0.42693923034E+02  0.44564984423E+02  0.50723574059E+02  0.79994763991E+02  0.41800000000E+01 0. -1.
         -5    1    3    3    0  502 -0.11455613771E+02 -0.23550347266E+02 -0.43380132350E+02  0.50844451280E+02  0.41800000000E+01 0. -1.
        -11    1    1    2    0    0 -0.10998056625E+01 -0.53366239676E+02 -0.86116344340E+01  0.54067784838E+02  0.00000000000E+00 0. -1.
         11    1    1    2    0    0 -0.30138503601E+02  0.32351602518E+02  0.44753975788E+01  0.44440800716E+02  0.00000000000E+00 0.  1.
</event>
<event>
 7    1  0.6473813E-006  0.9374780E+02  0.7561462E-02  0.1294022E+00
          1   -1    0    0  501    0  0.00000000000E+00  0.00000000000E+00  0.45888976296E+02  0.45888976296E+02  0.00000000000E+00 0. -1.
         -1   -1    0    0    0  501 -0.00000000000E+00 -0.00000000000E+00 -0.41276334964E+03  0.41276334964E+03  0.00000000000E+00 0.  1.
         23    2    1    2    0    0  0.24401998005E+02  0.50777629290E+02 -0.30430096950E+03  0.33379678977E+03  0.12508953464E+03 0.  0.
          5    1    3    3  502    0  0.35657414463E+02 -0.11081014274E+02 -0.24299155386E+03  0.24587925437E+03  0.41800000000E+01 0.  1.
         -5    1    3    3    0  502 -0.11255416458E+02  0.61858643564E+02 -0.61309415641E+02  0.87917535393E+02  0.41800000000E+01 0.  1.
        -11    1    1    2    0    0 -0.21735713549E+02  0.11489500409E+02 -0.57248338501E+02  0.62304270514E+02  0.00000000000E+00 0.  1.
         11    1    1    2    0    0 -0.26662844561E+01 -0.62267129699E+02 -0.53250653366E+01  0.62551265651E+02  0.00000000000E+00 0. -1.
</event>
<event>
 7    1  0.6473813E-006  0.1188847E+03  0.7561462E-02  0.1244948E+00
          4   -1    0    0  501    0  0.00000000000E+00  0.00000000000E+00  0.19593172251E+03  0.19593172251E+03  0.00000000000E+00 0. -1.
         -4   -1    0    0    0  501 -0.00000000000E+00 -0.00000000000E+00 -0.10584081913E+03  0.10584081913E+03  0.00000000000E+00 0.  1.
         23    2    1    2    0    0  0.63818173260E+02  0.69461128784E+02  0.36552895911E+02  0.16087477866E+03  0.12508785937E+03 0.  0.
          5    1    3    3  502    0  0.44465658579E+02  0.11397171911E+02  0.75320783681E+02  0.88305057470E+02  0.41800000000E+01 0. -1.
         -5    1    3    3    0  502  0.19352514681E+02  0.58063956873E+02 -0.38767887769E+02  0.72569721195E+02  0.41800000000E+01 0. -1.
        -11    1    1    2    0    0  0.20600494299E+02 -0.31803847365E+02  0.15644284772E+02  0.40995227998E+02  0.00000000000E+00 0.  1.
         11    1    1    2    0    0 -0.84418667559E+02 -0.37657281419E+02  0.37893722693E+02  0.99902534982E+02  0.00000000000E+00 0. -1.
</event>
<event>
 7    1  0.6473813E-006  0.1950381E+03  0.7561462E-02  0.1153994E+00
         -1   -1    0    0    0  501 -0.00000000000E+00  0.00000000000E+00  0.58299565751E+02  0.58299565751E+02  0.00000000000E+00 0.  1.
          1   -1    0    0  501    0  0.00000000000E+00 -0.00000000000E+00 -0.74990888923E+03  0.74990888923E+03  0.00000000000E+00 0. -1.
         23    2    1    2    0    0 -0.16462846517E+03  0.65850658950E+02 -0.33409895951E+03  0.39838072087E+03  0.12508494389E+03 0.  0.
          5    1    3    3  502    0 -0.78958820190E+02  0.93661112648E+02 -0.15272085113E+03  0.19582653057E+03  0.41800000000E+01 0. -1.
         -5    1    3    3    0  502 -0.85669644979E+02 -0.27810453699E+02 -0.18137810838E+03  0.20255419030E+03  0.41800000000E+01 0. -1.
        -11    1    1    2    0    0  0.11209536816E+03 -0.43345042240E+02 -0.31906347219E+03  0.34094818307E+03  0.00000000000E+00 0.  1.
         11    1    1    2    0    0  0.52533097007E+02 -0.22505616709E+02 -0.38446891780E+02  0.68879551045E+02  0.00000000000E+00 0. -1.
</event>
<event>
 7    1  0.6473813E-006  0.9357841E+02  0.7561462E-02  0.1294410E+00
          4   -1    0    0  501    0  0.00000000000E+00  0.00000000000E+00  0.28917439605E+02  0.28917439605E+02  0.00000000000E+00 0. -1.
         -4   -1    0    0    0  501 -0.00000000000E+00 -0.00000000000E+00 -0.51538539009E+03  0.51538539009E+03  0.00000000000E+00 0.  1.
         23    2    1    2    0    0 -0.49088573011E+02 -0.18702771146E+00 -0.33498215149E+03  0.36092918106E+03  0.12508840451E+03 0.  0.
          5    1    3    3  502    0 -0.75088670312E+02 -0.35042527224E+02 -0.27130332985E+03  0.28370628529E+03  0.41800000000E+01 0.  1.
         -5    1    3    3    0  502  0.26000097301E+02  0.34855499513E+02 -0.63678821637E+02  0.77222895769E+02  0.41800000000E+01 0.  1.
        -11    1    1    2    0    0  0.29295116204E+02 -0.17359488428E+02 -0.15313095459E+03  0.15687142801E+03  0.00000000000E+00 0.  1.
         11    1    1    2    0    0  0.19793456807E+02  0.17546516140E+02  0.16451555996E+01  0.26502220623E+02  0.00000000000E+00 0. -1.
</event>
<event>
 7    1  0.6473813E-006  0.9869408E+02  0.7561462E-02  0.1283066E+00
          2   -1    0    0  501    0  0.00000000000E+00  0.00000000000E+00  0.10569338397E+03  0.10569338397E+03  0.00000000000E+00 0. -1.
         -2   -1    0    0    0  501 -0.00000000000E+00 -0.00000000000E+00 -0.11580966219E+03  0.11580966219E+03  0.00000000000E+00 0.  1.
         23    2    1    2    0    0 -0.37552265992E+02 -0.24706193861E+02 -0.28844849294E+02  0.13601743450E+03  0.12509255958E+03 0.  0.
          5    1    3    3  502    0  0.21298731031E+00  0.41387955662E+02  0.19292131167E+02  0.45854846663E+02  0.41800000000E+01 0.  1.
         -5    1    3    3    0  502 -0.37765253302E+02 -0.66094149523E+02 -0.48136980462E+02  0.90162587840E+02  0.41800000000E+01 0.  1.
        -11    1    1    2    0    0 -0.84742396753E+01  0.31864422696E+02  0.20582477051E+02  0.38868914744E+02  0.00000000000E+00 0.  1.
         11    1    1    2    0    0  0.46026505667E+02 -0.71582288352E+01 -0.18539059713E+01  0.46616696916E+02  0.00000000000E+00 0. -1.
</event>
<event>
 7    1  0.6473813E-006  0.1377353E+03  0.7561462E-02  0.1216409E+00
          2   -1    0    0  501    0  0.00000000000E+00  0.00000000000E+00  0.20472092515E+03  0.20472092515E+03  0.00000000000E+00 0.  1.
         -2   -1    0    0    0  501 -0.00000000000E+00 -0.00000000000E+00 -0.13749960574E+03  0.13749960574E+03  0.00000000000E+00 0. -1.
         23    2    1    2    0    0  0.99609499718E+02 -0.39954049202E+02 -0.35457741071E+02  0.16859284585E+03  0.12509163757E+03 0.  0.
          5    1    3    3  502    0  0.70275134794E+02 -0.67429710044E+02 -0.66185681181E+02  0.11782774359E+03  0.41800000000E+01 0.  1.
         -5    1    3    3    0  502  0.29334364924E+02  0.27475660842E+02  0.30727940110E+02  0.50765102261E+02  0.41800000000E+01 0.  1.
        -11    1    1    2    0    0 -0.26897963733E+02 -0.27449652168E+02  0.43985393036E+02  0.58409747968E+02  0.00000000000E+00 0.  1.
         11    1    1    2    0    0 -0.72711535985E+02  0.67403701370E+02  0.58693667450E+02  0.11521793707E+03  0.00000000000E+00 0. -1.
</event>
<event>
 7    1  0.6473813E-006  0.1017498E+03  0.7561462E-02  0.1276659E+00
         -1   -1    0    0    0  501 -0.00000000000E+00  0.00000000000E+00  0.45726847938E+02  0.45726847938E+02  0.00000000000E+00 0.  1.
          1   -1    0    0  501    0  0.00000000000E+00 -0.00000000000E+00 -0.39092101289E+03  0.39092101289E+03  0.00000000000E+00 0. -1.
         23    2    1    2    0    0 -0.78770472969E+02 -0.55949071935E+01 -0.19383137039E+03  0.23899598890E+03  0.11537934030E+03 0.  0.
          5    1    3    3  502    0 -0.68331217193E+02 -0.15449891208E+02 -0.20730894977E+03  0.21886600338E+03  0.41800000000E+01 0. -1.
         -5    1    3    3    0  502 -0.10439255776E+02  0.98549840144E+01  0.13477579383E+02  0.20129985522E+02  0.41800000000E+01 0.  1.
        -11    1    1    2    0    0  0.34828613830E+02 -0.41351007892E+02 -0.10589654011E+03  0.11889918167E+03  0.00000000000E+00 0. -1.
         11    1    1    2    0    0  0.43941859139E+02  0.46945915086E+02 -0.45466254454E+02  0.78752690252E+02  0.00000000000E+00 0.  1.
</event>
<event>
 7    1  0.6473813E-006  0.1421120E+03  0.7561462E-02  0.1210515E+00
         -2   -1    0    0    0  501 -0.00000000000E+00  0.00000000000E+00  0.40950658696E+02  0.40950658696E+02  0.00000000000E+00 0.  1.
          2   -1    0    0  501    0  0.00000000000E+00 -0.00000000000E+00 -0.67041104203E+03  0.67041104203E+03  0.00000000000E+00 0. -1.
         23    2    1    2    0    0 -0.52294775092E+02 -0.10197206048E+03 -0.22690553426E+03  0.28329705658E+03  0.12505221376E+03 0.  0.
          5    1    3    3  502    0 -0.84494430419E+02 -0.10738032909E+03 -0.18236211675E+03  0.22791063572E+03  0.41800000000E+01 0.  1.
         -5    1    3    3    0  502  0.32199655327E+02  0.54082686039E+01 -0.44543417509E+02  0.55386420861E+02  0.41800000000E+01 0.  1.
        -11    1    1    2    0    0  0.24174268436E+02  0.48407582921E+02 -0.32615559843E+03  0.33061331451E+03  0.00000000000E+00 0. -1.
         11    1    1    2    0    0  0.28120506656E+02  0.53564477561E+02 -0.76399250636E+02  0.97451329641E+02  0.00000000000E+00 0.  1.
</event>
<event>
 7    1  0.6473813E-006  0.1603479E+03  0.7561462E-02  0.1188304E+00
         -2   -1    0    0    0  501 -0.00000000000E+00  0.00000000000E+00  0.14293260658E+03  0.14293260658E+03  0.00000000000E+00 0.  1.
          2   -1    0    0  501    0  0.00000000000E+00 -0.00000000000E+00 -0.25896347165E+03  0.25896347165E+03  0.00000000000E+00 0. -1.
         23    2    1    2    0    0 -0.12190308237E+03  0.64293901273E+02  0.21398185467E+02  0.18734781365E+03  0.12508898315E+03 0.  0.
          5    1    3    3  502    0 -0.11424165625E+03  0.21600253218E+02 -0.29818618324E+02  0.12010141282E+03  0.41800000000E+01 0.  1.
         -5    1    3    3    0  502 -0.76614261193E+01  0.42693648055E+02  0.51216803791E+02  0.67246400833E+02  0.41800000000E+01 0.  1.
        -11    1    1    2    0    0  0.10594860141E+02 -0.46945695546E+02 -0.64007509625E+02  0.80081899829E+02  0.00000000000E+00 0.  1.
         11    1    1    2    0    0  0.11130822223E+03 -0.17348205726E+02 -0.73421540906E+02  0.13446636474E+03  0.00000000000E+00 0. -1.
</event>
<event>
 6    1  0.6473813E-006  0.1047913E+03  0.7561462E-02  0.1270531E+00
          2   -1    0    0  501    0  0.00000000000E+00  0.00000000000E+00  0.29364268711E+03  0.29364268711E+03  0.00000000000E+00 0. -1.
         -2   -1    0    0    0  501 -0.00000000000E+00 -0.00000000000E+00 -0.67130092711E+02  0.67130092711E+02  0.00000000000E+00 0.  1.
          5    1    1    2  502    0 -0.58494910932E+02  0.45080306497E+02  0.10357850944E+03  0.12727870465E+03  0.41800000000E+01 0. -1.
         -5    1    1    2    0  502  0.50960054996E+02 -0.15575086229E+02 -0.23785667592E+02  0.58504195568E+02  0.41800000000E+01 0.  1.
        -11    1    1    2    0    0 -0.34569316578E+02 -0.12669121733E+02  0.23467626903E+02  0.43660895623E+02  0.00000000000E+00 0. -1.
         11    1    1    2    0    0  0.42104172514E+02 -0.16836098534E+02  0.12325212565E+03  0.13132898399E+03  0.00000000000E+00 0.  1.
</event>
<event>
 7    1  0.6473813E-006  0.1191729E+03  0.7561462E-02  0.1244468E+00
          1   -1    0    0  501    0  0.00000000000E+00  0.00000000000E+00  0.45896438617E+02  0.45896438617E+02  0.00000000000E+00 0. -1.
         -1   -1    0    0    0  501 -0.00000000000E+00 -0.00000000000E+00 -0.36843413540E+03  0.36843413540E+03  0.00000000000E+00 0.  1.
         23    2    1    2    0    0  0.55771064570E+02 -0.40549124033E+02 -0.21221727789E+03  0.25581131910E+03  0.12509442371E+03 0.  0.
          5    1    3    3  502    0  0.86035408759E+02  0.57475065392E+01 -0.11380252070E+03  0.14284121082E+03  0.41800000000E+01 0. -1.
         -5    1    3    3    0  502 -0.30264344189E+02 -0.46296630572E+02 -0.98414757192E+02  0.11297010828E+03  0.41800000000E+01 0. -1.
        -11    1    1    2    0    0 -0.56749455194E+02  0.56786393391E+02 -0.46752672012E+02  0.92903215657E+02  0.00000000000E+00 0. -1.
         11    1    1    2    0    0  0.97839062392E+00 -0.16237269358E+02 -0.63567746886E+02  0.65616039264E+02  0.00000000000E+00 0.  1.
</event>
<event>
 7    1  0.6473813E-006  0.1447914E+03  0.7561462E-02  0.1207023E+00
          2   -1    0    0  501    0  0.00000000000E+00  0.00000000000E+00  0.15058723538E+03  0.15058723538E+03  0.00000000000E+00 0. -1.
         -2   -1    0    0    0  501 -0.00000000000E+00 -0.00000000000E+00 -0.16598090101E+03  0.16598090101E+03  0.00000000000E+00 0.  1.
         23    2    1    2    0    0  0.87156364190E+02 -0.66630809518E+02 -0.41663798291E+02  0.17151970769E+03  0.12508893413E+03 0.  0.
          5    1    3    3  502    0  0.72319994155E+02 -0.99986233517E+02 -0.11545628801E+02  0.12400888029E+03  0.41800000000E+01 0.  1.
         -5    1    3    3    0  502  0.14836370035E+02  0.33355423999E+02 -0.30118169490E+02  0.47510827392E+02  0.41800000000E+01 0.  1.
        -11    1    1    2    0    0 -0.89045867824E+02  0.31902485705E+02  0.45872735539E+02  0.10512489256E+03  0.00000000000E+00 0. -1.
         11    1    1    2    0    0  0.18895036349E+01  0.34728323813E+02 -0.19602602870E+02  0.39923536142E+02  0.00000000000E+00 0.  1.
</event>
<event>
 7    1  0.6473813E-006  0.1115732E+03  0.7561462E-02  0.1257684E+00
         -2   -1    0    0    0  501 -0.00000000000E+00  0.00000000000E+00  0.12480325413E+02  0.12480325413E+02  0.00000000000E+00 0.  1.
          2   -1    0    0  501    0  0.00000000000E+00 -0.00000000000E+00 -0.10613716640E+04  0.10613716640E+04  0.00000000000E+00 0. -1.
         23    2    1    2    0    0  0.33869272271E+02  0.14688265859E+02 -0.62629147011E+03  0.63972750326E+03  0.12508956844E+03 0.  0.
          5    1    3    3  502    0  0.80269062926E+02  0.75285009543E+01 -0.33129842067E+03  0.34099254644E+03  0.41800000000E+01 0. -1.
         -5    1    3    3    0  502 -0.46399790655E+02  0.71597649052E+01 -0.29499304944E+03  0.29873495681E+03  0.41800000000E+01 0. -1.
        -11    1    1    2    0    0  0.13811070998E+02 -0.39277323312E+02 -0.12567317634E+03  0.13239033598E+03  0.00000000000E+00 0.  1.
         11    1    1    2    0    0 -0.47680343269E+02  0.24589057453E+02 -0.29692669214E+03  0.30173415018E+03  0.00000000000E+00 0. -1.
</event>
<event>
 7    1  0.6473813E-006  0.1168522E+03  0.7561462E-02  0.1248382E+00
          2   -1    0    0  501    0  0.00000000000E+00  0.00000000000E+00  0.59841700830E+03  0.59841700830E+03  0.00000000000E+00 0. -1.
         -2   -1    0    0    0  501 -0.00000000000E+00 -0.00000000000E+00 -0.25420311789E+02  0.25420311789E+02  0.00000000000E+00 0.  1.
         23    2    1    2    0    0 -0.48347103243E+01  0.46223624487E+02  0.23062572073E+03  0.26644997336E+03  0.12508943744E+03 0.  0.
          5    1    3    3  502    0 -0.55359437581E+02  0.57015131266E+02  0.16157735940E+03  0.18011137663E+03  0.41800000000E+01 0.  1.
         -5    1    3    3    0  502  0.50524727256E+02 -0.10791506779E+02  0.69048361327E+02  0.86338596727E+02  0.41800000000E+01 0.  1.
        -11    1    1    2    0    0  0.13486913347E+02  0.26139300341E+02  0.10924780978E+03  0.11313816242E+03  0.00000000000E+00 0.  1.
         11    1    1    2    0    0 -0.86522030229E+01 -0.72362924828E+02  0.23312316600E+03  0.24424918430E+03  0.00000000000E+00 0. -1.
</event>
<event>
 7    1  0.6473813E-006  0.7792475E+02  0.7561462E-02  0.1335046E+00
          2   -1    0    0  501    0  0.00000000000E+00  0.00000000000E+00  0.49348362610E+03  0.49348362610E+03  0.00000000000E+00 0. -1.
         -2   -1    0    0    0  501 -0.00000000000E+00 -0.00000000000E+00 -0.31200458135E+02  0.31200458135E+02  0.00000000000E+00 0.  1.
         23    2    1    2    0    0 -0.24051299747E+02 -0.53139307123E+02  0.22468317319E+03  0.26369281334E+03  0.12509644483E+03 0.  0.
          5    1    3    3  502    0 -0.14459494418E+02 -0.63500096118E+02  0.23616803872E+03  0.24501868112E+03  0.41800000000E+01 0.  1.
         -5    1    3    3    0  502 -0.95918053284E+01  0.10360788994E+02 -0.11484865525E+02  0.18674132220E+02  0.41800000000E+01 0.  1.
        -11    1    1    2    0    0 -0.13624623709E+02  0.26258547725E+02  0.14139536998E+02  0.32788232742E+02  0.00000000000E+00 0.  1.
         11    1    1    2    0    0  0.37675923456E+02  0.26880759399E+02  0.22346045778E+03  0.22820303816E+03  0.00000000000E+00 0. -1.
</event>
<event>
 7    1  0.6473813E-006  0.1244656E+03  0.7561462E-02  0.1235907E+00
         -2   -1    0    0    0  501 -0.00000000000E+00  0.00000000000E+00  0.17703585006E+02  0.17703585006E+02  0.00000000000E+00 0.  1.
          2   -1    0    0  501    0  0.00000000000E+00 -0.00000000000E+00 -0.11867924898E+04  0.11867924898E+04  0.00000000000E+00 0. -1.
         23    2    1    2    0    0 -0.91479083003E+02 -0.39910359166E+01 -0.77769622368E+03  0.79299630845E+03  0.12508947957E+03 0.  0.
          5    1    3    3  502    0 -0.45156824875E+02 -0.63406711661E+02 -0.33803960934E+03  0.34691180407E+03  0.41800000000E+01 0.  1.
         -5    1    3    3    0  502 -0.46322258128E+02  0.59415675744E+02 -0.43965661434E+03  0.44608450439E+03  0.41800000000E+01 0.  1.
        -11    1    1    2    0    0  0.33188838734E+02 -0.11640991513E+02 -0.33559975072E+02  0.48613615652E+02  0.00000000000E+00 0.  1.
         11    1    1    2    0    0  0.58290244269E+02  0.15632027430E+02 -0.35783270607E+03  0.36288615073E+03  0.00000000000E+00 0. -1.
</event>
<event>
 7    1  0.6473813E-006  0.1223735E+03  0.7561462E-02  0.1239232E+00
          1   -1    0    0  501    0  0.00000000000E+00  0.00000000000E+00  0.42266706744E+03  0.42266706744E+03  0.00000000000E+00 0. -1.
         -1   -1    0    0    0  501 -0.00000000000E+00 -0.00000000000E+00 -0.73161024548E+02  0.73161024548E+02  0.00000000000E+00 0.  1.
         23    2    1    2    0    0 -0.19998892038E+02  0.85490297305E+02  0.35474602288E+02  0.15689292974E+03  0.12509355450E+03 0.  0.
          5    1    3    3  502    0 -0.51392608175E+02  0.49600330181E+02 -0.28482936871E+02  0.77007421862E+02  0.41800000000E+01 0. -1.
         -5    1    3    3    0  502  0.31393716137E+02  0.35889967124E+02  0.63957539159E+02  0.79885507874E+02  0.41800000000E+01 0. -1.
        -11    1    1    2    0    0  0.53838671501E+02 -0.33852935699E+02  0.12803459949E+03  0.14295972325E+03  0.00000000000E+00 0. -1.
         11    1    1    2    0    0 -0.33839779464E+02 -0.51637361606E+02  0.18599684111E+03  0.19597543900E+03  0.00000000000E+00 0.  1.
</event>
<event>
 7    1  0.6473813E-006  0.2561611E+03  0.7561462E-02  0.1109472E+00
          2   -1    0    0  501    0  0.00000000000E+00  0.00000000000E+00  0.11516273740E+04  0.11516273740E+04  0.00000000000E+00 0.  1.
         -2   -1    0    0    0  501 -0.00000000000E+00 -0.00000000000E+00 -0.65280022507E+02  0.65280022507E+02  0.00000000000E+00 0. -1.
         23    2    1    2    0    0  0.10144185843E+03 -0.22968960862E+03  0.59109913744E+03  0.65428885503E+03  0.12509176066E+03 0.  0.
          5    1    3    3  502    0  0.19104926969E+02 -0.34503523507E+02  0.24716691050E+03  0.25032867477E+03  0.41800000000E+01 0. -1.
         -5    1    3    3    0  502  0.82336931466E+02 -0.19518608511E+03  0.34393222695E+03  0.40396018026E+03  0.41800000000E+01 0. -1.
        -11    1    1    2    0    0 -0.55540470863E+02  0.19633124174E+03  0.43128772788E+03  0.47711613324E+03  0.00000000000E+00 0.  1.
         11    1    1    2    0    0 -0.45901387571E+02  0.33358366884E+02  0.63960486194E+02  0.85502408249E+02  0.00000000000E+00 0. -1.
</event>
<event>
 7    1  0.6473813E-006  0.8323327E+02  0.7561462E-02  0.1320118E+00
         -2   -1    0    0    0  501 -0.00000000000E+00  0.00000000000E+00  0.25447376002E+03  0.25447376002E+03  0.00000000000E+00 0.  1.
          2   -1    0    0  501    0  0.00000000000E+00 -0.00000000000E+00 -0.11026905534E+03  0.11026905534E+03  0.00000000000E+00 0. -1.
         23    2    1    2    0    0  0.33261278288E+02 -0.58148045499E+02  0.19986966034E+03  0.23981326001E+03  0.11434601314E+03 0.  0.
          5    1    3    3  502    0  0.90961126189E+01 -0.20239964678E+02 -0.10321723179E+02  0.24827521107E+02  0.41800000000E+01 0. -1.
         -5    1    3    3    0  502  0.24165165669E+02 -0.37908080821E+02  0.21019138352E+03  0.21498573890E+03  0.41800000000E+01 0.  1.
        -11    1    1    2    0    0 -0.30765712902E+02  0.75332334533E+02 -0.65954925022E+02  0.10474512805E+03  0.00000000000E+00 0. -1.
         11    1    1    2    0    0 -0.24955653859E+01 -0.17184289034E+02  0.10289969357E+02  0.20184427303E+02  0.00000000000E+00 0.  1.
</event>
<event>
 7    1  0.6473813E-006  0.1155449E+03  0.7561462E-02  0.1250633E+00
         -2   -1    0    0    0  501 -0.00000000000E+00  0.00000000000E+00  0.60290462660E+03  0.60290462660E+03  0.00000000000E+00 0.  1.
          2   -1    0    0  501    0  0.00000000000E+00 -0.00000000000E+00 -0.24230003581E+02  0.24230003581E+02  0.00000000000E+00 0. -1.
         23    2    1    2    0    0 -0.22222764281E+02  0.36933897363E+02  0.40392208527E+03  0.42504029092E+03  0.12509290112E+03 0.  0.
          5    1    3    3  502    0  0.41854650061E+02 -0.17966876974E+02  0.17971236456E+03  0.18544170721E+03  0.41800000000E+01 0.  1.
         -5    1    3    3    0  502 -0.64077414342E+02  0.54900774337E+02  0.22420972072E+03  0.23959858371E+03  0.41800000000E+01 0.  1.
        -11    1    1    2    0    0  0.85253411815E+01  0.30698985308E+02  0.66149002495E+02  0.73422065295E+02  0.00000000000E+00 0. -1.
         11    1    1    2    0    0  0.13697423099E+02 -0.67632882671E+02  0.10860353525E+03  0.12867227396E+03  0.00000000000E+00 0.  1.
</event>
<event>
 7    1  0.6473813E-006  0.1560466E+03  0.7561462E-02  0.1193234E+00
         -1   -1    0    0    0  501 -0.00000000000E+00  0.00000000000E+00  0.40146181878E+03  0.40146181878E+03  0.00000000000E+00 0.  1.
          1   -1    0    0  501    0  0.00000000000E+00 -0.00000000000E+00 -0.11858034458E+03  0.11858034458E+03  0.00000000000E+00 0. -1.
         23    2    1    2    0    0  0.12713767687E+03 -0.35447180358E+02  0.30744320456E+03  0.35719716446E+03  0.12509196134E+03 0.  0.
          5    1    3    3  502    0  0.10297238968E+03 -0.77965170431E+02  0.18868132249E+03  0.22869192091E+03  0.41800000000E+01 0.  1.
         -5    1    3    3    0  502  0.24165287198E+02  0.42517990073E+02  0.11876188207E+03  0.12850524354E+03  0.41800000000E+01 0.  1.
        -11    1    1    2    0    0 -0.21712375600E+02 -0.22330965735E+01  0.30957320580E+02  0.37878353608E+02  0.00000000000E+00 0.  1.
         11    1    1    2    0    0 -0.10542530127E+03  0.37680276932E+02 -0.55519050935E+02  0.12496664529E+03  0.00000000000E+00 0. -1.
</event>
<event>
 7    1  0.6473813E-006  0.1033403E+03  0.7561462E-02  0.1273425E+00
          2   -1    0    0  501    0  0.00000000000E+00  0.00000000000E+00  0.55449503683E+03  0.55449503683E+03  0.00000000000E+00 0. -1.
         -2   -1    0    0    0  501 -0.00000000000E+00 -0.00000000000E+00 -0.23514193056E+02  0.23514193056E+02  0.00000000000E+00 0.  1.
         23    2    1    2    0    0 -0.84063195534E+01 -0.32117865747E+02  0.26547331171E+03  0.29533879334E+03  0.12508677033E+03 0.  0.
          5    1    3    3  502    0  0.50008416674E+02 -0.21771815439E+02  0.58936983922E+02  0.80410783851E+02  0.41800000000E+01 0.  1.
         -5    1    3    3    0  502 -0.58414736227E+02 -0.10346050308E+02  0.20653632779E+03  0.21492800948E+03  0.41800000000E+01 0.  1.
        -11    1    1    2    0    0 -0.31313887086E+02  0.41212480705E+02  0.10490204302E+03  0.11697635111E+03  0.00000000000E+00 0. -1.
         11    1    1    2    0    0  0.39720206639E+02 -0.90946149582E+01  0.16060548905E+03  0.16569408544E+03  0.00000000000E+00 0.  1.
</event>
<event>
 7    1  0.6473813E-006  0.8695431E+02  0.7561462E-02  0.1310400E+00
         -1   -1    0    0    0  501 -0.00000000000E+00  0.00000000000E+00  0.14202954636E+03  0.14202954636E+03  0.00000000000E+00 0.  1.
          1   -1    0    0  501    0  0.00000000000E+00 -0.00000000000E+00 -0.95928087868E+02  0.95928087868E+02  0.00000000000E+00 0. -1.
         23    2    1    2    0    0 -0.33364908733E+02 -0.21632699971E+02  0.31258088985E+02  0.13492785025E+03  0.12508903151E+03 0.  0.
          5    1    3    3  502    0 -0.30057409833E+02  0.42238154772E+02 -0.16979444689E+02  0.54710908842E+02  0.41800000000E+01 0.  1.
         -5    1    3    3    0  502 -0.33074988996E+01 -0.63870854743E+02  0.48237533674E+02  0.80216941412E+02  0.41800000000E+01 0.  1.
        -11    1    1    2    0    0  0.34469360222E+02 -0.16390832897E+01 -0.34292830714E+02  0.48649991023E+02  0.00000000000E+00 0. -1.
         11    1    1    2    0    0 -0.11044514895E+01  0.23271783261E+02  0.49136200218E+02  0.54379792948E+02  0.00000000000E+00 0.  1.
</event>
<event>
 7    1  0.6473813E-006  0.1285324E+03  0.7561462E-02  0.1229650E+00
         -1   -1    0    0    0  501 -0.00000000000E+00  0.00000000000E+00  0.42155963665E+03  0.42155963665E+03  0.00000000000E+00 0.  1.
          1   -1    0    0  501    0  0.00000000000E+00 -0.00000000000E+00 -0.46622911477E+02  0.46622911477E+02  0.00000000000E+00 0. -1.
         23    2    1    2    0    0  0.63169112042E+02 -0.37471568982E+02  0.28926715066E+03  0.32360621833E+03  0.12510413620E+03 0.  0.
          5    1    3    3  502    0  0.74707184834E+02  0.23525580158E+02  0.12093824693E+03  0.14414627417E+03  0.41800000000E+01 0. -1.
         -5    1    3    3    0  502 -0.11538072792E+02 -0.60997149140E+02  0.16832890373E+03  0.17945994416E+03  0.41800000000E+01 0. -1.
        -11    1    1    2    0    0  0.15241716628E+02  0.34757246242E+02  0.25949773186E+02  0.45975719902E+02  0.00000000000E+00 0.  1.
         11    1    1    2    0    0 -0.78410828670E+02  0.27143227400E+01  0.59719801329E+02  0.98600609893E+02  0.00000000000E+00 0. -1.
</event>
<event>
 7    1  0.6473813E-006  0.2331038E+03  0.7561462E-02  0.1124474E+00
          2   -1    0    0  501    0  0.00000000000E+00  0.00000000000E+00  0.17701046649E+04  0.17701046649E+04  0.00000000000E+00 0. -1.
         -2   -1    0    0    0  501 -0.00000000000E+00 -0.00000000000E+00 -0.32946747993E+02  0.32946747993E+02  0.00000000000E+00 0.  1.
         23    2    1    2    0    0  0.20646070437E+03 -0.45698632918E+02  0.67564039307E+03  0.71674055863E+03  0.11186018123E+03 0.  0.
          5    1    3    3  502    0 -0.45529316516E+01  0.17133891322E+02  0.69190068743E+02  0.71547448809E+02  0.41800000000E+01 0. -1.
         -5    1    3    3    0  502  0.21101363602E+03 -0.62832524240E+02  0.60645032432E+03  0.64519310982E+03  0.41800000000E+01 0.  1.
        -11    1    1    2    0    0 -0.69075756980E+02  0.57523137193E+02  0.50688085957E+03  0.51478983800E+03  0.00000000000E+00 0.  1.
         11    1    1    2    0    0 -0.13738494739E+03 -0.11824504274E+02  0.55463666430E+03  0.57152101628E+03  0.00000000000E+00 0. -1.
</event>
<event>
 7    1  0.6473813E-006  0.1021798E+03  0.7561462E-02  0.1275778E+00
          3   -1    0    0  501    0  0.00000000000E+00  0.00000000000E+00  0.58906006572E+02  0.58906006572E+02  0.00000000000E+00 0. -1.
         -3   -1    0    0    0  501 -0.00000000000E+00 -0.00000000000E+00 -0.26816555596E+03  0.26816555596E+03  0.00000000000E+00 0.  1.
         23    2    1    2    0    0  0.35069735985E+02 -0.21545977527E+02 -0.17453963081E+03  0.21864564203E+03  0.12509084110E+03 0.  0.
          5    1    3    3  502    0 -0.43902733128E+02 -0.73509206757E+01 -0.97819699219E+02  0.10755301933E+03  0.41800000000E+01 0. -1.
         -5    1    3    3    0  502  0.78972469113E+02 -0.14195056851E+02 -0.76719931589E+02  0.11109262271E+03  0.41800000000E+01 0. -1.
        -11    1    1    2    0    0 -0.55291241968E+02  0.20779168568E+02  0.94716620705E+01  0.59821464936E+02  0.00000000000E+00 0. -1.
         11    1    1    2    0    0  0.20221505983E+02  0.76680895907E+00 -0.44191580655E+02  0.48604455567E+02  0.00000000000E+00 0.  1.
</event>
<event>
 7    1  0.6473813E-006  0.9663671E+02  0.7561462E-02  0.1287532E+00
         -2   -1    0    0    0  501 -0.00000000000E+00  0.00000000000E+00  0.99491614950E+02  0.99491614950E+02  0.00000000000E+00 0. -1.
          2   -1    0    0  501    0  0.00000000000E+00 -0.00000000000E+00 -0.19423874550E+03  0.19423874550E+03  0.00000000000E+00 0.  1.
         23    2    1    2    0    0 -0.59560073922E+02 -0.25853311758E+01  0.16967916029E+02  0.13960565544E+03  0.12509093698E+03 0.  0.
          5    1    3    3  502    0  0.14242064577E+02 -0.75223668230E+01  0.54195865030E+02  0.56692914834E+02  0.41800000000E+01 0. -1.
         -5    1    3    3    0  502 -0.73802138498E+02  0.49370356472E+01 -0.37227949000E+02  0.82912740605E+02  0.41800000000E+01 0. -1.
        -11    1    1    2    0    0 -0.13224384808E+02  0.23371709497E+02 -0.13299947953E+02  0.29966811206E+02  0.00000000000E+00 0. -1.
         11    1    1    2    0    0  0.72784458729E+02 -0.20786378321E+02 -0.98415098629E+02  0.12415789381E+03  0.00000000000E+00 0.  1.
</event>
<event>
 7    1  0.6473813E-006  0.1056094E+03  0.7561462E-02  0.1268924E+00
         -2   -1    0    0    0  501 -0.00000000000E+00  0.00000000000E+00  0.18263838064E+03  0.18263838064E+03  0.00000000000E+00 0.  1.
          2   -1    0    0  501    0  0.00000000000E+00 -0.00000000000E+00 -0.83779448594E+02  0.83779448594E+02  0.00000000000E+00 0. -1.
         23    2    1    2    0    0  0.17497366934E+02  0.49330455148E+02  0.88032633360E+02  0.16167194766E+03  0.12509365480E+03 0.  0.
          5    1    3    3  502    0 -0.16956667989E+02  0.66290996741E+02  0.99991080858E+02  0.12123412675E+03  0.41800000000E+01 0. -1.
         -5    1    3    3    0  502  0.34454034923E+02 -0.16960541593E+02 -0.11958447498E+02  0.40437820913E+02  0.41800000000E+01 0. -1.
        -11    1    1    2    0    0 -0.49956442077E+02 -0.51187028135E+02  0.10026845807E+02  0.72223926722E+02  0.00000000000E+00 0.  1.
         11    1    1    2    0    0  0.32459075143E+02  0.18565729865E+01  0.79945288137E+00  0.32521954851E+02  0.00000000000E+00 0. -1.
</event>
<event>
 7    1  0.6473813E-006  0.1555185E+03  0.7561462E-02  0.1193851E+00
         -2   -1    0    0    0  501 -0.00000000000E+00  0.00000000000E+00  0.56964772637E+02  0.56964772637E+02  0.00000000000E+00 0. -1.
          2   -1    0    0  501    0  0.00000000000E+00 -0.00000000000E+00 -0.45523041401E+03  0.45523041401E+03  0.00000000000E+00 0.  1.
         23    2    1    2    0    0 -0.11725672276E+03 -0.41600659647E+01 -0.17871583051E+03  0.24770113020E+03  0.12510018644E+03 0.  0.
          5    1    3    3  502    0  0.55019553509E+01  0.35932005779E+02 -0.16028146587E+02  0.39946895186E+02  0.41800000000E+01 0.  1.
         -5    1    3    3    0  502 -0.12275867811E+03 -0.40092071743E+02 -0.16268768392E+03  0.20775423502E+03  0.41800000000E+01 0.  1.
        -11    1    1    2    0    0  0.12918521027E+01 -0.25507058301E+02 -0.23030783693E+02  0.34390346066E+02  0.00000000000E+00 0. -1.
         11    1    1    2    0    0  0.11596487066E+03  0.29667124266E+02 -0.19651902718E+03  0.23010371038E+03  0.00000000000E+00 0.  1.
</event>
<event>
 7    1  0.6473813E-006  0.2017576E+03  0.7561462E-02  0.1148265E+00
         -2   -1    0    0    0  501 -0.00000000000E+00  0.00000000000E+00  0.57035233226E+02  0.57035233226E+02  0.00000000000E+00 0. -1.
          2   -1    0    0  501    0  0.00000000000E+00 -0.00000000000E+00 -0.81701858099E+03  0.81701858099E+03  0.00000000000E+00 0.  1.
         23    2    1    2    0    0 -0.16355817321E+03  0.74294443339E+02 -0.30074549206E+03  0.37197678907E+03  0.12509172743E+03 0.  0.
          5    1    3    3  502    0  0.11078827105E+02  0.32426239189E+02 -0.24004148687E+02  0.42046081294E+02  0.41800000000E+01 0.  1.
         -5    1    3    3    0  502 -0.17463700032E+03  0.41868204150E+02 -0.27674134337E+03  0.32993070777E+03  0.41800000000E+01 0.  1.
        -11    1    1    2    0    0  0.77034387885E+02 -0.67751756683E+02 -0.33631341441E+03  0.35161244313E+03  0.00000000000E+00 0.  1.
         11    1    1    2    0    0  0.86523785327E+02 -0.65426866558E+01 -0.12292444129E+03  0.15046458202E+03  0.00000000000E+00 0. -1.
</event>
<event>
 7    1  0.6473813E-006  0.1096034E+03  0.7561462E-02  0.1261306E+00
         -3   -1    0    0    0  501 -0.00000000000E+00  0.00000000000E+00  0.20662973119E+03  0.20662973119E+03  0.00000000000E+00 0.  1.
          3   -1    0    0  501    0  0.00000000000E+00 -0.00000000000E+00 -0.87144241131E+02  0.87144241131E+02  0.00000000000E+00 0. -1.
         23    2    1    2    0    0 -0.51681017768E+02 -0.55445107785E+02  0.89850185814E+02  0.17165881262E+03  0.12509438231E+03 0.  0.
          5    1    3    3  502    0 -0.50295822299E+02 -0.52339565013E+01 -0.17003986343E+02  0.53513288003E+02  0.41800000000E+01 0. -1.
         -5    1    3    3    0  502 -0.13851954693E+01 -0.50211151284E+02  0.10685417216E+03  0.11814552462E+03  0.41800000000E+01 0. -1.
        -11    1    1    2    0    0 -0.20381836830E+02  0.39214551434E+02  0.15981515055E+02  0.46995841733E+02  0.00000000000E+00 0. -1.
         11    1    1    2    0    0  0.72062854598E+02  0.16230556352E+02  0.13653789187E+02  0.75119317965E+02  0.00000000000E+00 0.  1.
</event>
<event>
 7    1  0.6473813E-006  0.8959744E+02  0.7561462E-02  0.1303829E+00
          4   -1    0    0  501    0  0.00000000000E+00  0.00000000000E+00  0.21237215649E+03  0.21237215649E+03  0.00000000000E+00 0. -1.
         -4   -1    0    0    0  501 -0.00000000000E+00 -0.00000000000E+00 -0.55614090242E+02  0.55614090242E+02  0.00000000000E+00 0.  1.
         23    2    1    2    0    0  0.32694866052E+02 -0.16206614126E+02  0.96997579197E+02  0.16244637249E+03  0.12509470395E+03 0.  0.
          5    1    3    3  502    0 -0.45326657301E+01  0.34077431501E+02 -0.12040530908E+02  0.36664194807E+02  0.41800000000E+01 0. -1.
         -5    1    3    3    0  502  0.37227531782E+02 -0.50284045627E+02  0.10903811010E+03  0.12578217768E+03  0.41800000000E+01 0. -1.
        -11    1    1    2    0    0 -0.12284744620E+02  0.44954765126E+02  0.15845309498E+02  0.49223162139E+02  0.00000000000E+00 0.  1.
         11    1    1    2    0    0 -0.20410121432E+02 -0.28748151000E+02  0.43915177555E+02  0.56316712106E+02  0.00000000000E+00 0. -1.
</event>
<event>
 7    1  0.6473813E-006  0.9786634E+02  0.7561462E-02  0.1284848E+00
         -3   -1    0    0    0  501 -0.00000000000E+00  0.00000000000E+00  0.59450790662E+02  0.59450790662E+02  0.00000000000E+00 0. -1.
          3   -1    0    0  501    0  0.00000000000E+00 -0.00000000000E+00 -0.32099009444E+03  0.32099009444E+03  0.00000000000E+00 0.  1.
         23    2    1    2    0    0  0.19234802742E+02 -0.38958605464E+02 -0.40582592972E+02  0.13849910522E+03  0.12508918705E+03 0.  0.
          5    1    3    3  502    0  0.39471722911E+00 -0.74564122672E+02  0.81604164866E+01  0.75126752817E+02  0.41800000000E+01 0.  1.
         -5    1    3    3    0  502  0.18840085513E+02  0.35605517209E+02 -0.48743009458E+02  0.63372352401E+02  0.41800000000E+01 0.  1.
        -11    1    1    2    0    0 -0.44868130148E+02  0.25093026422E+02 -0.19878103104E+03  0.20532098621E+03  0.00000000000E+00 0.  1.
         11    1    1    2    0    0  0.25633327406E+02  0.13865579042E+02 -0.22175679770E+02  0.36620793674E+02  0.00000000000E+00 0. -1.
</event>
<event>
 7    1  0.6473813E-006  0.8024411E+02  0.7561462E-02  0.1328360E+00
         -3   -1    0    0    0  501 -0.00000000000E+00  0.00000000000E+00  0.80356540666E+02  0.80356540666E+02  0.00000000000E+00 0.  1.
          3   -1    0    0  501    0  0.00000000000E+00 -0.00000000000E+00 -0.16138209810E+03  0.16138209810E+03  0.00000000000E+00 0. -1.
         23    2    1    2    0    0  0.40514330600E+01 -0.24873497442E+02 -0.19718206531E+02  0.12911855862E+03  0.12509072518E+03 0.  0.
          5    1    3    3  502    0  0.43158804037E+02 -0.25640605006E+02  0.35279964126E+02  0.61500172843E+02  0.41800000000E+01 0.  1.
         -5    1    3    3    0  502 -0.39107370977E+02  0.76710756396E+00 -0.54998170657E+02  0.67618385772E+02  0.41800000000E+01 0.  1.
        -11    1    1    2    0    0 -0.17380203961E+02  0.44088594318E+02 -0.72562514735E+02  0.86667145928E+02  0.00000000000E+00 0. -1.
         11    1    1    2    0    0  0.13328770901E+02 -0.19215096876E+02  0.11255163834E+02  0.25952934220E+02  0.00000000000E+00 0.  1.
</event>
<event>
 7    1  0.6473813E-006  0.8801084E+02  0.7561462E-02  0.1307741E+00
          1   -1    0    0  501    0  0.00000000000E+00  0.00000000000E+00  0.24172259747E+03  0.24172259747E+03  0.00000000000E+00 0. -1.
         -1   -1    0    0    0  501 -0.00000000000E+00 -0.00000000000E+00 -0.57492004371E+02  0.57492004371E+02  0.00000000000E+00 0.  1.
         23    2    1    2    0    0  0.82367909376E+01  0.25322987652E+02  0.58200899996E+02  0.14051626286E+03  0.12509347280E+03 0.  0.
          5    1    3    3  502    0  0.43447133478E+02 -0.34102848729E+02  0.41816579998E+02  0.69402856293E+02  0.41800000000E+01 0.  1.
         -5    1    3    3    0  502 -0.35210342540E+02  0.59425836381E+02  0.16384319997E+02  0.71113406564E+02  0.41800000000E+01 0.  1.
        -11    1    1    2    0    0 -0.10677940839E+02 -0.37510727303E+02  0.13680036032E+03  0.14225122730E+03  0.00000000000E+00 0. -1.
         11    1    1    2    0    0  0.24411499015E+01  0.12187739652E+02 -0.10770667216E+02  0.16447111690E+02  0.00000000000E+00 0.  1.
</event>
<event>
 7    1  0.6473813E-006  0.1509534E+03  0.7561462E-02  0.1199306E+00
         -1   -1    0    0    0  501 -0.00000000000E+00  0.00000000000E+00  0.67956908242E+02  0.67956908242E+02  0.00000000000E+00 0.  1.
          1   -1    0    0  501    0  0.00000000000E+00 -0.00000000000E+00 -0.40756549414E+03  0.40756549414E+03  0.00000000000E+00 0. -1.
         23    2    1    2    0    0  0.77684867164E+02 -0.95765029041E+02 -0.14739126618E+03  0.22929681754E+03  0.12508783240E+03 0.  0.
          5    1    3    3  502    0  0.92324179357E+02 -0.18048162449E+02 -0.98284974264E+02  0.13611355123E+03  0.41800000000E+01 0.  1.
         -5    1    3    3    0  502 -0.14639312193E+02 -0.77716866592E+02 -0.49106291912E+02  0.93183266308E+02  0.41800000000E+01 0.  1.
        -11    1    1    2    0    0 -0.23218219683E+02  0.57423500079E+02 -0.16131500532E+03  0.17279778652E+03  0.00000000000E+00 0. -1.
         11    1    1    2    0    0 -0.54466647480E+02  0.38341528962E+02 -0.30902314399E+02  0.73427798320E+02  0.00000000000E+00 0.  1.
</event>
<event>
 7    1  0.6473813E-006  0.8922250E+02  0.7561462E-02  0.1304746E+00
         -2   -1    0    0    0  501 -0.00000000000E+00  0.00000000000E+00  0.38445784345E+02  0.38445784345E+02  0.00000000000E+00 0.  1.
          2   -1    0    0  501    0  0.00000000000E+00 -0.00000000000E+00 -0.33960845394E+03  0.33960845394E+03  0.00000000000E+00 0. -1.
         23    2    1    2    0    0 -0.38076740171E+02  0.75720050398E+01 -0.17696932072E+03  0.22016581930E+03  0.12509066356E+03 0.  0.
          5    1    3    3  502    0 -0.70205007424E+02 -0.32695858772E+02 -0.88226982178E+02  0.11747014528E+03  0.41800000000E+01 0.  1.
         -5    1    3    3    0  502  0.32128267253E+02  0.40267863811E+02 -0.88742338540E+02  0.10269567402E+03  0.41800000000E+01 0.  1.
        -11    1    1    2    0    0  0.32113723111E+02 -0.18276383339E+02 -0.13596527120E+03  0.14089667268E+03  0.00000000000E+00 0. -1.
         11    1    1    2    0    0  0.59630170601E+01  0.10704378299E+02  0.11771922323E+02  0.16991746303E+02  0.00000000000E+00 0.  1.
</event>
<event>
 7    1  0.6473813E-006  0.1135807E+03  0.7561462E-02  0.1254079E+00
          1   -1    0    0  501    0  0.00000000000E+00  0.00000000000E+00  0.44637067556E+02  0.44637067556E+02  0.00000000000E+00 0. -1.
         -1   -1    0    0    0  501 -0.00000000000E+00 -0.00000000000E+00 -0.30799983009E+03  0.30799983009E+03  0.00000000000E+00 0.  1.
         23    2    1    2    0    0  0.37798291341E+02  0.27568543257E+02 -0.16507477982E+03  0.21233391288E+03  0.12508905716E+03 0.  0.
          5    1    3    3  502    0 -0.42722181607E+02  0.41603544777E+01 -0.89597031848E+02  0.99436381002E+02  0.41800000000E+01 0. -1.
         -5    1    3    3    0  502  0.80520472949E+02  0.23408188779E+02 -0.75477747974E+02  0.11289753188E+03  0.41800000000E+01 0. -1.
        -11    1    1    2    0    0  0.25066384451E+02  0.98335238308E+01 -0.24580462658E+02  0.36458482756E+02  0.00000000000E+00 0.  1.
         11    1    1    2    0    0 -0.62864675792E+02 -0.37402067087E+02 -0.73707520059E+02  0.10384450201E+03  0.00000000000E+00 0. -1.
</event>
<event>
 7    1  0.6473813E-006  0.1635992E+03  0.7561462E-02  0.1184692E+00
         -2   -1    0    0    0  501 -0.00000000000E+00  0.00000000000E+00  0.52905238715E+02  0.52905238715E+02  0.00000000000E+00 0. -1.
          2   -1    0    0  501    0  0.00000000000E+00 -0.00000000000E+00 -0.66052469787E+03  0.66052469787E+03  0.00000000000E+00 0.  1.
         23    2    1    2    0    0 -0.14187748751E+03 -0.55492489942E+02 -0.31904229694E+03  0.37502471912E+03  0.12508762854E+03 0.  0.
          5    1    3    3  502    0 -0.11956808195E+03 -0.71923804206E+02 -0.15495444815E+03  0.20856153345E+03  0.41800000000E+01 0.  1.
         -5    1    3    3    0  502 -0.22309405563E+02  0.16431314265E+02 -0.16408784878E+03  0.16646318567E+03  0.41800000000E+01 0.  1.
        -11    1    1    2    0    0  0.10468379730E+03  0.62228250342E+02 -0.27019857153E+03  0.29637530365E+03  0.00000000000E+00 0.  1.
         11    1    1    2    0    0  0.37193690209E+02 -0.67357603999E+01 -0.18378590694E+02  0.42029913816E+02  0.00000000000E+00 0. -1.
</event>
<event>
 7    1  0.6473813E-006  0.1152046E+03  0.7561462E-02  0.1251224E+00
          3   -1    0    0  501    0  0.00000000000E+00  0.00000000000E+00  0.16376610459E+03  0.16376610459E+03  0.00000000000E+00 0. -1.
         -3   -1    0    0    0  501 -0.00000000000E+00 -0.00000000000E+00 -0.95066500278E+02  0.95066500278E+02  0.00000000000E+00 0.  1.
         23    2    1    2    0    0  0.22087721288E+02 -0.33170800517E+02 -0.90267155478E+01  0.13159593199E+03  0.12509131978E+03 0.  0.
          5    1    3    3  502    0  0.43646132480E+02 -0.73369514907E+02 -0.51986476282E+01  0.85630420618E+02  0.41800000000E+01 0. -1.
         -5    1    3    3    0  502 -0.21558411192E+02  0.40198714390E+02 -0.38280679196E+01  0.45965511372E+02  0.41800000000E+01 0. -1.
        -11    1    1    2    0    0 -0.44596871919E+02 -0.14101525656E+02  0.25448388579E+02  0.53248046838E+02  0.00000000000E+00 0.  1.
         11    1    1    2    0    0  0.22509150631E+02  0.47272326173E+02  0.52277931276E+02  0.73988626035E+02  0.00000000000E+00 0. -1.
</event>
<event>
 7    1  0.6473813E-006  0.1837364E+03  0.7561462E-02  0.1164235E+00
         -1   -1    0    0    0  501 -0.00000000000E+00  0.00000000000E+00  0.68865048383E+02  0.68865048383E+02  0.00000000000E+00 0.  1.
          1   -1    0    0  501    0  0.00000000000E+00 -0.00000000000E+00 -0.92065004382E+03  0.92065004382E+03  0.00000000000E+00 0. -1.
         23    2    1    2    0    0 -0.10740232669E+03 -0.10816614428E+03 -0.10785446309E+03  0.22474813511E+03  0.12507583491E+03 0.  0.
          5    1    3    3  502    0 -0.86684553799E+02 -0.13498828455E+03 -0.10186318988E+03  0.19007795949E+03  0.41800000000E+01 0. -1.
         -5    1    3    3    0  502 -0.20717772887E+02  0.26822140273E+02 -0.59912732191E+01  0.34670175613E+02  0.41800000000E+01 0. -1.
        -11    1    1    2    0    0  0.46711240391E+02  0.10157053861E+03 -0.55738435975E+03  0.56848556604E+03  0.00000000000E+00 0. -1.
         11    1    1    2    0    0  0.60691086295E+02  0.65956056721E+01 -0.18654617258E+03  0.19628139106E+03  0.00000000000E+00 0.  1.
</event>
<event>
 7    1  0.6473813E-006  0.1639181E+03  0.7561462E-02  0.1184343E+00
         -2   -1    0    0    0  501 -0.00000000000E+00  0.00000000000E+00  0.14359165537E+03  0.14359165537E+03  0.00000000000E+00 0.  1.
          2   -1    0    0  501    0  0.00000000000E+00 -0.00000000000E+00 -0.29581359869E+03  0.29581359869E+03  0.00000000000E+00 0. -1.
         23    2    1    2    0    0 -0.83543309224E+01  0.13132029549E+03  0.43087005151E+02  0.18659647177E+03  0.12508772287E+03 0.  0.
          5    1    3    3  502    0 -0.29718043864E+02  0.14745840936E+03  0.50105777305E+02  0.15860392789E+03  0.41800000000E+01 0. -1.
         -5    1    3    3    0  502  0.21363712941E+02 -0.16138113877E+02 -0.70187721544E+01  0.27992543877E+02  0.41800000000E+01 0. -1.
        -11    1    1    2    0    0 -0.27280042914E+02 -0.21303672320E+02 -0.89901739535E+02  0.96334676867E+02  0.00000000000E+00 0. -1.
         11    1    1    2    0    0  0.35634373837E+02 -0.11001662316E+03 -0.10540720894E+03  0.15647410542E+03  0.00000000000E+00 0.  1.
</event>
<event>
 7    1  0.6541412E-006  0.2790764E+03  0.7561462E-02  0.1096194E+00
          3   -1    0    0  501    0  0.00000000000E+00  0.00000000000E+00  0.28145807868E+03  0.28145807868E+03  0.00000000000E+00 0. -1.
         -3   -1    0    0    0  501 -0.00000000000E+00 -0.00000000000E+00 -0.31707650707E+03  0.31707650707E+03  0.00000000000E+00 0.  1.
         23    2    1    2    0    0 -0.23657625789E+03  0.13061441847E+03 -0.83384951929E+02  0.30923967212E+03  0.12509065712E+03 0.  0.
          5    1    3    3  502    0 -0.28229444576E+02 -0.78102881111E+01  0.22910276629E+02  0.37419985525E+02  0.41800000000E+01 0. -1.
         -5    1    3    3    0  502 -0.20834681331E+03  0.13842470658E+03 -0.10629522856E+03  0.27181968660E+03  0.41800000000E+01 0. -1.
        -11    1    1    2    0    0  0.89995219967E+02 -0.13991141850E+02 -0.13811813717E+02  0.92117630589E+02  0.00000000000E+00 0.  1.
         11    1    1    2    0    0  0.14658103792E+03 -0.11662327662E+03  0.61578337248E+02  0.19717728304E+03  0.00000000000E+00 0. -1.
</event>
<event>
 7    1  0.6473813E-006  0.1103574E+03  0.7561462E-02  0.1259909E+00
          1   -1    0    0  501    0  0.00000000000E+00  0.00000000000E+00  0.17599356087E+03  0.17599356087E+03  0.00000000000E+00 0. -1.
         -1   -1    0    0    0  501 -0.00000000000E+00 -0.00000000000E+00 -0.98256188289E+02  0.98256188289E+02  0.00000000000E+00 0.  1.
         23    2    1    2    0    0  0.52662915676E+02 -0.80022714185E+01 -0.30984317055E+01  0.13599125953E+03  0.12508638357E+03 0.  0.
          5    1    3    3  502    0 -0.69309807734E+01 -0.42816567342E+02 -0.38647002063E+02  0.58243970520E+02  0.41800000000E+01 0. -1.
         -5    1    3    3    0  502  0.59593896449E+02  0.34814295924E+02  0.35548570358E+02  0.77747289015E+02  0.41800000000E+01 0. -1.
        -11    1    1    2    0    0 -0.23092254081E+02  0.50900070475E+02  0.60395312074E+02  0.82290115405E+02  0.00000000000E+00 0. -1.
         11    1    1    2    0    0 -0.29570661595E+02 -0.42897799056E+02  0.20440492215E+02  0.55968374221E+02  0.00000000000E+00 0.  1.
</event>
<event>
 7    1  0.6473813E-006  0.1047066E+03  0.7561462E-02  0.1270699E+00
          4   -1    0    0  501    0  0.00000000000E+00  0.00000000000E+00  0.81691324582E+02  0.81691324582E+02  0.00000000000E+00 0. -1.
         -4   -1    0    0    0  501 -0.00000000000E+00 -0.00000000000E+00 -0.23984756921E+03  0.23984756921E+03  0.00000000000E+00 0.  1.
         23    2    1    2    0    0  0.86653908244E+02  0.15621863468E+02 -0.77547642959E+02  0.17150208495E+03  0.12508551388E+03 0.  0.
          5    1    3    3  502    0  0.66594554450E+02  0.32350035536E+02  0.14647925901E+02  0.75586993688E+02  0.41800000000E+01 0.  1.
         -5    1    3    3    0  502  0.20059353793E+02 -0.16728172068E+02 -0.92195568860E+02  0.95915091267E+02  0.41800000000E+01 0.  1.
        -11    1    1    2    0    0  0.61684320757E+01  0.10677671190E+02 -0.45867331166E+02  0.47496044936E+02  0.00000000000E+00 0.  1.
         11    1    1    2    0    0 -0.92822340320E+02 -0.26299534658E+02 -0.34741270508E+02  0.10254076390E+03  0.00000000000E+00 0. -1.
</event>
<event>
 7    1  0.6473813E-006  0.7473116E+02  0.7561462E-02  0.1344706E+00
          1   -1    0    0  501    0  0.00000000000E+00  0.00000000000E+00  0.18828261118E+03  0.18828261118E+03  0.00000000000E+00 0. -1.
         -1   -1    0    0    0  501 -0.00000000000E+00 -0.00000000000E+00 -0.76519667215E+02  0.76519667215E+02  0.00000000000E+00 0.  1.
         23    2    1    2    0    0  0.19586877753E+02 -0.18403695169E+02  0.20074144519E+02  0.12950989418E+03  0.12508996617E+03 0.  0.
          5    1    3    3  502    0  0.11964531496E+02 -0.46544423928E+02  0.61823809594E+02  0.78416766354E+02  0.41800000000E+01 0.  1.
         -5    1    3    3    0  502  0.76223462562E+01  0.28140728760E+02 -0.41749665075E+02  0.51093127830E+02  0.41800000000E+01 0.  1.
        -11    1    1    2    0    0  0.24873579535E+02  0.77236313392E+01 -0.66171338833E+01  0.26872586418E+02  0.00000000000E+00 0.  1.
         11    1    1    2    0    0 -0.44460457287E+02  0.10680063829E+02  0.98305933328E+02  0.10841979779E+03  0.00000000000E+00 0. -1.
</event>
<event>
 7    1  0.6473813E-006  0.7227139E+02  0.7561462E-02  0.1352535E+00
         -1   -1    0    0    0  501 -0.00000000000E+00  0.00000000000E+00  0.64685858195E+03  0.64685858195E+03  0.00000000000E+00 0.  1.
          1   -1    0    0  501    0  0.00000000000E+00 -0.00000000000E+00 -0.46348269979E+02  0.46348269979E+02  0.00000000000E+00 0. -1.
         23    2    1    2    0    0 -0.40934672224E+02  0.89652790678E+01  0.57811317360E+03  0.59297382999E+03  0.12508836054E+03 0.  0.
          5    1    3    3  502    0 -0.60129045843E+02  0.47494126165E+01  0.56660125015E+03  0.56981796054E+03  0.41800000000E+01 0.  1.
         -5    1    3    3    0  502  0.19194373619E+02  0.42158664514E+01  0.11511923443E+02  0.23155869449E+02  0.41800000000E+01 0.  1.
        -11    1    1    2    0    0  0.33737371760E+02  0.16479530827E+02 -0.25592940022E+02  0.45439891818E+02  0.00000000000E+00 0. -1.
         11    1    1    2    0    0  0.71973004647E+01 -0.25444809895E+02  0.47990078398E+02  0.54793130128E+02  0.00000000000E+00 0.  1.
</event>
<event>
 7    1  0.6473813E-006  0.2580230E+03  0.7561462E-02  0.1108337E+00
         -1   -1    0    0    0  501 -0.00000000000E+00  0.00000000000E+00  0.56820613037E+03  0.56820613037E+03  0.00000000000E+00 0. -1.
          1   -1    0    0  501    0  0.00000000000E+00 -0.00000000000E+00 -0.15633405591E+03  0.15633405591E+03  0.00000000000E+00 0.  1.
         23    2    1    2    0    0 -0.14416656664E+03 -0.20119557741E+03  0.35766241803E+03  0.45258632557E+03  0.12509323529E+03 0.  0.
          5    1    3    3  502    0 -0.14296688076E+03 -0.19035096383E+03  0.36710921151E+03  0.43756104031E+03  0.41800000000E+01 0.  1.
         -5    1    3    3    0  502 -0.11996858779E+01 -0.10844613585E+02 -0.94467934795E+01  0.15025285257E+02  0.41800000000E+01 0.  1.
        -11    1    1    2    0    0  0.17978355399E+02  0.10775997780E+03  0.16671596929E+02  0.11051414490E+03  0.00000000000E+00 0. -1.
         11    1    1    2    0    0  0.12618821124E+03  0.93435599615E+02  0.37538059497E+02  0.16143971582E+03  0.00000000000E+00 0.  1.
</event>
<event>
 7    1  0.1423119E-005  0.2436453E+03  0.7561462E-02  0.1117388E+00
          1   -1    0    0  501    0  0.00000000000E+00  0.00000000000E+00  0.63400134994E+03  0.63400134994E+03  0.00000000000E+00 0. -1.
         -1   -1    0    0    0  501 -0.00000000000E+00 -0.00000000000E+00 -0.10578408129E+03  0.10578408129E+03  0.00000000000E+00 0.  1.
         23    2    1    2    0    0  0.22401880180E+03 -0.52749282030E+02  0.20545649781E+03  0.33290697034E+03  0.12509103924E+03 0.  0.
          5    1    3    3  502    0  0.12352892474E+03  0.23399756912E+02  0.57047697756E+02  0.13812623245E+03  0.41800000000E+01 0. -1.
         -5    1    3    3    0  502  0.10048987706E+03 -0.76149038942E+02  0.14840880005E+03  0.19478073790E+03  0.41800000000E+01 0. -1.
        -11    1    1    2    0    0 -0.11277206151E+03  0.51782226346E+02  0.10586220251E+03  0.16311266886E+03  0.00000000000E+00 0.  1.
         11    1    1    2    0    0 -0.11124674029E+03  0.96705568449E+00  0.21689856833E+03  0.24376579203E+03  0.00000000000E+00 0. -1.
</event>
<event>
 7    1  0.6473813E-006  0.1069020E+03  0.7561462E-02  0.1266417E+00
         -2   -1    0    0    0  501 -0.00000000000E+00  0.00000000000E+00  0.64334936258E+02  0.64334936258E+02  0.00000000000E+00 0.  1.
          2   -1    0    0  501    0  0.00000000000E+00 -0.00000000000E+00 -0.31168662742E+03  0.31168662742E+03  0.00000000000E+00 0. -1.
         23    2    1    2    0    0 -0.29058107596E+02  0.82827838139E+02 -0.11663277256E+03  0.19223707776E+03  0.12508823303E+03 0.  0.
          5    1    3    3  502    0  0.18410122807E+02  0.73679075463E+02 -0.12163510284E+03  0.14345769211E+03  0.41800000000E+01 0.  1.
         -5    1    3    3    0  502 -0.47468230403E+02  0.91487626751E+01  0.50023302784E+01  0.48779385649E+02  0.41800000000E+01 0.  1.
        -11    1    1    2    0    0 -0.11637057760E+01 -0.14044415570E+02  0.14538610421E+02  0.20247740931E+02  0.00000000000E+00 0.  1.
         11    1    1    2    0    0  0.30221813372E+02 -0.68783422569E+02 -0.14525752902E+03  0.16353674499E+03  0.00000000000E+00 0. -1.
</event>
<event>
 7    1  0.6473813E-006  0.1070773E+03  0.7561462E-02  0.1266080E+00
         -1   -1    0    0    0  501 -0.00000000000E+00  0.00000000000E+00  0.95434031315E+02  0.95434031315E+02  0.00000000000E+00 0.  1.
          1   -1    0    0  501    0  0.00000000000E+00 -0.00000000000E+00 -0.14282469329E+03  0.14282469329E+03  0.00000000000E+00 0. -1.
         23    2    1    2    0    0 -0.23340148354E+02  0.32136313305E+02 -0.53170129616E+01  0.13135190197E+03  0.12509015296E+03 0.  0.
          5    1    3    3  502    0 -0.73828134765E+02  0.31059444731E+02  0.15311635879E+01  0.80219071622E+02  0.41800000000E+01 0. -1.
         -5    1    3    3    0  502  0.50487986411E+02  0.10768685734E+01 -0.68481765495E+01  0.51132830352E+02  0.41800000000E+01 0. -1.
        -11    1    1    2    0    0  0.39647290286E+02  0.75609344863E+01  0.78018721353E+01  0.41108935356E+02  0.00000000000E+00 0.  1.
         11    1    1    2    0    0 -0.16307141931E+02 -0.39697247791E+02 -0.49875521153E+02  0.65797887280E+02  0.00000000000E+00 0. -1.
</event>
<event>
 7    1  0.6473813E-006  0.1505911E+03  0.7561462E-02  0.1199749E+00
          1   -1    0    0  501    0  0.00000000000E+00  0.00000000000E+00  0.11043564753E+03  0.11043564753E+03  0.00000000000E+00 0. -1.
         -1   -1    0    0    0  501 -0.00000000000E+00 -0.00000000000E+00 -0.73689411621E+03  0.73689411621E+03  0.00000000000E+00 0.  1.
         23    2    1    2    0    0 -0.36474266112E+02 -0.98018874435E+02 -0.67933833031E+03  0.69863137686E+03  0.12508861608E+03 0.  0.
          5    1    3    3  502    0 -0.82699666558E+02 -0.66361762629E+02 -0.47510722864E+03  0.48681358804E+03  0.41800000000E+01 0. -1.
         -5    1    3    3    0  502  0.46225400446E+02 -0.31657111806E+02 -0.20423110167E+03  0.21181778883E+03  0.41800000000E+01 0. -1.
        -11    1    1    2    0    0  0.45362107436E+02  0.52209178475E+01  0.19966642221E+02  0.49836187412E+02  0.00000000000E+00 0.  1.
         11    1    1    2    0    0 -0.88878413235E+01  0.92797956588E+02  0.32913219414E+02  0.98862199462E+02  0.00000000000E+00 0. -1.
</event>
<event>
 7    1  0.6473813E-006  0.1007428E+03  0.7561462E-02  0.1278742E+00
         -1   -1    0    0    0  501 -0.00000000000E+00  0.00000000000E+00  0.23104342304E+03  0.23104342304E+03  0.00000000000E+00 0.  1.
          1   -1    0    0  501    0  0.00000000000E+00 -0.00000000000E+00 -0.64725431860E+02  0.64725431860E+02  0.00000000000E+00 0. -1.
         23    2    1    2    0    0  0.14913317202E+02 -0.53198392999E+02  0.11084708979E+03  0.17603543947E+03  0.12509565374E+03 0.  0.
          5    1    3    3  502    0 -0.52998322058E+02 -0.23676115863E+02  0.71122870714E+02  0.91898399017E+02  0.41800000000E+01 0. -1.
         -5    1    3    3    0  502  0.67911639260E+02 -0.29522277135E+02  0.39724219080E+02  0.84137040451E+02  0.41800000000E+01 0. -1.
        -11    1    1    2    0    0 -0.27676155971E+02  0.21812893648E+02 -0.17452238718E+02  0.39323689742E+02  0.00000000000E+00 0. -1.
         11    1    1    2    0    0  0.12762838769E+02  0.31385499350E+02  0.72923140105E+02  0.80409725691E+02  0.00000000000E+00 0.  1.
</event>
<event>
 7    1  0.6473813E-006  0.1066001E+03  0.7561462E-02  0.1266999E+00
          2   -1    0    0  501    0  0.00000000000E+00  0.00000000000E+00  0.27352573832E+03  0.27352573832E+03  0.00000000000E+00 0. -1.
         -2   -1    0    0    0  501 -0.00000000000E+00 -0.00000000000E+00 -0.59019174295E+02  0.59019174295E+02  0.00000000000E+00 0.  1.
         23    2    1    2    0    0  0.40611248209E+02 -0.49213098317E+02  0.78240505823E+02  0.16071597255E+03  0.12504736925E+03 0.  0.
          5    1    3    3  502    0 -0.21543274682E+01  0.33009533018E+02  0.56221659332E+02  0.65365264284E+02  0.41800000000E+01 0.  1.
         -5    1    3    3    0  502  0.42765575677E+02 -0.82222631335E+02  0.22018846491E+02  0.95350708269E+02  0.41800000000E+01 0.  1.
        -11    1    1    2    0    0 -0.31819267005E+02 -0.49585461555E+01  0.93151721898E+01  0.33523504674E+02  0.00000000000E+00 0.  1.
         11    1    1    2    0    0 -0.87919812040E+01  0.54171644473E+02  0.12695088601E+03  0.13830543539E+03  0.00000000000E+00 0. -1.
</event>
<event>
 7    1  0.6473813E-006  0.1416262E+03  0.7561462E-02  0.1211157E+00
          2   -1    0    0  501    0  0.00000000000E+00  0.00000000000E+00  0.55818428418E+03  0.55818428418E+03  0.00000000000E+00 0. -1.
         -2   -1    0    0    0  501 -0.00000000000E+00 -0.00000000000E+00 -0.42501646902E+02  0.42501646902E+02  0.00000000000E+00 0.  1.
         23    2    1    2    0    0  0.52388656112E+02 -0.94888442398E+02  0.30878399591E+03  0.35034249206E+03  0.12507564841E+03 0.  0.
          5    1    3    3  502    0  0.91477633438E+02 -0.84873444827E+02  0.23773469332E+03  0.26852730935E+03  0.41800000000E+01 0. -1.
         -5    1    3    3    0  502 -0.39088977326E+02 -0.10014997571E+02  0.71049302587E+02  0.81815182716E+02  0.41800000000E+01 0. -1.
        -11    1    1    2    0    0 -0.52486134132E+02  0.48573563264E+02  0.18648943666E+03  0.19973105745E+03  0.00000000000E+00 0. -1.
         11    1    1    2    0    0  0.97478019937E-01  0.46314879134E+02  0.20409204707E+02  0.50612381567E+02  0.00000000000E+00 0.  1.
</event>
<event>
 6    1  0.6473813E-006  0.9837624E+02  0.7561462E-02  0.1283748E+00
         -2   -1    0    0    0  501 -0.00000000000E+00  0.00000000000E+00  0.92203212865E+03  0.92203212865E+03  0.00000000000E+00 0.  1.
          2   -1    0    0  501    0  0.00000000000E+00 -0.00000000000E+00 -0.24800934387E+02  0.24800934387E+02  0.00000000000E+00 0. -1.
          5    1    1    2  502    0  0.28391182683E+02 -0.10050580241E+02  0.18674669607E+02  0.35683176740E+02  0.41800000000E+01 0. -1.
         -5    1    1    2    0  502 -0.53738706665E+02 -0.31653592798E+02  0.71215707128E+03  0.71489507279E+03  0.41800000000E+01 0.  1.
        -11    1    1    2    0    0  0.68149832573E+01 -0.29492062756E+02  0.54392838864E+02  0.62247945204E+02  0.00000000000E+00 0.  1.
         11    1    1    2    0    0  0.18532540726E+02  0.71196235795E+02  0.11200661452E+03  0.13400686830E+03  0.00000000000E+00 0. -1.
</event>
<event>
 7    1  0.6473813E-006  0.1248913E+03  0.7561462E-02  0.1235239E+00
         -1   -1    0    0    0  501 -0.00000000000E+00  0.00000000000E+00  0.53120086992E+02  0.53120086992E+02  0.00000000000E+00 0.  1.
          1   -1    0    0  501    0  0.00000000000E+00 -0.00000000000E+00 -0.38050011849E+03  0.38050011849E+03  0.00000000000E+00 0. -1.
         23    2    1    2    0    0 -0.38277507060E+02  0.82314667436E+02 -0.19799596263E+03  0.25118011919E+03  0.12509268178E+03 0.  0.
          5    1    3    3  502    0 -0.13648484757E+02  0.10469748565E+03 -0.18886997302E+03  0.21641900043E+03  0.41800000000E+01 0. -1.
         -5    1    3    3    0  502 -0.24629022303E+02 -0.22382818217E+02 -0.91259896065E+01  0.34761118757E+02  0.41800000000E+01 0. -1.
        -11    1    1    2    0    0  0.55982636109E+02 -0.59507058073E+02 -0.45046459779E+02  0.93296993761E+02  0.00000000000E+00 0.  1.
         11    1    1    2    0    0 -0.17705129049E+02 -0.22807609363E+02 -0.84337609095E+02  0.89143092538E+02  0.00000000000E+00 0. -1.
</event>
<event>
 7    1  0.6473813E-006  0.1229904E+03  0.7561462E-02  0.1238244E+00
          2   -1    0    0  501    0  0.00000000000E+00  0.00000000000E+00  0.15951670537E+03  0.15951670537E+03  0.00000000000E+00 0. -1.
         -2   -1    0    0    0  501 -0.00000000000E+00 -0.00000000000E+00 -0.17458279441E+03  0.17458279441E+03  0.00000000000E+00 0.  1.
         23    2    1    2    0    0 -0.77028733338E+02 -0.42362165135E+02 -0.98202354450E+02  0.18171274797E+03  0.12509133287E+03 0.  0.
          5    1    3    3  502    0 -0.43369219806E+02  0.39468638405E+02 -0.16147345055E+02  0.60966152876E+02  0.41800000000E+01 0. -1.
         -5    1    3    3    0  502 -0.33659513532E+02 -0.81830803540E+02 -0.82055009395E+02  0.12074659509E+03  0.41800000000E+01 0. -1.
        -11    1    1    2    0    0  0.48878322237E+02  0.13883075570E+01  0.89780156688E+02  0.10223255019E+03  0.00000000000E+00 0. -1.
         11    1    1    2    0    0  0.28150411101E+02  0.40973857578E+02 -0.66438912700E+01  0.50154201631E+02  0.00000000000E+00 0.  1.
</event>
<event>
 7    1  0.6473813E-006  0.1228066E+03  0.7561462E-02  0.1238538E+00
          1   -1    0    0  501    0  0.00000000000E+00  0.00000000000E+00  0.22319526637E+03  0.22319526637E+03  0.00000000000E+00 0. -1.
         -1   -1    0    0    0  501 -0.00000000000E+00 -0.00000000000E+00 -0.11512666714E+03  0.11512666714E+03  0.00000000000E+00 0.  1.
         23    2    1    2    0    0 -0.72707754973E+02  0.28258793241E+02 -0.35048337384E+02  0.15165136873E+03  0.12523887038E+03 0.  0.
          5    1    3    3  502    0 -0.64140833891E+02 -0.39362760332E+02 -0.10804987834E+01  0.75379794049E+02  0.41800000000E+01 0.  1.
         -5    1    3    3    0  502 -0.85669210820E+01  0.67621553574E+02 -0.33967838601E+02  0.76271574677E+02  0.41800000000E+01 0.  1.
        -11    1    1    2    0    0  0.42358307820E+02  0.18487277877E+02  0.17813454731E+02  0.49531049395E+02  0.00000000000E+00 0.  1.
         11    1    1    2    0    0  0.30349447153E+02 -0.46746071118E+02  0.12530348189E+03  0.13713951539E+03  0.00000000000E+00 0. -1.
</event>
<event>
 7    1  0.6473813E-006  0.1129425E+03  0.7561462E-02  0.1255216E+00
         -2   -1    0    0    0  501 -0.00000000000E+00  0.00000000000E+00  0.71834780690E+02  0.71834780690E+02  0.00000000000E+00 0.  1.
          2   -1    0    0  501    0  0.00000000000E+00 -0.00000000000E+00 -0.18671126678E+03  0.18671126678E+03  0.00000000000E+00 0. -1.
         23    2    1    2    0    0  0.32820288670E+02 -0.14412553334E+02 -0.42567971863E+02  0.13691240164E+03  0.12509228774E+03 0.  0.
          5    1    3    3  502    0 -0.20124617624E+02  0.44826012474E+02 -0.71679540911E+01  0.49831953550E+02  0.41800000000E+01 0. -1.
         -5    1    3    3    0  502  0.52944906294E+02 -0.59238565808E+02 -0.35400017772E+02  0.87080448091E+02  0.41800000000E+01 0. -1.
        -11    1    1    2    0    0  0.59312653418E+01 -0.34274891986E+02 -0.33525784998E+02  0.48310727473E+02  0.00000000000E+00 0. -1.
         11    1    1    2    0    0 -0.38751554011E+02  0.48687445320E+02 -0.38782729233E+02  0.73322918360E+02  0.00000000000E+00 0.  1.
</event>
<event>
 7    1  0.6473813E-006  0.2761873E+03  0.7561462E-02  0.1097790E+00
          2   -1    0    0  501    0  0.00000000000E+00  0.00000000000E+00  0.40576361462E+03  0.40576361462E+03  0.00000000000E+00 0. -1.
         -2   -1    0    0    0  501 -0.00000000000E+00 -0.00000000000E+00 -0.19961230968E+03  0.19961230968E+03  0.00000000000E+00 0.  1.
         23    2    1    2    0    0 -0.23817318141E+03 -0.11082130461E+03  0.90900544396E+02  0.30482625686E+03  0.12509321326E+03 0.  0.
          5    1    3    3  502    0 -0.10405748849E+03 -0.11059441649E+03  0.75881183442E+02  0.16980727979E+03  0.41800000000E+01 0.  1.
         -5    1    3    3    0  502 -0.13411569292E+03 -0.22688811537E+00  0.15019360955E+02  0.13501897707E+03  0.41800000000E+01 0.  1.
        -11    1    1    2    0    0  0.88736478307E+02  0.18547506113E+02  0.81087939902E+02  0.12162823094E+03  0.00000000000E+00 0.  1.
         11    1    1    2    0    0  0.14943670310E+03  0.92273798497E+02  0.34162820649E+02  0.17892143649E+03  0.00000000000E+00 0. -1.
</event>
<event>
 7    1  0.6473813E-006  0.1334080E+03  0.7561462E-02  0.1222485E+00
          1   -1    0    0  501    0  0.00000000000E+00  0.00000000000E+00  0.14491455229E+03  0.14491455229E+03  0.00000000000E+00 0. -1.
         -1   -1    0    0    0  501 -0.00000000000E+00 -0.00000000000E+00 -0.13799594520E+03  0.13799594520E+03  0.00000000000E+00 0.  1.
         23    2    1    2    0    0 -0.43262247529E+02  0.44079710396E+02 -0.15119563823E+02  0.14034844219E+03  0.12511770891E+03 0.  0.
          5    1    3    3  502    0  0.38272872497E+02  0.18164924472E+02 -0.31732124879E+02  0.53095926394E+02  0.41800000000E+01 0.  1.
         -5    1    3    3    0  502 -0.81535120026E+02  0.25914785923E+02  0.16612561056E+02  0.87252515791E+02  0.41800000000E+01 0.  1.
        -11    1    1    2    0    0  0.52466450306E+02 -0.83221482029E+02  0.39158952207E+01  0.98457491915E+02  0.00000000000E+00 0.  1.
         11    1    1    2    0    0 -0.92042027772E+01  0.39141771633E+02  0.18122275690E+02  0.44104563387E+02  0.00000000000E+00 0. -1.
</event>
<event>
 7    1  0.6473813E-006  0.4010598E+03  0.7561462E-02  0.1043413E+00
         -2   -1    0    0    0  501 -0.00000000000E+00  0.00000000000E+00  0.13815659542E+03  0.13815659542E+03  0.00000000000E+00 0.  1.
          2   -1    0    0  501    0  0.00000000000E+00 -0.00000000000E+00 -0.12472890623E+04  0.12472890623E+04  0.00000000000E+00 0. -1.
         23    2    1    2    0    0  0.28721113337E+03  0.26305852493E+03 -0.40494213778E+03  0.57560164588E+03  0.12509635132E+03 0.  0.
          5    1    3    3  502    0  0.35666009197E+02 -0.52311754745E+01 -0.14138748906E+02  0.38946194031E+02  0.41800000000E+01 0.  1.
         -5    1    3    3    0  502  0.25154512417E+03  0.26828970041E+03 -0.39080338887E+03  0.53665545184E+03  0.41800000000E+01 0.  1.
        -11    1    1    2    0    0 -0.15890208280E+02 -0.51761725632E+02 -0.70949126159E+02  0.89249949369E+02  0.00000000000E+00 0. -1.
         11    1    1    2    0    0 -0.27132092509E+03 -0.21129679930E+03 -0.63324120295E+03  0.72059406249E+03  0.00000000000E+00 0.  1.
</event>
<event>
 7    1  0.6473813E-006  0.8637396E+02  0.7561462E-02  0.1311878E+00
          1   -1    0    0  501    0  0.00000000000E+00  0.00000000000E+00  0.25902483386E+02  0.25902483386E+02  0.00000000000E+00 0. -1.
         -1   -1    0    0    0  501 -0.00000000000E+00 -0.00000000000E+00 -0.54579099644E+03  0.54579099644E+03  0.00000000000E+00 0.  1.
         23    2    1    2    0    0  0.19707120397E+02  0.34947853906E+02 -0.35915119183E+03  0.38241206890E+03  0.12505874125E+03 0.  0.
          5    1    3    3  502    0 -0.14570887394E+02  0.56971418426E+02 -0.32123136212E+03  0.32659625486E+03  0.41800000000E+01 0.  1.
         -5    1    3    3    0  502  0.34278007791E+02 -0.22023564520E+02 -0.37919829704E+02  0.55815814041E+02  0.41800000000E+01 0.  1.
        -11    1    1    2    0    0 -0.38769998494E+02 -0.76109674319E+01 -0.14868016990E+03  0.15384028253E+03  0.00000000000E+00 0.  1.
         11    1    1    2    0    0  0.19062878097E+02 -0.27336886474E+02 -0.12057151325E+02  0.35441128389E+02  0.00000000000E+00 0. -1.
</event>
<event>
 7    1  0.6473813E-006  0.1345037E+03  0.7561462E-02  0.1220922E+00
          4   -1    0    0  501    0  0.00000000000E+00  0.00000000000E+00  0.13427739719E+03  0.13427739719E+03  0.00000000000E+00 0. -1.
         -4   -1    0    0    0  501 -0.00000000000E+00 -0.00000000000E+00 -0.20263924088E+03  0.20263924088E+03  0.00000000000E+00 0.  1.
         23    2    1    2    0    0  0.53576636124E+02 -0.81897200629E+02 -0.11404617742E+03  0.19553745765E+03  0.12510299497E+03 0.  0.
          5    1    3    3  502    0  0.57409939587E+02 -0.42600444986E+01 -0.10139444349E+03  0.11667199627E+03  0.41800000000E+01 0.  1.
         -5    1    3    3    0  502 -0.38333034627E+01 -0.77637156130E+02 -0.12651733927E+02  0.78865461381E+02  0.41800000000E+01 0.  1.
        -11    1    1    2    0    0  0.24249993615E+02  0.65487561366E+01  0.46685888774E+01  0.25548857496E+02  0.00000000000E+00 0.  1.
         11    1    1    2    0    0 -0.77826629739E+02  0.75348444492E+02  0.41015744854E+02  0.11583032293E+03  0.00000000000E+00 0. -1.
</event>
<event>
 7    1  0.6473813E-006  0.9586338E+02  0.7561462E-02  0.1289243E+00
         -1   -1    0    0    0  501 -0.00000000000E+00  0.00000000000E+00  0.49947742586E+02  0.49947742586E+02  0.00000000000E+00 0.  1.
          1   -1    0    0  501    0  0.00000000000E+00 -0.00000000000E+00 -0.24718972075E+03  0.24718972075E+03  0.00000000000E+00 0. -1.
         23    2    1    2    0    0  0.16882296145E+02  0.72411623230E+01 -0.78122139486E+02  0.14861941855E+03  0.12508883458E+03 0.  0.
          5    1    3    3  502    0  0.33182732777E+02  0.52281921570E+02 -0.65672819514E+01  0.62410693554E+02  0.41800000000E+01 0.  1.
         -5    1    3    3    0  502 -0.16300436632E+02 -0.45040759247E+02 -0.71554857534E+02  0.86208724992E+02  0.41800000000E+01 0.  1.
        -11    1    1    2    0    0 -0.35160529731E+02  0.25943139734E+02 -0.34058007515E+02  0.55400877485E+02  0.00000000000E+00 0.  1.
         11    1    1    2    0    0  0.18278233586E+02 -0.33184302057E+02 -0.85061831159E+02  0.93117167301E+02  0.00000000000E+00 0. -1.
</event>
<event>
 7    1  0.6473813E-006  0.1735189E+03  0.7561462E-02  0.1174227E+00
          2   -1    0    0  501    0  0.00000000000E+00  0.00000000000E+00  0.93880914040E+03  0.93880914040E+03  0.00000000000E+00 0. -1.
         -2   -1    0    0    0  501 -0.00000000000E+00 -0.00000000000E+00 -0.36156579048E+02  0.36156579048E+02  0.00000000000E+00 0.  1.
         23    2    1    2    0    0  0.75131430753E+02 -0.12951631109E+03  0.42065442345E+03  0.46369832292E+03  0.12508710558E+03 0.  0.
          5    1    3    3  502    0  0.23572763445E+02 -0.12231895305E+03  0.19020429890E+03  0.22740437368E+03  0.41800000000E+01 0.  1.
         -5    1    3    3    0  502  0.51558667308E+02 -0.71973580427E+01  0.23045012456E+03  0.23629394924E+03  0.41800000000E+01 0.  1.
        -11    1    1    2    0    0 -0.58785129320E+02  0.13924804685E+03  0.43748712573E+03  0.46286142112E+03  0.00000000000E+00 0.  1.
         11    1    1    2    0    0 -0.16346301433E+02 -0.97317357562E+01  0.44511012169E+02  0.48405975413E+02  0.00000000000E+00 0. -1.
</event>
<event>
 7    1  0.6473813E-006  0.6592261E+02  0.7561462E-02  0.1374534E+00
         -1   -1    0    0    0  501 -0.00000000000E+00  0.00000000000E+00  0.40021298852E+03  0.40021298852E+03  0.00000000000E+00 0.  1.
          1   -1    0    0  501    0  0.00000000000E+00 -0.00000000000E+00 -0.35763116673E+02  0.35763116673E+02  0.00000000000E+00 0. -1.
         23    2    1    2    0    0 -0.51689676834E+01 -0.30147976269E+02  0.27178938155E+03  0.30075303531E+03  0.12508917468E+03 0.  0.
          5    1    3    3  502    0 -0.10508442050E+02  0.27923694572E+02  0.88615497563E+01  0.31403177179E+02  0.41800000000E+01 0. -1.
         -5    1    3    3    0  502  0.53394743665E+01 -0.58071670841E+02  0.26292783180E+03  0.26934985813E+03  0.41800000000E+01 0. -1.
        -11    1    1    2    0    0  0.17162940621E+02  0.10168851995E+02  0.10634452698E+03  0.10819949399E+03  0.00000000000E+00 0.  1.
         11    1    1    2    0    0 -0.11993972937E+02  0.19979124274E+02 -0.13684036690E+02  0.27023575887E+02  0.00000000000E+00 0. -1.
</event>
<event>
 7    1  0.6473813E-006  0.9641054E+02  0.7561462E-02  0.1288030E+00
         -2   -1    0    0    0  501 -0.00000000000E+00  0.00000000000E+00  0.27225564134E+03  0.27225564134E+03  0.00000000000E+00 0. -1.
          2   -1    0    0  501    0  0.00000000000E+00 -0.00000000000E+00 -0.49043561632E+02  0.49043561632E+02  0.00000000000E+00 0.  1.
         23    2    1    2    0    0  0.26436943447E+02 -0.27215390087E+02  0.14752977431E+03  0.19710901317E+03  0.12508932540E+03 0.  0.
          5    1    3    3  502    0  0.70861205450E+01 -0.76765371734E+02  0.91900942548E+02  0.12002662639E+03  0.41800000000E+01 0. -1.
         -5    1    3    3    0  502  0.19350822902E+02  0.49549981647E+02  0.55628831758E+02  0.77082386775E+02  0.41800000000E+01 0. -1.
        -11    1    1    2    0    0  0.14125385067E+02  0.14400827549E+01  0.74786934570E+02  0.76122834445E+02  0.00000000000E+00 0. -1.
         11    1    1    2    0    0 -0.40562328514E+02  0.25775307332E+02  0.89537083556E+00  0.48067355362E+02  0.00000000000E+00 0.  1.
</event>
<event>
 7    1  0.6473813E-006  0.1096858E+03  0.7561462E-02  0.1261153E+00
          1   -1    0    0  501    0  0.00000000000E+00  0.00000000000E+00  0.58800618728E+03  0.58800618728E+03  0.00000000000E+00 0. -1.
         -1   -1    0    0    0  501 -0.00000000000E+00 -0.00000000000E+00 -0.22695085191E+02  0.22695085191E+02  0.00000000000E+00 0.  1.
         23    2    1    2    0    0 -0.39538074591E+02 -0.14811560914E+01  0.30184049436E+03  0.32913004077E+03  0.12511373442E+03 0.  0.
          5    1    3    3  502    0 -0.59226948474E+02  0.44433966663E+02  0.12522244729E+03  0.14553467808E+03  0.41800000000E+01 0. -1.
         -5    1    3    3    0  502  0.19688873883E+02 -0.45915122755E+02  0.17661804707E+03  0.18359536270E+03  0.41800000000E+01 0. -1.
        -11    1    1    2    0    0  0.36374633743E+02 -0.39660802266E+02  0.10727006003E+03  0.12001232851E+03  0.00000000000E+00 0.  1.
         11    1    1    2    0    0  0.31634408479E+01  0.41141958357E+02  0.15620054771E+03  0.16155890319E+03  0.00000000000E+00 0. -1.
</event>
<event>
 7    1  0.6473813E-006  0.2094315E+03  0.7561462E-02  0.1142017E+00
         -2   -1    0    0    0  501 -0.00000000000E+00  0.00000000000E+00  0.15880001781E+03  0.15880001781E+03  0.00000000000E+00 0.  1.
          2   -1    0    0  501    0  0.00000000000E+00 -0.00000000000E+00 -0.29576468914E+03  0.29576468914E+03  0.00000000000E+00 0. -1.
         23    2    1    2    0    0  0.16500043941E+03 -0.70393695605E+02 -0.14658236197E+02  0.21918468818E+03  0.12508655506E+03 0.  0.
          5    1    3    3  502    0  0.12269007401E+03  0.14387299274E+02 -0.13465771678E+02  0.12433281163E+03  0.41800000000E+01 0. -1.
         -5    1    3    3    0  502  0.42310365397E+02 -0.84780994879E+02 -0.11924645185E+01  0.94851876546E+02  0.41800000000E+01 0. -1.
        -11    1    1    2    0    0 -0.49027922656E+02 -0.20428674903E+02 -0.41228682435E+02  0.67237431640E+02  0.00000000000E+00 0.  1.
         11    1    1    2    0    0 -0.11597251675E+03  0.90822370508E+02 -0.81077752700E+02  0.16814258714E+03  0.00000000000E+00 0. -1.
</event>
<event>
 7    1  0.6473813E-006  0.1857582E+03  0.7561462E-02  0.1162344E+00
          2   -1    0    0  501    0  0.00000000000E+00  0.00000000000E+00  0.12843771052E+04  0.12843771052E+04  0.00000000000E+00 0. -1.
         -2   -1    0    0    0  501 -0.00000000000E+00 -0.00000000000E+00 -0.30669245990E+02  0.30669245990E+02  0.00000000000E+00 0.  1.
         23    2    1    2    0    0  0.10099713733E+03 -0.13007577416E+03  0.59420779315E+03  0.62916624994E+03  0.12508852809E+03 0.  0.
          5    1    3    3  502    0 -0.14117528026E+01 -0.61318197890E+02  0.35197449238E+03  0.35730299484E+03  0.41800000000E+01 0.  1.
         -5    1    3    3    0  502  0.10240889013E+03 -0.68757576269E+02  0.24223330077E+03  0.27186325510E+03  0.41800000000E+01 0.  1.
        -11    1    1    2    0    0 -0.97652790910E+02  0.56204437053E+02  0.35097261940E+03  0.36861468485E+03  0.00000000000E+00 0.  1.
         11    1    1    2    0    0 -0.33443464222E+01  0.73871337106E+02  0.30852744668E+03  0.31726541641E+03  0.00000000000E+00 0. -1.
</event>
<event>
 7    1  0.6473813E-006  0.1695038E+03  0.7561462E-02  0.1178366E+00
          1   -1    0    0  501    0  0.00000000000E+00  0.00000000000E+00  0.68587124900E+03  0.68587124900E+03  0.00000000000E+00 0. -1.
         -1   -1    0    0    0  501 -0.00000000000E+00 -0.00000000000E+00 -0.53258000569E+02  0.53258000569E+02  0.00000000000E+00 0.  1.
         23    2    1    2    0    0  0.60071810079E+02  0.12530778632E+03  0.48553717778E+03  0.51752804950E+03  0.11304099850E+03 0.  0.
          5    1    3    3  502    0  0.54909063452E+02  0.14671591217E+03  0.42306834888E+03  0.45115946666E+03  0.41800000000E+01 0. -1.
         -5    1    3    3    0  502  0.51627466274E+01 -0.21408125847E+02  0.62468828896E+02  0.66368582844E+02  0.41800000000E+01 0.  1.
        -11    1    1    2    0    0 -0.30512781433E+02 -0.12666886892E+03  0.93405880357E+02  0.16031434954E+03  0.00000000000E+00 0.  1.
         11    1    1    2    0    0 -0.29559028646E+02  0.13610826020E+01  0.53670190297E+02  0.61286850521E+02  0.00000000000E+00 0. -1.
</event>
<event>
 7    1  0.6473813E-006  0.1106743E+03  0.7561462E-02  0.1259326E+00
          1   -1    0    0  501    0  0.00000000000E+00  0.00000000000E+00  0.35638633497E+03  0.35638633497E+03  0.00000000000E+00 0. -1.
         -1   -1    0    0    0  501 -0.00000000000E+00 -0.00000000000E+00 -0.52795353656E+02  0.52795353656E+02  0.00000000000E+00 0.  1.
         23    2    1    2    0    0  0.43820248557E+02  0.37073420735E+02  0.80932204424E+02  0.15964930659E+03  0.12507288544E+03 0.  0.
          5    1    3    3  502    0  0.77927515328E+02  0.46580106988E+02  0.84139522647E+02  0.12385207178E+03  0.41800000000E+01 0.  1.
         -5    1    3    3    0  502 -0.34107266770E+02 -0.95066862530E+01 -0.32073182238E+01  0.35797234813E+02  0.41800000000E+01 0.  1.
        -11    1    1    2    0    0 -0.33180390035E+02 -0.60545030899E+02  0.20952742493E+03  0.22060911325E+03  0.00000000000E+00 0. -1.
         11    1    1    2    0    0 -0.10639858522E+02  0.23471610165E+02  0.13131351957E+02  0.28923268787E+02  0.00000000000E+00 0.  1.
</event>
<event>
 7    1  0.6473813E-006  0.4137422E+03  0.7561462E-02  0.1039122E+00
          1   -1    0    0  501    0  0.00000000000E+00  0.00000000000E+00  0.31911668062E+03  0.31911668062E+03  0.00000000000E+00 0. -1.
         -1   -1    0    0    0  501 -0.00000000000E+00 -0.00000000000E+00 -0.56179413225E+03  0.56179413225E+03  0.00000000000E+00 0.  1.
         23    2    1    2    0    0 -0.32440798826E+02 -0.40740023098E+03 -0.10422075431E+03  0.43992963403E+03  0.12509501841E+03 0.  0.
          5    1    3    3  502    0 -0.29232814633E+02 -0.33343476424E+03 -0.31746693010E+02  0.33624191347E+03  0.41800000000E+01 0.  1.
         -5    1    3    3    0  502 -0.32079841931E+01 -0.73965466739E+02 -0.72474061300E+02  0.10368772055E+03  0.41800000000E+01 0.  1.
        -11    1    1    2    0    0  0.60228002719E+02  0.34591412013E+03 -0.11947648990E+03  0.37088896243E+03  0.00000000000E+00 0.  1.
         11    1    1    2    0    0 -0.27787203893E+02  0.61486110855E+02 -0.18980207419E+02  0.70092216415E+02  0.00000000000E+00 0. -1.
</event>
<event>
 7    1  0.6473813E-006  0.1443596E+03  0.7561462E-02  0.1207580E+00
         -1   -1    0    0    0  501 -0.00000000000E+00  0.00000000000E+00  0.10271075668E+03  0.10271075668E+03  0.00000000000E+00 0. -1.
          1   -1    0    0  501    0  0.00000000000E+00 -0.00000000000E+00 -0.27493032090E+03  0.27493032090E+03  0.00000000000E+00 0.  1.
         23    2    1    2    0    0  0.11255896778E+03 -0.15260294591E+02 -0.24790435234E+02  0.17077478484E+03  0.12508822343E+03 0.  0.
          5    1    3    3  502    0  0.27320413167E+02  0.35107504969E+02 -0.51461901681E+02  0.68152341158E+02  0.41800000000E+01 0. -1.
         -5    1    3    3    0  502  0.85238554617E+02 -0.50367799560E+02  0.26671466447E+02  0.10262244369E+03  0.41800000000E+01 0. -1.
        -11    1    1    2    0    0  0.66474711868E+01  0.24492543707E+02 -0.29767203316E+02  0.39117259153E+02  0.00000000000E+00 0.  1.
         11    1    1    2    0    0 -0.11920643897E+03 -0.92322491166E+01 -0.11766192567E+03  0.16774903358E+03  0.00000000000E+00 0. -1.
</event>
<event>
 7    1  0.6473813E-006  0.1056634E+03  0.7561462E-02  0.1268818E+00
          1   -1    0    0  501    0  0.00000000000E+00  0.00000000000E+00  0.51493398464E+02  0.51493398464E+02  0.00000000000E+00 0. -1.
         -1   -1    0    0    0  501 -0.00000000000E+00 -0.00000000000E+00 -0.29512168890E+03  0.29512168890E+03  0.00000000000E+00 0.  1.
         23    2    1    2    0    0 -0.52857412962E+02  0.21639605309E+02 -0.15584411617E+03  0.20784006585E+03  0.12509166960E+03 0.  0.
          5    1    3    3  502    0  0.14092931008E+02  0.35568491182E+02 -0.12838685736E+03  0.13403128669E+03  0.41800000000E+01 0. -1.
         -5    1    3    3    0  502 -0.66950343970E+02 -0.13928885873E+02 -0.27457258814E+02  0.73808779159E+02  0.41800000000E+01 0. -1.
        -11    1    1    2    0    0  0.69621429791E+02  0.82000341357E+01 -0.73840342003E+02  0.10181738630E+03  0.00000000000E+00 0.  1.
         11    1    1    2    0    0 -0.16764016830E+02 -0.29839639445E+02 -0.13943832259E+02  0.36957635213E+02  0.00000000000E+00 0. -1.
</event>
<event>
 7    1  0.6473813E-006  0.1539683E+03  0.7561462E-02  0.1195680E+00
         -3   -1    0    0    0  501 -0.00000000000E+00  0.00000000000E+00  0.82864903243E+03  0.82864903243E+03  0.00000000000E+00 0.  1.
          3   -1    0    0  501    0  0.00000000000E+00 -0.00000000000E+00 -0.10888397275E+03  0.10888397275E+03  0.00000000000E+00 0. -1.
         23    2    1    2    0    0  0.33067218969E+02 -0.10440917990E+03  0.76869872303E+03  0.78647264927E+03  0.12508710340E+03 0.  0.
          5    1    3    3  502    0 -0.30043191684E+02  0.12888544049E+02  0.14593382862E+03  0.14960903272E+03  0.41800000000E+01 0. -1.
         -5    1    3    3    0  502  0.63110410654E+02 -0.11729772394E+03  0.62276489441E+03  0.63686361655E+03  0.41800000000E+01 0. -1.
        -11    1    1    2    0    0  0.22734479858E+01 -0.16034288884E+02  0.38118613333E+00  0.16199144688E+02  0.00000000000E+00 0.  1.
         11    1    1    2    0    0 -0.35340666955E+02  0.12044346878E+03 -0.49314849493E+02  0.13486121122E+03  0.00000000000E+00 0. -1.
</event>
<event>
 7    1  0.6473813E-006  0.8725541E+02  0.7561462E-02  0.1309638E+00
         -1   -1    0    0    0  501 -0.00000000000E+00  0.00000000000E+00  0.31077628228E+03  0.31077628228E+03  0.00000000000E+00 0.  1.
          1   -1    0    0  501    0  0.00000000000E+00 -0.00000000000E+00 -0.55688578347E+02  0.55688578347E+02  0.00000000000E+00 0. -1.
         23    2    1    2    0    0  0.32114896073E+01 -0.50470398359E+02  0.22086417057E+03  0.25881764110E+03  0.12509202502E+03 0.  0.
          5    1    3    3  502    0  0.40674634019E+02 -0.44305726592E+02  0.21089242824E+03  0.21934108587E+03  0.41800000000E+01 0.  1.
         -5    1    3    3    0  502 -0.37463144412E+02 -0.61646717675E+01  0.99717423284E+01  0.39476555223E+02  0.41800000000E+01 0.  1.
        -11    1    1    2    0    0 -0.26605464726E+02  0.84225923614E+01  0.49787411022E+02  0.57075188232E+02  0.00000000000E+00 0.  1.
         11    1    1    2    0    0  0.23393975119E+02  0.42047805998E+02 -0.15563877668E+02  0.50572031293E+02  0.00000000000E+00 0. -1.
</event>
<event>
 6    1  0.6473813E-006  0.9833064E+02  0.7561462E-02  0.1283846E+00
          2   -1    0    0  501    0  0.00000000000E+00  0.00000000000E+00  0.43348232106E+03  0.43348232106E+03  0.00000000000E+00 0. -1.
         -2   -1    0    0    0  501 -0.00000000000E+00 -0.00000000000E+00 -0.73464761052E+02  0.73464761052E+02  0.00000000000E+00 0.  1.
          5    1    1    2  502    0  0.21277389910E+02  0.47298557947E+01  0.79153968183E+02  0.82206580858E+02  0.41800000000E+01 0. -1.
         -5    1    1    2    0  502 -0.70774606407E+02 -0.17791921664E+02 -0.42762938934E+02  0.84686118903E+02  0.41800000000E+01 0.  1.
        -11    1    1    2    0    0  0.18657929628E+02 -0.37649157200E+02  0.17593598661E+03  0.18088407548E+03  0.00000000000E+00 0.  1.
         11    1    1    2    0    0  0.30839286869E+02  0.50711223069E+02  0.14769054415E+03  0.15917030688E+03  0.00000000000E+00 0. -1.
</event>
<event>
 7    1  0.6473813E-006  0.9684235E+02  0.7561462E-02  0.1287080E+00
         -2   -1    0    0    0  501 -0.00000000000E+00  0.00000000000E+00  0.82625938896E+03  0.82625938896E+03  0.00000000000E+00 0.  1.
          2   -1    0    0  501    0  0.00000000000E+00 -0.00000000000E+00 -0.14943299287E+02  0.14943299287E+02  0.00000000000E+00 0. -1.
         23    2    1    2    0    0 -0.24499501223E+02 -0.22271210970E+02  0.47626705835E+03  0.49353232138E+03  0.12509040323E+03 0.  0.
          5    1    3    3  502    0 -0.24851659048E+02  0.35756221800E+02  0.66127996620E+02  0.79287430857E+02  0.41800000000E+01 0. -1.
         -5    1    3    3    0  502  0.35215782464E+00 -0.58027432770E+02  0.41013906173E+03  0.41424489052E+03  0.41800000000E+01 0. -1.
        -11    1    1    2    0    0 -0.19373812508E+02  0.39997250887E+02  0.18864421058E+03  0.19380857276E+03  0.00000000000E+00 0.  1.
         11    1    1    2    0    0  0.43873313731E+02 -0.17726039917E+02  0.14640482074E+03  0.15386179410E+03  0.00000000000E+00 0. -1.
</event>
<event>
 7    1  0.6473813E-006  0.2808372E+03  0.7561462E-02  0.1095233E+00
          1   -1    0    0  501    0  0.00000000000E+00  0.00000000000E+00  0.17694006304E+04  0.17694006304E+04  0.00000000000E+00 0. -1.
         -1   -1    0    0    0  501 -0.00000000000E+00 -0.00000000000E+00 -0.47898518389E+02  0.47898518389E+02  0.00000000000E+00 0.  1.
         23    2    1    2    0    0 -0.20152015867E+03  0.18284253013E+03  0.80862516183E+03  0.86230127931E+03  0.12508828396E+03 0.  0.
          5    1    3    3  502    0 -0.20134564952E+03  0.15415487776E+03  0.59611596361E+03  0.64782367307E+03  0.41800000000E+01 0.  1.
         -5    1    3    3    0  502 -0.17450915282E+00  0.28687652364E+02  0.21250919822E+03  0.21447760624E+03  0.41800000000E+01 0.  1.
        -11    1    1    2    0    0  0.48466759298E+01 -0.28916186309E+02  0.69824015540E+02  0.75729975864E+02  0.00000000000E+00 0. -1.
         11    1    1    2    0    0  0.19667348274E+03 -0.15392634382E+03  0.84305293467E+03  0.87926789365E+03  0.00000000000E+00 0.  1.
</event>
<event>
 7    1  0.6473813E-006  0.1801743E+03  0.7561462E-02  0.1167634E+00
         -2   -1    0    0    0  501 -0.00000000000E+00  0.00000000000E+00  0.50607779305E+02  0.50607779305E+02  0.00000000000E+00 0.  1.
          2   -1    0    0  501    0  0.00000000000E+00 -0.00000000000E+00 -0.77106680912E+03  0.77106680912E+03  0.00000000000E+00 0. -1.
         23    2    1    2    0    0 -0.16664352501E+03 -0.24775372447E+01 -0.39038468276E+03  0.44251992942E+03  0.12508990679E+03 0.  0.
          5    1    3    3  502    0  0.78324229997E+01 -0.15856957747E+02 -0.43958913027E+01  0.18697224911E+02  0.41800000000E+01 0. -1.
         -5    1    3    3    0  502 -0.17447594801E+03  0.13379420502E+02 -0.38598879146E+03  0.42382270451E+03  0.41800000000E+01 0. -1.
        -11    1    1    2    0    0  0.11643661582E+03  0.75118468941E+01 -0.29627368456E+03  0.31842111976E+03  0.00000000000E+00 0. -1.
         11    1    1    2    0    0  0.50206909186E+02 -0.50343096494E+01 -0.33800662489E+02  0.60733539238E+02  0.00000000000E+00 0.  1.
</event>
<event>
 7    1  0.6473813E-006  0.6146221E+02  0.7561462E-02  0.1391796E+00
         -3   -1    0    0    0  501 -0.00000000000E+00  0.00000000000E+00  0.15063177191E+03  0.15063177191E+03  0.00000000000E+00 0.  1.
          3   -1    0    0  501    0  0.00000000000E+00 -0.00000000000E+00 -0.14785959735E+03  0.14785959735E+03  0.00000000000E+00 0. -1.
         23    2    1    2    0    0 -0.28682758977E+02  0.31671697430E+02  0.94089653115E+02  0.16225791030E+03  0.12509584146E+03 0.  0.
          5    1    3    3  502    0 -0.48751103297E+02  0.33800947998E+02  0.11711942062E+03  0.13135297958E+03  0.41800000000E+01 0. -1.
         -5    1    3    3    0  502  0.20068344320E+02 -0.21292505684E+01 -0.23029767501E+02  0.30904930721E+02  0.41800000000E+01 0. -1.
        -11    1    1    2    0    0  0.15395627790E+02 -0.14652905798E+02 -0.10729084564E+03  0.10937576771E+03  0.00000000000E+00 0. -1.
         11    1    1    2    0    0  0.13287131187E+02 -0.17018791632E+02  0.15973367083E+02  0.26857691259E+02  0.00000000000E+00 0.  1.
</event>
<event>
 7    1  0.6473813E-006  0.1193115E+03  0.7561462E-02  0.1244237E+00
          1   -1    0    0  501    0  0.00000000000E+00  0.00000000000E+00  0.53806664569E+03  0.53806664569E+03  0.00000000000E+00 0. -1.
         -1   -1    0    0    0  501 -0.00000000000E+00 -0.00000000000E+00 -0.27398591583E+02  0.27398591583E+02  0.00000000000E+00 0.  1.
         23    2    1    2    0    0  0.87219344935E+01 -0.57343423076E+02  0.27535852134E+03  0.30795179559E+03  0.12509057847E+03 0.  0.
          5    1    3    3  502    0  0.35373477183E+02  0.29479350922E+02  0.78327361478E+02  0.90955829802E+02  0.41800000000E+01 0.  1.
         -5    1    3    3    0  502 -0.26651542690E+02 -0.86822773998E+02  0.19703115986E+03  0.21699596579E+03  0.41800000000E+01 0.  1.
        -11    1    1    2    0    0  0.36957078617E+02  0.17657269514E+02  0.65577186916E+02  0.77317347797E+02  0.00000000000E+00 0.  1.
         11    1    1    2    0    0 -0.45679013111E+02  0.39686153562E+02  0.16973234585E+03  0.18019609388E+03  0.00000000000E+00 0. -1.
</event>
<event>
 7    1  0.6473813E-006  0.1430847E+03  0.7561462E-02  0.1209237E+00
         -2   -1    0    0    0  501 -0.00000000000E+00  0.00000000000E+00  0.18780350974E+03  0.18780350974E+03  0.00000000000E+00 0.  1.
          2   -1    0    0  501    0  0.00000000000E+00 -0.00000000000E+00 -0.16439643155E+03  0.16439643155E+03  0.00000000000E+00 0. -1.
         23    2    1    2    0    0 -0.11242794446E+02 -0.13159693780E+03  0.54173937419E+02  0.18981124891E+03  0.12509732312E+03 0.  0.
          5    1    3    3  502    0 -0.22956805717E+02 -0.11825691489E+03 -0.12034762671E+02  0.12113637258E+03  0.41800000000E+01 0. -1.
         -5    1    3    3    0  502  0.11714011272E+02 -0.13340022907E+02  0.66208700090E+02  0.68674876329E+02  0.41800000000E+01 0. -1.
        -11    1    1    2    0    0 -0.25404177175E+02  0.81200267687E+02 -0.48065553764E+02  0.97719768466E+02  0.00000000000E+00 0. -1.
         11    1    1    2    0    0  0.36646971621E+02  0.50396670113E+02  0.17298694539E+02  0.64668923914E+02  0.00000000000E+00 0.  1.
</event>
<event>
 7    1  0.6473813E-006  0.1129011E+03  0.7561462E-02  0.1255290E+00
         -2   -1    0    0    0  501 -0.00000000000E+00  0.00000000000E+00  0.97655932613E+02  0.97655932613E+02  0.00000000000E+00 0.  1.
          2   -1    0    0  501    0  0.00000000000E+00 -0.00000000000E+00 -0.16378229905E+03  0.16378229905E+03  0.00000000000E+00 0. -1.
         23    2    1    2    0    0  0.17373074831E+02  0.60440022794E+02 -0.22351038363E+02  0.14179095837E+03  0.12510110662E+03 0.  0.
          5    1    3    3  502    0 -0.36603266233E+02  0.20046813724E+01  0.29074233567E+02  0.46974475025E+02  0.41800000000E+01 0. -1.
         -5    1    3    3    0  502  0.53976341064E+02  0.58435341421E+02 -0.51425271930E+02  0.94816483349E+02  0.41800000000E+01 0. -1.
        -11    1    1    2    0    0 -0.49690894917E+02 -0.12173531909E+02 -0.89988621639E+01  0.51945735504E+02  0.00000000000E+00 0.  1.
         11    1    1    2    0    0  0.32317820086E+02 -0.48266490885E+02 -0.34776465914E+02  0.67701537788E+02  0.00000000000E+00 0. -1.
</event>
<event>
 7    1  0.6473813E-006  0.2657810E+03  0.7561462E-02  0.1103719E+00
          1   -1    0    0  501    0  0.00000000000E+00  0.00000000000E+00  0.90830942595E+03  0.90830942595E+03  0.00000000000E+00 0. -1.
         -1   -1    0    0    0  501 -0.00000000000E+00 -0.00000000000E+00 -0.11292900726E+03  0.11292900726E+03  0.00000000000E+00 0.  1.
         23    2    1    2    0    0 -0.24457163710E+03 -0.48314839676E+02  0.13609979114E+03  0.31035560439E+03  0.12509132113E+03 0.  0.
          5    1    3    3  502    0 -0.22089200918E+03 -0.81997279004E+02  0.10222199548E+03  0.25687281336E+03  0.41800000000E+01 0. -1.
         -5    1    3    3    0  502 -0.23679627916E+02  0.33682439329E+02  0.33877795659E+02  0.53482791028E+02  0.41800000000E+01 0. -1.
        -11    1    1    2    0    0  0.12562783749E+03  0.50901380677E+02  0.24663368291E+03  0.28142757088E+03  0.00000000000E+00 0.  1.
         11    1    1    2    0    0  0.11894379961E+03 -0.25865410008E+01  0.41264694464E+03  0.42945525795E+03  0.00000000000E+00 0. -1.
</event>
<event>
 7    1  0.6473813E-006  0.7506313E+02  0.7561462E-02  0.1343676E+00
         -2   -1    0    0    0  501 -0.00000000000E+00  0.00000000000E+00  0.67824810319E+03  0.67824810319E+03  0.00000000000E+00 0.  1.
          2   -1    0    0  501    0  0.00000000000E+00 -0.00000000000E+00 -0.10522106165E+02  0.10522106165E+02  0.00000000000E+00 0. -1.
         23    2    1    2    0    0  0.28651070999E+02 -0.78364998661E+01  0.60874542824E+03  0.62085039989E+03  0.11832974280E+03 0.  0.
          5    1    3    3  502    0  0.45932126186E+02 -0.53101571136E+02  0.28946747072E+03  0.29788995632E+03  0.41800000000E+01 0. -1.
         -5    1    3    3    0  502 -0.17281055187E+02  0.45265071270E+02  0.31927795752E+03  0.32296044356E+03  0.41800000000E+01 0.  1.
        -11    1    1    2    0    0 -0.18093498654E+02  0.13919211046E+00  0.20816558431E+02  0.27581210504E+02  0.00000000000E+00 0. -1.
         11    1    1    2    0    0 -0.10557572345E+02  0.76973077556E+01  0.38164010348E+02  0.40338598964E+02  0.00000000000E+00 0.  1.
</event>
<event>
 7    1  0.6473813E-006  0.1009290E+03  0.7561462E-02  0.1278354E+00
         -2   -1    0    0    0  501 -0.00000000000E+00  0.00000000000E+00  0.89837031976E+02  0.89837031976E+02  0.00000000000E+00 0.  1.
          2   -1    0    0  501    0  0.00000000000E+00 -0.00000000000E+00 -0.13313877393E+03  0.13313877393E+03  0.00000000000E+00 0. -1.
         23    2    1    2    0    0  0.12592550756E+02 -0.18967056369E+02 -0.30385413071E+02  0.13072849194E+03  0.12509334001E+03 0.  0.
          5    1    3    3  502    0 -0.25033821367E+02  0.36687935740E+02  0.17712937473E+02  0.47999139523E+02  0.41800000000E+01 0.  1.
         -5    1    3    3    0  502  0.37626372123E+02 -0.55654992109E+02 -0.48098350544E+02  0.82729352413E+02  0.41800000000E+01 0.  1.
        -11    1    1    2    0    0 -0.20478299346E+02 -0.32202702780E+02  0.24506384958E+01  0.38241083137E+02  0.00000000000E+00 0.  1.
         11    1    1    2    0    0  0.78857485898E+01  0.51169759149E+02 -0.15366967380E+02  0.54006230832E+02  0.00000000000E+00 0. -1.
</event>
<event>
 7    1  0.6473813E-006  0.6171901E+02  0.7561462E-02  0.1390756E+00
          1   -1    0    0  501    0  0.00000000000E+00  0.00000000000E+00  0.26206592641E+02  0.26206592641E+02  0.00000000000E+00 0. -1.
         -1   -1    0    0    0  501 -0.00000000000E+00 -0.00000000000E+00 -0.13684405966E+04  0.13684405966E+04  0.00000000000E+00 0.  1.
         23    2    1    2    0    0 -0.23719806875E+01  0.19435576030E+02 -0.12737434979E+04  0.12797101492E+04  0.12186960149E+03 0.  0.
          5    1    3    3  502    0 -0.24213862532E+02  0.89037437106E+01 -0.56871039548E+02  0.62588939358E+02  0.41800000000E+01 0. -1.
         -5    1    3    3    0  502  0.21841881845E+02  0.10531832319E+02 -0.12168724583E+04  0.12171212099E+04  0.41800000000E+01 0.  1.
        -11    1    1    2    0    0  0.35926179322E+02 -0.54197596968E+01 -0.69647647014E+02  0.78554814559E+02  0.00000000000E+00 0.  1.
         11    1    1    2    0    0 -0.33554198634E+02 -0.14015816333E+02  0.11571409292E+01  0.36382225449E+02  0.00000000000E+00 0. -1.
</event>
<event>
 7    1  0.6473813E-006  0.9117464E+02  0.7561462E-02  0.1300032E+00
         -1   -1    0    0    0  501 -0.00000000000E+00  0.00000000000E+00  0.14678612043E+03  0.14678612043E+03  0.00000000000E+00 0.  1.
          1   -1    0    0  501    0  0.00000000000E+00 -0.00000000000E+00 -0.84117077733E+02  0.84117077733E+02  0.00000000000E+00 0. -1.
         23    2    1    2    0    0  0.15831785879E+02  0.22711601588E+02  0.36921435053E+02  0.13333044463E+03  0.12508937927E+03 0.  0.
          5    1    3    3  502    0 -0.51714405459E+02  0.21441367325E+02  0.33889996678E+02  0.65575271556E+02  0.41800000000E+01 0.  1.
         -5    1    3    3    0  502  0.67546191338E+02  0.12702342629E+01  0.30314383743E+01  0.67755173072E+02  0.41800000000E+01 0.  1.
        -11    1    1    2    0    0  0.18685926334E+02 -0.12662695041E+02  0.49555060704E+02  0.54453757722E+02  0.00000000000E+00 0.  1.
         11    1    1    2    0    0 -0.34517712213E+02 -0.10048906547E+02 -0.23807453057E+02  0.43118995817E+02  0.00000000000E+00 0. -1.
</event>
<event>
 7    1  0.1118589E-005  0.1946014E+03  0.7561462E-02  0.1154375E+00
          1   -1    0    0  501    0  0.00000000000E+00  0.00000000000E+00  0.80029384065E+03  0.80029384065E+03  0.00000000000E+00 0. -1.
         -1   -1    0    0    0  501 -0.00000000000E+00 -0.00000000000E+00 -0.57311631231E+02  0.57311631231E+02  0.00000000000E+00 0.  1.
         23    2    1    2    0    0 -0.16948091315E+03 -0.11943961014E+02  0.24329845453E+03  0.32203723174E+03  0.12508957799E+03 0.  0.
          5    1    3    3  502    0 -0.16358899640E+03  0.24213579236E+02  0.15645891815E+03  0.22769392313E+03  0.41800000000E+01 0.  1.
         -5    1    3    3    0  502 -0.58919167476E+01 -0.36157540250E+02  0.86839536381E+02  0.94343308606E+02  0.41800000000E+01 0.  1.
        -11    1    1    2    0    0  0.66599018703E+02 -0.33365354817E+02  0.26628154511E+03  0.27650413643E+03  0.00000000000E+00 0.  1.
         11    1    1    2    0    0  0.10288189444E+03  0.45309315831E+02  0.23340220978E+03  0.25906410372E+03  0.00000000000E+00 0. -1.
</event>
<event>
 7    1  0.6473813E-006  0.2307648E+03  0.7561462E-02  0.1126103E+00
          2   -1    0    0  501    0  0.00000000000E+00  0.00000000000E+00  0.19094318751E+03  0.19094318751E+03  0.00000000000E+00 0.  1.
         -2   -1    0    0    0  501 -0.00000000000E+00 -0.00000000000E+00 -0.30818769659E+03  0.30818769659E+03  0.00000000000E+00 0. -1.
         23    2    1    2    0    0  0.15490349893E+03 -0.15141509120E+03 -0.63753568000E+02  0.25814953927E+03  0.12512011577E+03 0.  0.
          5    1    3    3  502    0  0.14147460280E+03 -0.16941634673E+03 -0.38489629285E+02  0.22408901298E+03  0.41800000000E+01 0. -1.
         -5    1    3    3    0  502  0.13428896130E+02  0.18001255531E+02 -0.25263938715E+02  0.34060526293E+02  0.41800000000E+01 0. -1.
        -11    1    1    2    0    0 -0.40122956207E+02  0.54666897715E+02  0.24140913030E+02  0.71979893043E+02  0.00000000000E+00 0.  1.
         11    1    1    2    0    0 -0.11478054272E+03  0.96748193481E+02 -0.77631854110E+02  0.16900145178E+03  0.00000000000E+00 0. -1.
</event>
<event>
 7    1  0.6473813E-006  0.1080491E+03  0.7561462E-02  0.1264226E+00
          1   -1    0    0  501    0  0.00000000000E+00  0.00000000000E+00  0.19729337428E+02  0.19729337428E+02  0.00000000000E+00 0. -1.
         -1   -1    0    0    0  501 -0.00000000000E+00 -0.00000000000E+00 -0.85439980472E+03  0.85439980472E+03  0.00000000000E+00 0.  1.
         23    2    1    2    0    0 -0.40617953187E+02 -0.47288824229E+02 -0.56771047178E+03  0.58466038179E+03  0.12508609531E+03 0.  0.
          5    1    3    3  502    0 -0.33937896540E+01 -0.79667574681E+02 -0.44889152313E+03  0.45593805742E+03  0.41800000000E+01 0.  1.
         -5    1    3    3    0  502 -0.37224163533E+02  0.32378750452E+02 -0.11881894865E+03  0.12872232437E+03  0.41800000000E+01 0.  1.
        -11    1    1    2    0    0  0.39969352892E+02  0.52983707691E+00 -0.21849483382E+03  0.22212118832E+03  0.00000000000E+00 0.  1.
         11    1    1    2    0    0  0.64860029439E+00  0.46758987152E+02 -0.48465161695E+02  0.67347572042E+02  0.00000000000E+00 0. -1.
</event>
<event>
 7    1  0.6473813E-006  0.1154212E+03  0.7561462E-02  0.1250848E+00
         -1   -1    0    0    0  501 -0.00000000000E+00  0.00000000000E+00  0.13162883231E+03  0.13162883231E+03  0.00000000000E+00 0.  1.
          1   -1    0    0  501    0  0.00000000000E+00 -0.00000000000E+00 -0.21606503383E+03  0.21606503383E+03  0.00000000000E+00 0. -1.
         23    2    1    2    0    0  0.83849840341E+02 -0.31292956351E+02  0.50124930812E+02  0.16177189921E+03  0.12509034273E+03 0.  0.
          5    1    3    3  502    0  0.80415134422E+02 -0.67108542976E+02  0.64190640408E+02  0.12291485305E+03  0.41800000000E+01 0.  1.
         -5    1    3    3    0  502  0.34347059193E+01  0.35815586625E+02 -0.14065709596E+02  0.38857046163E+02  0.41800000000E+01 0.  1.
        -11    1    1    2    0    0 -0.30344100237E+02  0.75967843674E+01  0.75976713609E+01  0.32190063095E+02  0.00000000000E+00 0.  1.
         11    1    1    2    0    0 -0.53505740104E+02  0.23696171984E+02 -0.14215880369E+03  0.15373190384E+03  0.00000000000E+00 0. -1.
</event>
<event>
 7    1  0.6473813E-006  0.1627316E+03  0.7561462E-02  0.1185647E+00
          2   -1    0    0  501    0  0.00000000000E+00  0.00000000000E+00  0.86300595471E+03  0.86300595471E+03  0.00000000000E+00 0. -1.
         -2   -1    0    0    0  501 -0.00000000000E+00 -0.00000000000E+00 -0.45033344719E+02  0.45033344719E+02  0.00000000000E+00 0.  1.
         23    2    1    2    0    0  0.39699066723E+02 -0.13643749960E+03  0.24614665948E+03  0.31052668318E+03  0.12508971100E+03 0.  0.
          5    1    3    3  502    0  0.72248456502E+02 -0.60016183858E+02  0.75092964568E+02  0.12032542341E+03  0.41800000000E+01 0.  1.
         -5    1    3    3    0  502 -0.32549389779E+02 -0.76421315745E+02  0.17105369491E+03  0.19020125977E+03  0.41800000000E+01 0.  1.
        -11    1    1    2    0    0 -0.39534591381E+02  0.60092102715E+02  0.12506249477E+03  0.14427290917E+03  0.00000000000E+00 0.  1.
         11    1    1    2    0    0 -0.16447534191E+00  0.76345396888E+02  0.44676345575E+03  0.45323970707E+03  0.00000000000E+00 0. -1.
</event>
<event>
 7    1  0.6473813E-006  0.1079126E+03  0.7561462E-02  0.1264485E+00
         -1   -1    0    0    0  501 -0.00000000000E+00  0.00000000000E+00  0.97292830994E+02  0.97292830994E+02  0.00000000000E+00 0.  1.
          1   -1    0    0  501    0  0.00000000000E+00 -0.00000000000E+00 -0.18556491920E+03  0.18556491920E+03  0.00000000000E+00 0. -1.
         23    2    1    2    0    0 -0.61964937320E+02 -0.14921705841E+02  0.30111217946E+01  0.14041210986E+03  0.12507670837E+03 0.  0.
          5    1    3    3  502    0 -0.82266436178E+02 -0.44450189813E+02 -0.22450148161E+02  0.96255220369E+02  0.41800000000E+01 0. -1.
         -5    1    3    3    0  502  0.20301498858E+02  0.29528483972E+02  0.25461269955E+02  0.44156889488E+02  0.41800000000E+01 0. -1.
        -11    1    1    2    0    0  0.72616572618E+02  0.71614490178E+01 -0.28569875704E+02  0.78362559737E+02  0.00000000000E+00 0.  1.
         11    1    1    2    0    0 -0.10651635298E+02  0.77602568236E+01 -0.62713334298E+02  0.64083080601E+02  0.00000000000E+00 0. -1.
</event>
<event>
 7    1  0.6473813E-006  0.1118588E+03  0.7561462E-02  0.1257166E+00
          1   -1    0    0  501    0  0.00000000000E+00  0.00000000000E+00  0.11846737652E+03  0.11846737652E+03  0.00000000000E+00 0. -1.
         -1   -1    0    0    0  501 -0.00000000000E+00 -0.00000000000E+00 -0.15469120990E+03  0.15469120990E+03  0.00000000000E+00 0.  1.
         23    2    1    2    0    0  0.25007187779E+02 -0.57350479795E+02 -0.73627899803E+02  0.15807358205E+03  0.12510696519E+03 0.  0.
          5    1    3    3  502    0  0.50792043058E+02 -0.70086102063E+02 -0.89818728260E+02  0.12480692964E+03  0.41800000000E+01 0. -1.
         -5    1    3    3    0  502 -0.25784855278E+02  0.12735622268E+02  0.16190828457E+02  0.33266652408E+02  0.41800000000E+01 0. -1.
        -11    1    1    2    0    0  0.19392015936E+02  0.60458557117E+02  0.14926848199E+02  0.65223448298E+02  0.00000000000E+00 0.  1.
         11    1    1    2    0    0 -0.44399203715E+02 -0.31080773221E+01  0.22477218227E+02  0.49861556077E+02  0.00000000000E+00 0. -1.
</event>
<event>
 7    1  0.6473813E-006  0.9263821E+02  0.7561462E-02  0.1296586E+00
          1   -1    0    0  501    0  0.00000000000E+00  0.00000000000E+00  0.25350394382E+03  0.25350394382E+03  0.00000000000E+00 0. -1.
         -1   -1    0    0    0  501 -0.00000000000E+00 -0.00000000000E+00 -0.10376740946E+03  0.10376740946E+03  0.00000000000E+00 0.  1.
         23    2    1    2    0    0 -0.87143618341E+02  0.11786188542E+02 -0.10555093145E+02  0.15327038043E+03  0.12508986796E+03 0.  0.
          5    1    3    3  502    0 -0.77145335695E+02  0.23488509836E+02  0.47077709185E+02  0.93471364684E+02  0.41800000000E+01 0.  1.
         -5    1    3    3    0  502 -0.99982826467E+01 -0.11702321294E+02 -0.57632802329E+02  0.59799015743E+02  0.41800000000E+01 0.  1.
        -11    1    1    2    0    0  0.48808918225E+02 -0.11914147839E+02  0.15777738617E+03  0.16558369788E+03  0.00000000000E+00 0. -1.
         11    1    1    2    0    0  0.38334700117E+02  0.12795929690E+00  0.25142413366E+01  0.38417274970E+02  0.00000000000E+00 0.  1.
</event>
<event>
 7    1  0.6473813E-006  0.1527770E+03  0.7561462E-02  0.1197102E+00
          1   -1    0    0  501    0  0.00000000000E+00  0.00000000000E+00  0.29945254144E+03  0.29945254144E+03  0.00000000000E+00 0. -1.
         -1   -1    0    0    0  501 -0.00000000000E+00 -0.00000000000E+00 -0.86241622290E+02  0.86241622290E+02  0.00000000000E+00 0.  1.
         23    2    1    2    0    0  0.62669583293E+02  0.96223569903E+02  0.80550609169E+02  0.18794103468E+03  0.12508788832E+03 0.  0.
          5    1    3    3  502    0 -0.32792707614E+02  0.33879551261E+02  0.52022937608E+02  0.70335226620E+02  0.41800000000E+01 0. -1.
         -5    1    3    3    0  502  0.95462290907E+02  0.62344018641E+02  0.28527671561E+02  0.11760580806E+03  0.41800000000E+01 0. -1.
        -11    1    1    2    0    0 -0.17759407171E+02 -0.97591243874E+02  0.73461935080E+02  0.12343461155E+03  0.00000000000E+00 0.  1.
         11    1    1    2    0    0 -0.44910176122E+02  0.13676739712E+01  0.59198374902E+02  0.74318517494E+02  0.00000000000E+00 0. -1.
</event>
<event>
 7    1  0.6473813E-006  0.1372464E+03  0.7561462E-02  0.1217083E+00
          1   -1    0    0  501    0  0.00000000000E+00  0.00000000000E+00  0.96771690858E+02  0.96771690858E+02  0.00000000000E+00 0. -1.
         -1   -1    0    0    0  501 -0.00000000000E+00 -0.00000000000E+00 -0.23273202147E+03  0.23273202147E+03  0.00000000000E+00 0.  1.
         23    2    1    2    0    0 -0.34060776992E+02 -0.88915824446E+02 -0.11878884777E+03  0.19706371836E+03  0.12512856737E+03 0.  0.
          5    1    3    3  502    0 -0.73040561494E+02 -0.70328495899E+02 -0.44017947171E+02  0.11061678459E+03  0.41800000000E+01 0.  1.
         -5    1    3    3    0  502  0.38979784503E+02 -0.18587328547E+02 -0.74770900601E+02  0.86446933775E+02  0.41800000000E+01 0.  1.
        -11    1    1    2    0    0  0.16805933883E+02  0.10481977898E+03 -0.56780496355E+01  0.10631023340E+03  0.00000000000E+00 0. -1.
         11    1    1    2    0    0  0.17254843109E+02 -0.15903954531E+02 -0.11493433205E+02  0.26129760567E+02  0.00000000000E+00 0.  1.
</event>
<event>
 7    1  0.6473813E-006  0.1128711E+03  0.7561462E-02  0.1255344E+00
         -1   -1    0    0    0  501 -0.00000000000E+00  0.00000000000E+00  0.22700013706E+03  0.22700013706E+03  0.00000000000E+00 0.  1.
          1   -1    0    0  501    0  0.00000000000E+00 -0.00000000000E+00 -0.81077520707E+02  0.81077520707E+02  0.00000000000E+00 0. -1.
         23    2    1    2    0    0 -0.67866551032E+02  0.12101653370E+02  0.12519241704E+03  0.18992344767E+03  0.12508179695E+03 0.  0.
          5    1    3    3  502    0 -0.69910566847E+02 -0.23616376464E+02  0.16927304033E+02  0.75823654726E+02  0.41800000000E+01 0. -1.
         -5    1    3    3    0  502  0.20440158153E+01  0.35718029834E+02  0.10826511301E+03  0.11409979295E+03  0.41800000000E+01 0. -1.
        -11    1    1    2    0    0 -0.85343769846E+01 -0.35022494990E+02  0.13705827698E+01  0.36073386907E+02  0.00000000000E+00 0. -1.
         11    1    1    2    0    0  0.76400928017E+02  0.22920841620E+02  0.19359616543E+02  0.82080823187E+02  0.00000000000E+00 0.  1.
</event>
<event>
 7    1  0.6473813E-006  0.1805076E+03  0.7561462E-02  0.1167313E+00
         -2   -1    0    0    0  501 -0.00000000000E+00  0.00000000000E+00  0.72289173945E+02  0.72289173945E+02  0.00000000000E+00 0. -1.
          2   -1    0    0  501    0  0.00000000000E+00 -0.00000000000E+00 -0.59380141997E+03  0.59380141997E+03  0.00000000000E+00 0.  1.
         23    2    1    2    0    0  0.12871285297E+03 -0.11858446506E+03 -0.24338850547E+03  0.32483141279E+03  0.12509279864E+03 0.  0.
          5    1    3    3  502    0  0.38846747496E+02 -0.53926365101E+02 -0.19100951665E+03  0.20228502291E+03  0.41800000000E+01 0.  1.
         -5    1    3    3    0  502  0.89866105475E+02 -0.64658099964E+02 -0.52378988819E+02  0.12254638989E+03  0.41800000000E+01 0.  1.
        -11    1    1    2    0    0 -0.61552385331E+01  0.34405218820E+02 -0.11658441597E+03  0.12171085445E+03  0.00000000000E+00 0.  1.
         11    1    1    2    0    0 -0.12255761444E+03  0.84179246245E+02 -0.16153932458E+03  0.21954832667E+03  0.00000000000E+00 0. -1.
</event>
<event>
 7    1  0.6473813E-006  0.1566431E+03  0.7561462E-02  0.1192540E+00
          2   -1    0    0  501    0  0.00000000000E+00  0.00000000000E+00  0.10640034197E+04  0.10640034197E+04  0.00000000000E+00 0. -1.
         -2   -1    0    0    0  501 -0.00000000000E+00 -0.00000000000E+00 -0.25405791557E+02  0.25405791557E+02  0.00000000000E+00 0.  1.
         23    2    1    2    0    0  0.19692466219E+02 -0.11949499484E+03  0.62949076707E+03  0.65312550320E+03  0.12508976810E+03 0.  0.
          5    1    3    3  502    0  0.52086041947E+02 -0.12195637365E+03  0.40301547682E+03  0.42429383662E+03  0.41800000000E+01 0.  1.
         -5    1    3    3    0  502 -0.32393575728E+02  0.24613788084E+01  0.22647529025E+03  0.22883166658E+03  0.41800000000E+01 0.  1.
        -11    1    1    2    0    0 -0.50056836053E+02  0.44629008633E+02  0.13863072557E+03  0.15399971857E+03  0.00000000000E+00 0. -1.
         11    1    1    2    0    0  0.30364369834E+02  0.74865986206E+02  0.27047613548E+03  0.28228398947E+03  0.00000000000E+00 0.  1.
</event>
<event>
 7    1  0.6473813E-006  0.1314344E+03  0.7561462E-02  0.1225343E+00
          2   -1    0    0  501    0  0.00000000000E+00  0.00000000000E+00  0.14326745745E+03  0.14326745745E+03  0.00000000000E+00 0. -1.
         -2   -1    0    0    0  501 -0.00000000000E+00 -0.00000000000E+00 -0.17297076555E+03  0.17297076555E+03  0.00000000000E+00 0.  1.
         23    2    1    2    0    0 -0.98320933741E+02  0.17388941734E+02 -0.72866029785E+02  0.17584992778E+03  0.12507740602E+03 0.  0.
          5    1    3    3  502    0 -0.24956566385E+02 -0.46687857535E+02  0.16623766511E+01  0.53130237559E+02  0.41800000000E+01 0.  1.
         -5    1    3    3    0  502 -0.73364367356E+02  0.64076799269E+02 -0.74528406436E+02  0.12271969022E+03  0.41800000000E+01 0.  1.
        -11    1    1    2    0    0  0.69025738860E+01  0.14001268341E+02  0.40819394252E+02  0.43702448313E+02  0.00000000000E+00 0. -1.
         11    1    1    2    0    0  0.91418359855E+02 -0.31390210075E+02  0.23433274321E+01  0.96685846899E+02  0.00000000000E+00 0.  1.
</event>
<event>
 7    1  0.6473813E-006  0.9698143E+02  0.7561462E-02  0.1286775E+00
          3   -1    0    0  501    0  0.00000000000E+00  0.00000000000E+00  0.10184642201E+03  0.10184642201E+03  0.00000000000E+00 0. -1.
         -3   -1    0    0    0  501 -0.00000000000E+00 -0.00000000000E+00 -0.15465948665E+03  0.15465948665E+03  0.00000000000E+00 0.  1.
         23    2    1    2    0    0 -0.37240476666E+02  0.46771716017E+02 -0.54371878886E+02  0.14892451417E+03  0.12509101961E+03 0.  0.
          5    1    3    3  502    0  0.68941394340E+01  0.46265814699E+02  0.28503113212E+02  0.54935913855E+02  0.41800000000E+01 0. -1.
         -5    1    3    3    0  502 -0.44134616100E+02  0.50590131768E+00 -0.82874992098E+02  0.93988600318E+02  0.41800000000E+01 0. -1.
        -11    1    1    2    0    0 -0.17710922013E+02 -0.44241862663E+02 -0.15292199595E+02  0.50048681690E+02  0.00000000000E+00 0. -1.
         11    1    1    2    0    0  0.54951398678E+02 -0.25298533534E+01  0.16851013837E+02  0.57532712799E+02  0.00000000000E+00 0.  1.
</event>
<event>
 7    1  0.6473813E-006  0.1571517E+03  0.7561462E-02  0.1191951E+00
          1   -1    0    0  501    0  0.00000000000E+00  0.00000000000E+00  0.12119055876E+03  0.12119055876E+03  0.00000000000E+00 0. -1.
         -1   -1    0    0    0  501 -0.00000000000E+00 -0.00000000000E+00 -0.26567747301E+03  0.26567747301E+03  0.00000000000E+00 0.  1.
         23    2    1    2    0    0 -0.47384406025E+01 -0.14085204617E+03 -0.52183212910E+02  0.19553091180E+03  0.12508995975E+03 0.  0.
          5    1    3    3  502    0  0.17117879219E+02 -0.45491970671E+01  0.29804095235E+02  0.34920960407E+02  0.41800000000E+01 0. -1.
         -5    1    3    3    0  502 -0.21856319821E+02 -0.13630284910E+03 -0.81987308146E+02  0.16060995140E+03  0.41800000000E+01 0. -1.
        -11    1    1    2    0    0 -0.30761378288E+02  0.95930926542E+02 -0.88265938408E+02  0.13393984077E+03  0.00000000000E+00 0. -1.
         11    1    1    2    0    0  0.35499818891E+02  0.44921119630E+02 -0.40377629242E+01  0.57397279200E+02  0.00000000000E+00 0.  1.
</event>
<event>
 7    1  0.6473813E-006  0.1281018E+03  0.7561462E-02  0.1230300E+00
          2   -1    0    0  501    0  0.00000000000E+00  0.00000000000E+00  0.50208681457E+03  0.50208681457E+03  0.00000000000E+00 0. -1.
         -2   -1    0    0    0  501 -0.00000000000E+00 -0.00000000000E+00 -0.53304432051E+02  0.53304432051E+02  0.00000000000E+00 0.  1.
         23    2    1    2    0    0  0.28292768331E+02 -0.24682256035E+02  0.67717327230E+02  0.14711498285E+03  0.12508991674E+03 0.  0.
          5    1    3    3  502    0  0.69902443335E+02 -0.26631707430E+02  0.96641275984E+01  0.75541162203E+02  0.41800000000E+01 0.  1.
         -5    1    3    3    0  502 -0.41609675004E+02  0.19494513954E+01  0.58053199632E+02  0.71573820648E+02  0.41800000000E+01 0.  1.
        -11    1    1    2    0    0  0.53344050399E+02 -0.24244868301E+01  0.21154449820E+03  0.21818006455E+03  0.00000000000E+00 0. -1.
         11    1    1    2    0    0 -0.81636818730E+02  0.27106742865E+02  0.16952055709E+03  0.19009619922E+03  0.00000000000E+00 0.  1.
</event>
<event>
 6    1  0.6473813E-006  0.1185911E+03  0.7561462E-02  0.1245440E+00
          4   -1    0    0  501    0  0.00000000000E+00  0.00000000000E+00  0.16895150795E+03  0.16895150795E+03  0.00000000000E+00 0. -1.
         -4   -1    0    0    0  501 -0.00000000000E+00 -0.00000000000E+00 -0.17981966372E+03  0.17981966372E+03  0.00000000000E+00 0.  1.
          5    1    1    2  502    0  0.38146783829E+02  0.73566846619E+02  0.49164164877E+02  0.96446075846E+02  0.41800000000E+01 0. -1.
         -5    1    1    2    0  502 -0.11081150779E+02 -0.71769188072E+02 -0.12733846992E+03  0.14664980934E+03  0.41800000000E+01 0.  1.
        -11    1    1    2    0    0  0.22824367610E+02  0.16676350014E+02  0.23547866657E+02  0.36790684021E+02  0.00000000000E+00 0. -1.
         11    1    1    2    0    0 -0.49890000660E+02 -0.18474008562E+02  0.43758282615E+02  0.68884602457E+02  0.00000000000E+00 0.  1.
</event>
<event>
 7    1  0.6473813E-006  0.1020543E+03  0.7561462E-02  0.1276034E+00
         -1   -1    0    0    0  501 -0.00000000000E+00  0.00000000000E+00  0.28824942365E+02  0.28824942365E+02  0.00000000000E+00 0.  1.
          1   -1    0    0  501    0  0.00000000000E+00 -0.00000000000E+00 -0.53239366496E+03  0.53239366496E+03  0.00000000000E+00 0. -1.
         23    2    1    2    0    0 -0.40658756134E+02 -0.41566893466E+02 -0.23886524769E+03  0.27583544657E+03  0.12509055100E+03 0.  0.
          5    1    3    3  502    0 -0.28456892561E+02 -0.79349589580E+02 -0.97577728854E+02  0.12901564893E+03  0.41800000000E+01 0.  1.
         -5    1    3    3    0  502 -0.12201863573E+02  0.37782696114E+02 -0.14128751884E+03  0.14681979764E+03  0.41800000000E+01 0.  1.
        -11    1    1    2    0    0  0.65600959475E-01  0.39116425881E+02 -0.36224886838E+02  0.53313614618E+02  0.00000000000E+00 0.  1.
         11    1    1    2    0    0  0.40593155175E+02  0.24504675858E+01 -0.22847858807E+03  0.23206954614E+03  0.00000000000E+00 0. -1.
</event>
<event>
 7    1  0.6473813E-006  0.1227963E+03  0.7561462E-02  0.1238554E+00
         -1   -1    0    0    0  501 -0.00000000000E+00  0.00000000000E+00  0.60000958974E+02  0.60000958974E+02  0.00000000000E+00 0.  1.
          1   -1    0    0  501    0  0.00000000000E+00 -0.00000000000E+00 -0.27257821879E+03  0.27257821879E+03  0.00000000000E+00 0. -1.
         23    2    1    2    0    0 -0.16000368359E+02  0.64114134576E+02 -0.10294110209E+03  0.17495462532E+03  0.12508243834E+03 0.  0.
          5    1    3    3  502    0  0.32927766304E+02 -0.17919840591E+02 -0.49418912106E+01  0.38042780778E+02  0.41800000000E+01 0.  1.
         -5    1    3    3    0  502 -0.48928134663E+02  0.82033975167E+02 -0.97999210877E+02  0.13691184454E+03  0.41800000000E+01 0.  1.
        -11    1    1    2    0    0 -0.37487048840E+02 -0.35381293138E+02 -0.60760205081E+02  0.79680093225E+02  0.00000000000E+00 0. -1.
         11    1    1    2    0    0  0.53487417199E+02 -0.28732841438E+02 -0.48875952645E+02  0.77944459217E+02  0.00000000000E+00 0.  1.
</event>
<event>
 7    1  0.6473813E-006  0.2031077E+03  0.7561462E-02  0.1147143E+00
         -1   -1    0    0    0  501 -0.00000000000E+00  0.00000000000E+00  0.83815220937E+02  0.83815220937E+02  0.00000000000E+00 0.  1.
          1   -1    0    0  501    0  0.00000000000E+00 -0.00000000000E+00 -0.52014381470E+03  0.52014381470E+03  0.00000000000E+00 0. -1.
         23    2    1    2    0    0  0.12313908699E+03  0.12847122739E+03 -0.23602156733E+03  0.32096683144E+03  0.12508171581E+03 0.  0.
          5    1    3    3  502    0  0.22687314562E+02  0.10086573447E+03 -0.70005203435E+02  0.12492722498E+03  0.41800000000E+01 0. -1.
         -5    1    3    3    0  502  0.10045177243E+03  0.27605492924E+02 -0.16601636389E+03  0.19603960646E+03  0.41800000000E+01 0. -1.
        -11    1    1    2    0    0 -0.10429506663E+03 -0.14134883390E+03 -0.18702967195E+03  0.25658731839E+03  0.00000000000E+00 0.  1.
         11    1    1    2    0    0 -0.18844020355E+02  0.12877606503E+02 -0.13277354486E+02  0.26404885808E+02  0.00000000000E+00 0. -1.
</event>
<event>
 7    1  0.6473813E-006  0.1682958E+03  0.7561462E-02  0.1179637E+00
          2   -1    0    0  501    0  0.00000000000E+00  0.00000000000E+00  0.32501178867E+03  0.32501178867E+03  0.00000000000E+00 0. -1.
         -2   -1    0    0    0  501 -0.00000000000E+00 -0.00000000000E+00 -0.12446708744E+03  0.12446708744E+03  0.00000000000E+00 0.  1.
         23    2    1    2    0    0 -0.84319291053E+01  0.15967572791E+03  0.43351801794E+02  0.20759139849E+03  0.12508946597E+03 0.  0.
          5    1    3    3  502    0 -0.25867136878E+02  0.13009747421E+03 -0.21165791848E+02  0.13438721930E+03  0.41800000000E+01 0.  1.
         -5    1    3    3    0  502  0.17435207772E+02  0.29578253699E+02  0.64517593641E+02  0.73204179192E+02  0.41800000000E+01 0.  1.
        -11    1    1    2    0    0 -0.23626506858E+02 -0.56163872964E+02  0.10548952859E+03  0.12182213713E+03  0.00000000000E+00 0. -1.
         11    1    1    2    0    0  0.32058435964E+02 -0.10351185494E+03  0.51703370847E+02  0.12006534049E+03  0.00000000000E+00 0.  1.
</event>
<event>
 7    1  0.7275687E-006  0.1472646E+03  0.7561462E-02  0.1203875E+00
         -3   -1    0    0    0  501 -0.00000000000E+00  0.00000000000E+00  0.70657323331E+02  0.70657323331E+02  0.00000000000E+00 0.  1.
          3   -1    0    0  501    0  0.00000000000E+00 -0.00000000000E+00 -0.41934946185E+03  0.41934946185E+03  0.00000000000E+00 0. -1.
         23    2    1    2    0    0 -0.12034553194E+03 -0.45910595331E+02 -0.14313059400E+03  0.22961806542E+03  0.12508900514E+03 0.  0.
          5    1    3    3  502    0 -0.61892635375E+01  0.22145593450E+02  0.11191268869E+02  0.25912375254E+02  0.41800000000E+01 0. -1.
         -5    1    3    3    0  502 -0.11415626840E+03 -0.68056188781E+02 -0.15432186287E+03  0.20370569017E+03  0.41800000000E+01 0. -1.
        -11    1    1    2    0    0  0.42615068473E+02  0.42797997124E+02 -0.28075841159E+02  0.66603044041E+02  0.00000000000E+00 0.  1.
         11    1    1    2    0    0  0.77730463463E+02  0.31125982072E+01 -0.17748570336E+03  0.19378567572E+03  0.00000000000E+00 0. -1.
</event>
<event>
 7    1  0.6473813E-006  0.9737976E+02  0.7561462E-02  0.1285904E+00
         -3   -1    0    0    0  501 -0.00000000000E+00  0.00000000000E+00  0.28797444797E+03  0.28797444797E+03  0.00000000000E+00 0.  1.
          3   -1    0    0  501    0  0.00000000000E+00 -0.00000000000E+00 -0.43118533909E+02  0.43118533909E+02  0.00000000000E+00 0. -1.
         23    2    1    2    0    0 -0.15235839040E+01 -0.39734914832E+02  0.15521266886E+03  0.20327202859E+03  0.12508940909E+03 0.  0.
          5    1    3    3  502    0  0.41556141953E+02  0.41927026522E+01  0.67553597684E+01  0.42515867334E+02  0.41800000000E+01 0. -1.
         -5    1    3    3    0  502 -0.43079725857E+02 -0.43927617485E+02  0.14845730909E+03  0.16075616125E+03  0.41800000000E+01 0. -1.
        -11    1    1    2    0    0  0.39827777211E+02  0.64028279394E+01  0.39342380638E+02  0.56347767990E+02  0.00000000000E+00 0.  1.
         11    1    1    2    0    0 -0.38304193307E+02  0.33332086893E+02  0.50300864562E+02  0.71473185302E+02  0.00000000000E+00 0. -1.
</event>
<event>
 7    1  0.6473813E-006  0.1093434E+03  0.7561462E-02  0.1261791E+00
         -2   -1    0    0    0  501 -0.00000000000E+00  0.00000000000E+00  0.23862138028E+02  0.23862138028E+02  0.00000000000E+00 0. -1.
          2   -1    0    0  501    0  0.00000000000E+00 -0.00000000000E+00 -0.54541360385E+03  0.54541360385E+03  0.00000000000E+00 0.  1.
         23    2    1    2    0    0 -0.32010985748E+02 -0.42324310893E+01 -0.32769729997E+03  0.35224453449E+03  0.12509226590E+03 0.  0.
          5    1    3    3  502    0  0.45917736566E+02 -0.11259335561E+02 -0.86865134527E+02  0.98986035202E+02  0.41800000000E+01 0. -1.
         -5    1    3    3    0  502 -0.77928722314E+02  0.70269044716E+01 -0.24083216545E+03  0.25325849929E+03  0.41800000000E+01 0. -1.
        -11    1    1    2    0    0  0.50717686724E+02  0.31571440202E+02 -0.90012750172E+02  0.10803395196E+03  0.00000000000E+00 0. -1.
         11    1    1    2    0    0 -0.18706700976E+02 -0.27339009112E+02 -0.10384141567E+03  0.10899725542E+03  0.00000000000E+00 0.  1.
</event>
<event>
 7    1  0.6473813E-006  0.1456448E+03  0.7561462E-02  0.1205929E+00
          1   -1    0    0  501    0  0.00000000000E+00  0.00000000000E+00  0.25132113026E+03  0.25132113026E+03  0.00000000000E+00 0. -1.
         -1   -1    0    0    0  501 -0.00000000000E+00 -0.00000000000E+00 -0.11993526577E+03  0.11993526577E+03  0.00000000000E+00 0.  1.
         23    2    1    2    0    0 -0.58081017406E+02  0.10428445130E+03  0.10210472736E+01  0.17290835933E+03  0.12509039460E+03 0.  0.
          5    1    3    3  502    0 -0.61526785623E+02  0.12230381175E+02  0.38106914261E+02  0.73516915654E+02  0.41800000000E+01 0.  1.
         -5    1    3    3    0  502  0.34457682169E+01  0.92054070127E+02 -0.37085866987E+02  0.99391443675E+02  0.41800000000E+01 0.  1.
        -11    1    1    2    0    0  0.46589980745E+02 -0.19268092683E+02  0.11422197307E+02  0.51694799475E+02  0.00000000000E+00 0.  1.
         11    1    1    2    0    0  0.11491036661E+02 -0.85016358619E+02  0.11894261992E+03  0.14665323723E+03  0.00000000000E+00 0. -1.
</event>
<event>
 7    1  0.6473813E-006  0.1225748E+03  0.7561462E-02  0.1238909E+00
          1   -1    0    0  501    0  0.00000000000E+00  0.00000000000E+00  0.11428589295E+03  0.11428589295E+03  0.00000000000E+00 0. -1.
         -1   -1    0    0    0  501 -0.00000000000E+00 -0.00000000000E+00 -0.21375646001E+03  0.21375646001E+03  0.00000000000E+00 0.  1.
         23    2    1    2    0    0  0.46318739410E+02 -0.77490526789E+02 -0.12328965922E+03  0.19754998840E+03  0.12520163930E+03 0.  0.
          5    1    3    3  502    0  0.26746695811E+02  0.27901076918E+02 -0.72953525923E+01  0.39554397978E+02  0.41800000000E+01 0.  1.
         -5    1    3    3    0  502  0.19572043599E+02 -0.10539160371E+03 -0.11599430663E+03  0.15799559042E+03  0.41800000000E+01 0.  1.
        -11    1    1    2    0    0 -0.53252513925E+02  0.60220022827E+02 -0.20039685206E+02  0.82848478392E+02  0.00000000000E+00 0.  1.
         11    1    1    2    0    0  0.69337745155E+01  0.17270503962E+02  0.43858777375E+02  0.47643886166E+02  0.00000000000E+00 0. -1.
</event>
<event>
 7    1  0.6473813E-006  0.8814274E+02  0.7561462E-02  0.1307413E+00
         -3   -1    0    0    0  501 -0.00000000000E+00  0.00000000000E+00  0.28702856975E+02  0.28702856975E+02  0.00000000000E+00 0.  1.
          3   -1    0    0  501    0  0.00000000000E+00 -0.00000000000E+00 -0.56500968022E+03  0.56500968022E+03  0.00000000000E+00 0. -1.
         23    2    1    2    0    0  0.52326374823E+02  0.11934521735E+02 -0.20231857844E+03  0.24386279190E+03  0.12512302658E+03 0.  0.
          5    1    3    3  502    0  0.90400949463E+00 -0.13837175741E+02 -0.18221328291E+03  0.18278795784E+03  0.41800000000E+01 0.  1.
         -5    1    3    3    0  502  0.51422365328E+02  0.25771697477E+02 -0.20105295535E+02  0.61074834059E+02  0.41800000000E+01 0.  1.
        -11    1    1    2    0    0  0.77045711161E-01  0.34268606370E+02 -0.10707322657E+03  0.11242339244E+03  0.00000000000E+00 0.  1.
         11    1    1    2    0    0 -0.52403420534E+02 -0.46203128105E+02 -0.22691501823E+03  0.23742635286E+03  0.00000000000E+00 0. -1.
</event>
<event>
 7    1  0.6473813E-006  0.1184133E+03  0.7561462E-02  0.1245738E+00
          2   -1    0    0  501    0  0.00000000000E+00  0.00000000000E+00  0.46884508658E+03  0.46884508658E+03  0.00000000000E+00 0. -1.
         -2   -1    0    0    0  501 -0.00000000000E+00 -0.00000000000E+00 -0.34406779880E+02  0.34406779880E+02  0.00000000000E+00 0.  1.
         23    2    1    2    0    0  0.17844453004E+02 -0.24444736532E+02  0.21082900417E+03  0.24700560067E+03  0.12508768172E+03 0.  0.
          5    1    3    3  502    0 -0.35400652869E+02  0.22819837668E+02  0.27973860998E+02  0.50734214431E+02  0.41800000000E+01 0. -1.
         -5    1    3    3    0  502  0.53245105873E+02 -0.47264574200E+02  0.18285514317E+03  0.19627138624E+03  0.41800000000E+01 0. -1.
        -11    1    1    2    0    0  0.49617701362E+02  0.25340253277E+02  0.78969646023E+02  0.96644967368E+02  0.00000000000E+00 0.  1.
         11    1    1    2    0    0 -0.67462154366E+02 -0.89551674502E+00  0.14463965651E+03  0.15960129842E+03  0.00000000000E+00 0. -1.
</event>
<event>
 7    1  0.6473813E-006  0.1747749E+03  0.7561462E-02  0.1172958E+00
         -3   -1    0    0    0  501 -0.00000000000E+00  0.00000000000E+00  0.97490674177E+02  0.97490674177E+02  0.00000000000E+00 0.  1.
          3   -1    0    0  501    0  0.00000000000E+00 -0.00000000000E+00 -0.39353224889E+03  0.39353224889E+03  0.00000000000E+00 0. -1.
         23    2    1    2    0    0  0.12904431218E+03 -0.97609881267E+02 -0.15953525792E+03  0.25938337110E+03  0.12509241086E+03 0.  0.
          5    1    3    3  502    0  0.11714971992E+03 -0.83772374914E+02 -0.56664359603E+02  0.15482309170E+03  0.41800000000E+01 0. -1.
         -5    1    3    3    0  502  0.11894592269E+02 -0.13837506352E+02 -0.10287089831E+03  0.10456027939E+03  0.41800000000E+01 0. -1.
        -11    1    1    2    0    0 -0.13413201367E+03  0.56865788699E+02 -0.11256835931E+03  0.18411070185E+03  0.00000000000E+00 0.  1.
         11    1    1    2    0    0  0.50877014878E+01  0.40744092567E+02 -0.23937957486E+02  0.47528850125E+02  0.00000000000E+00 0. -1.
</event>
<event>
 7    1  0.6473813E-006  0.1051424E+03  0.7561462E-02  0.1269839E+00
          2   -1    0    0  501    0  0.00000000000E+00  0.00000000000E+00  0.65131531303E+02  0.65131531303E+02  0.00000000000E+00 0. -1.
         -2   -1    0    0    0  501 -0.00000000000E+00 -0.00000000000E+00 -0.27311524807E+03  0.27311524807E+03  0.00000000000E+00 0.  1.
         23    2    1    2    0    0 -0.27576240305E+01  0.76512373028E+02 -0.13597595394E+03  0.19999179038E+03  0.12508200691E+03 0.  0.
          5    1    3    3  502    0  0.43456927885E+02  0.22749923596E+02 -0.30990969217E+01  0.49326873067E+02  0.41800000000E+01 0. -1.
         -5    1    3    3    0  502 -0.46214551916E+02  0.53762449433E+02 -0.13287685702E+03  0.15066491732E+03  0.41800000000E+01 0. -1.
        -11    1    1    2    0    0  0.24949538063E+02 -0.45663575598E+02  0.51071171433E+01  0.52285028751E+02  0.00000000000E+00 0. -1.
         11    1    1    2    0    0 -0.22191914032E+02 -0.30848797430E+02 -0.77114879970E+02  0.85969960243E+02  0.00000000000E+00 0.  1.
</event>
<event>
 7    1  0.6473813E-006  0.1745594E+03  0.7561462E-02  0.1173175E+00
          1   -1    0    0  501    0  0.00000000000E+00  0.00000000000E+00  0.17488982684E+03  0.17488982684E+03  0.00000000000E+00 0. -1.
         -1   -1    0    0    0  501 -0.00000000000E+00 -0.00000000000E+00 -0.19952435913E+03  0.19952435913E+03  0.00000000000E+00 0.  1.
         23    2    1    2    0    0  0.13896361953E+03 -0.40687446756E+02 -0.59974415926E+02  0.20052450976E+03  0.12508713991E+03 0.  0.
          5    1    3    3  502    0 -0.18850630157E+02 -0.20235334529E+02  0.53097300910E+01  0.28468941927E+02  0.41800000000E+01 0. -1.
         -5    1    3    3    0  502  0.15781424969E+03 -0.20452112227E+02 -0.65284146017E+02  0.17205556783E+03  0.41800000000E+01 0. -1.
        -11    1    1    2    0    0 -0.62112478770E+02  0.55963920155E+02  0.44991184572E+02  0.94942756792E+02  0.00000000000E+00 0. -1.
         11    1    1    2    0    0 -0.76851140762E+02 -0.15276473400E+02 -0.96513009412E+01  0.78946919419E+02  0.00000000000E+00 0.  1.
</event>
<event>
 7    1  0.6473813E-006  0.1763529E+03  0.7561462E-02  0.1171380E+00
          1   -1    0    0  501    0  0.00000000000E+00  0.00000000000E+00  0.96548100658E+03  0.96548100658E+03  0.00000000000E+00 0. -1.
         -1   -1    0    0    0  501 -0.00000000000E+00 -0.00000000000E+00 -0.39000654815E+02  0.39000654815E+02  0.00000000000E+00 0.  1.
         23    2    1    2    0    0 -0.13774420885E+03  0.71023371682E+02  0.59997130328E+03  0.63216358960E+03  0.12508977920E+03 0.  0.
          5    1    3    3  502    0 -0.71790689023E+02 -0.20389308397E+02  0.35041923408E+03  0.35830258015E+03  0.41800000000E+01 0.  1.
         -5    1    3    3    0  502 -0.65953519822E+02  0.91412680079E+02  0.24955206920E+03  0.27386100945E+03  0.41800000000E+01 0.  1.
        -11    1    1    2    0    0  0.70279794606E+02 -0.67746678656E+02  0.25915840736E+03  0.27693310041E+03  0.00000000000E+00 0. -1.
         11    1    1    2    0    0  0.67464414240E+02 -0.32766930266E+01  0.67350641130E+02  0.95384971387E+02  0.00000000000E+00 0.  1.
</event>
<event>
 7    1  0.6473813E-006  0.1146321E+03  0.7561462E-02  0.1252225E+00
         -2   -1    0    0    0  501 -0.00000000000E+00  0.00000000000E+00  0.47633309913E+02  0.47633309913E+02  0.00000000000E+00 0.  1.
          2   -1    0    0  501    0  0.00000000000E+00 -0.00000000000E+00 -0.47569068192E+03  0.47569068192E+03  0.00000000000E+00 0. -1.
         23    2    1    2    0    0  0.20944699998E+02  0.79390537791E+02 -0.12056436003E+03  0.19215850035E+03  0.12509031296E+03 0.  0.
          5    1    3    3  502    0 -0.22519366075E+02  0.52901841656E+02  0.37433072659E+01  0.57768602617E+02  0.41800000000E+01 0. -1.
         -5    1    3    3    0  502  0.43464066073E+02  0.26488696135E+02 -0.12430766730E+03  0.13438989773E+03  0.41800000000E+01 0. -1.
        -11    1    1    2    0    0 -0.48013170238E+02 -0.14372288317E+02 -0.16103680093E+03  0.16865550226E+03  0.00000000000E+00 0. -1.
         11    1    1    2    0    0  0.27068470240E+02 -0.65018249474E+02 -0.14645621104E+03  0.16250998923E+03  0.00000000000E+00 0.  1.
</event>
<event>
 7    1  0.6473813E-006  0.1159316E+03  0.7561462E-02  0.1249964E+00
         -1   -1    0    0    0  501 -0.00000000000E+00  0.00000000000E+00  0.28328286908E+02  0.28328286908E+02  0.00000000000E+00 0.  1.
          1   -1    0    0  501    0  0.00000000000E+00 -0.00000000000E+00 -0.57438292181E+03  0.57438292181E+03  0.00000000000E+00 0. -1.
         23    2    1    2    0    0  0.50032605622E+02 -0.20282168898E+02 -0.21128608085E+03  0.25140236434E+03  0.12508682119E+03 0.  0.
          5    1    3    3  502    0  0.86149815886E+02 -0.25347304926E+02 -0.18671125142E+03  0.20722654379E+03  0.41800000000E+01 0.  1.
         -5    1    3    3    0  502 -0.36117210264E+02  0.50651360284E+01 -0.24574829437E+02  0.44175820559E+02  0.41800000000E+01 0.  1.
        -11    1    1    2    0    0  0.58316852644E+01  0.44130077911E+02 -0.16893028768E+03  0.17469663542E+03  0.00000000000E+00 0. -1.
         11    1    1    2    0    0 -0.55864290886E+02 -0.23847909014E+02 -0.16583826637E+03  0.17661220896E+03  0.00000000000E+00 0.  1.
</event>
<event>
 7    1  0.6473813E-006  0.9804546E+02  0.7561462E-02  0.1284461E+00
          2   -1    0    0  501    0  0.00000000000E+00  0.00000000000E+00  0.17280900642E+03  0.17280900642E+03  0.00000000000E+00 0. -1.
         -2   -1    0    0    0  501 -0.00000000000E+00 -0.00000000000E+00 -0.77366390363E+02  0.77366390363E+02  0.00000000000E+00 0.  1.
         23    2    1    2    0    0  0.32897674296E+02  0.15827175948E+02  0.31434494310E+02  0.13404435044E+03  0.12508798495E+03 0.  0.
          5    1    3    3  502    0  0.32731061954E+02  0.65050737479E+02  0.41075541735E+02  0.83711369551E+02  0.41800000000E+01 0.  1.
         -5    1    3    3    0  502  0.16661234193E+00 -0.49223561531E+02 -0.96410474256E+01  0.50332980886E+02  0.41800000000E+01 0.  1.
        -11    1    1    2    0    0 -0.43729522391E+02 -0.32067800472E+02  0.55631579375E+01  0.54512050795E+02  0.00000000000E+00 0.  1.
         11    1    1    2    0    0  0.10831848095E+02  0.16240624524E+02  0.58444963808E+02  0.61618995550E+02  0.00000000000E+00 0. -1.
</event>
<event>
 6    1  0.6473813E-006  0.1056258E+03  0.7561462E-02  0.1268892E+00
          1   -1    0    0  501    0  0.00000000000E+00  0.00000000000E+00  0.57994135904E+02  0.57994135904E+02  0.00000000000E+00 0. -1.
         -1   -1    0    0    0  501 -0.00000000000E+00 -0.00000000000E+00 -0.42681536236E+03  0.42681536236E+03  0.00000000000E+00 0.  1.
          5    1    1    2  502    0  0.47417119195E+02  0.77057468126E+02 -0.25386371948E+03  0.26953756150E+03  0.41800000000E+01 0. -1.
         -5    1    1    2    0  502 -0.38244994871E+02 -0.64682544925E+02 -0.98599568548E+02  0.12403974592E+03  0.41800000000E+01 0.  1.
        -11    1    1    2    0    0 -0.14215596392E+02 -0.26690327213E+02 -0.47660225096E+02  0.56444253948E+02  0.00000000000E+00 0.  1.
         11    1    1    2    0    0  0.50434720689E+01  0.14315404012E+02  0.31302286673E+02  0.34787936897E+02  0.00000000000E+00 0. -1.
</event>
<event>
 7    1  0.6473813E-006  0.1302155E+03  0.7561462E-02  0.1227136E+00
          2   -1    0    0  501    0  0.00000000000E+00  0.00000000000E+00  0.12059925172E+04  0.12059925172E+04  0.00000000000E+00 0. -1.
         -2   -1    0    0    0  501 -0.00000000000E+00 -0.00000000000E+00 -0.20056873918E+02  0.20056873918E+02  0.00000000000E+00 0.  1.
         23    2    1    2    0    0 -0.32985323747E+02  0.98943564105E+02  0.50077141283E+03  0.52659018178E+03  0.12508937275E+03 0.  0.
          5    1    3    3  502    0 -0.48027992490E+02  0.51773043944E+02  0.45008914843E+03  0.45561480450E+03  0.41800000000E+01 0. -1.
         -5    1    3    3    0  502  0.15042668743E+02  0.47170520161E+02  0.50682264400E+02  0.70975377279E+02  0.41800000000E+01 0. -1.
        -11    1    1    2    0    0  0.31081317220E+02  0.87506416577E+01  0.18897541162E+03  0.19171418363E+03  0.00000000000E+00 0. -1.
         11    1    1    2    0    0  0.19040065266E+01 -0.10769420576E+03  0.49618881880E+03  0.50774502567E+03  0.00000000000E+00 0.  1.
</event>
<event>
 7    1  0.6473813E-006  0.1049340E+03  0.7561462E-02  0.1270250E+00
         -2   -1    0    0    0  501 -0.00000000000E+00  0.00000000000E+00  0.41970853503E+03  0.41970853503E+03  0.00000000000E+00 0. -1.
          2   -1    0    0  501    0  0.00000000000E+00 -0.00000000000E+00 -0.48730173914E+02  0.48730173914E+02  0.00000000000E+00 0.  1.
         23    2    1    2    0    0  0.71345574559E+02 -0.60517140649E+02  0.20478450391E+03  0.25755769875E+03  0.12508700900E+03 0.  0.
          5    1    3    3  502    0  0.66243349592E+02 -0.55804095859E+02  0.22210542259E+03  0.23843357486E+03  0.41800000000E+01 0. -1.
         -5    1    3    3    0  502  0.51022249666E+01 -0.47130447895E+01 -0.17320918672E+02  0.19124123887E+02  0.41800000000E+01 0. -1.
        -11    1    1    2    0    0  0.12016215619E+02 -0.28022930398E-01  0.66285699721E+02  0.67366046423E+02  0.00000000000E+00 0. -1.
         11    1    1    2    0    0 -0.83361790178E+02  0.60545163579E+02  0.99908157478E+02  0.14351496377E+03  0.00000000000E+00 0.  1.
</event>
<event>
 7    1  0.6473813E-006  0.5313140E+02  0.7561462E-02  0.1429148E+00
          4   -1    0    0  501    0  0.00000000000E+00  0.00000000000E+00  0.11683726582E+03  0.11683726582E+03  0.00000000000E+00 0. -1.
         -4   -1    0    0    0  501 -0.00000000000E+00 -0.00000000000E+00 -0.12965878898E+03  0.12965878898E+03  0.00000000000E+00 0.  1.
         23    2    1    2    0    0 -0.22276050862E+02  0.32144627711E+02 -0.50574943757E+02  0.14048095639E+03  0.12509026597E+03 0.  0.
          5    1    3    3  502    0 -0.34778916928E+02  0.23222931029E+02 -0.89254182224E+02  0.98654239811E+02  0.41800000000E+01 0. -1.
         -5    1    3    3    0  502  0.12502866067E+02  0.89216966816E+01  0.38679238466E+02  0.41826716580E+02  0.41800000000E+01 0. -1.
        -11    1    1    2    0    0 -0.59090289570E+01 -0.12897450631E+02  0.62351273411E+02  0.63944836789E+02  0.00000000000E+00 0. -1.
         11    1    1    2    0    0  0.28185079819E+02 -0.19247177079E+02 -0.24597852818E+02  0.42070261625E+02  0.00000000000E+00 0.  1.
</event>
<event>
 7    1  0.6473813E-006  0.1521573E+03  0.7561462E-02  0.1197847E+00
         -4   -1    0    0    0  501 -0.00000000000E+00  0.00000000000E+00  0.22141151352E+03  0.22141151352E+03  0.00000000000E+00 0.  1.
          4   -1    0    0  501    0  0.00000000000E+00 -0.00000000000E+00 -0.17548679157E+03  0.17548679157E+03  0.00000000000E+00 0. -1.
         23    2    1    2    0    0  0.85869468486E+02 -0.11425368959E+03  0.10442643283E+03  0.21674796935E+03  0.12508929268E+03 0.  0.
          5    1    3    3  502    0  0.25353607586E+02 -0.88470527920E+02  0.11774549693E+03  0.14950355907E+03  0.41800000000E+01 0. -1.
         -5    1    3    3    0  502  0.60515860900E+02 -0.25783161670E+02 -0.13319064096E+02  0.67244410285E+02  0.41800000000E+01 0. -1.
        -11    1    1    2    0    0 -0.53402891311E+02  0.93701333331E+02  0.27015972698E+01  0.10788469445E+03  0.00000000000E+00 0.  1.
         11    1    1    2    0    0 -0.32466577175E+02  0.20552356259E+02 -0.61203308159E+02  0.72265641289E+02  0.00000000000E+00 0. -1.
</event>
<event>
 7    1  0.6473813E-006  0.2245488E+03  0.7561462E-02  0.1130536E+00
          2   -1    0    0  501    0  0.00000000000E+00  0.00000000000E+00  0.16827203532E+04  0.16827203532E+04  0.00000000000E+00 0. -1.
         -2   -1    0    0    0  501 -0.00000000000E+00 -0.00000000000E+00 -0.34076575890E+02  0.34076575890E+02  0.00000000000E+00 0.  1.
         23    2    1    2    0    0  0.15424105332E+03  0.13978825571E+03  0.72396035026E+03  0.76371119995E+03  0.12571853172E+03 0.  0.
          5    1    3    3  502    0  0.16435115657E+03  0.14515558202E+03  0.59423349343E+03  0.63341326381E+03  0.41800000000E+01 0. -1.
         -5    1    3    3    0  502 -0.10110103249E+02 -0.53673263067E+01  0.12972685683E+03  0.13029793614E+03  0.41800000000E+01 0. -1.
        -11    1    1    2    0    0 -0.52193526581E+02 -0.11104164385E+02  0.11316547169E+03  0.12511550930E+03  0.00000000000E+00 0. -1.
         11    1    1    2    0    0 -0.10204752674E+03 -0.12868409133E+03  0.81151795540E+03  0.82797021988E+03  0.00000000000E+00 0.  1.
</event>
<event>
 7    1  0.6473813E-006  0.1442003E+03  0.7561462E-02  0.1207786E+00
          2   -1    0    0  501    0  0.00000000000E+00  0.00000000000E+00  0.82186563763E+03  0.82186563763E+03  0.00000000000E+00 0. -1.
         -2   -1    0    0    0  501 -0.00000000000E+00 -0.00000000000E+00 -0.32646973724E+02  0.32646973724E+02  0.00000000000E+00 0.  1.
         23    2    1    2    0    0  0.23462570337E+01 -0.11066605684E+03  0.28241722640E+03  0.32811800658E+03  0.12509778343E+03 0.  0.
          5    1    3    3  502    0  0.59920056016E+02 -0.83082913628E+02  0.16085812751E+03  0.19075112906E+03  0.41800000000E+01 0.  1.
         -5    1    3    3    0  502 -0.57573798983E+02 -0.27583143207E+02  0.12155909889E+03  0.13736687752E+03  0.41800000000E+01 0.  1.
        -11    1    1    2    0    0 -0.17785410154E+02  0.10710840731E+02  0.18755200558E+02  0.27978571649E+02  0.00000000000E+00 0.  1.
         11    1    1    2    0    0  0.15439153120E+02  0.99955216104E+02  0.48804623695E+03  0.49841603313E+03  0.00000000000E+00 0. -1.
</event>
<event>
 7    1  0.6473813E-006  0.1297149E+03  0.7561462E-02  0.1227879E+00
         -1   -1    0    0    0  501 -0.00000000000E+00  0.00000000000E+00  0.40121771906E+03  0.40121771906E+03  0.00000000000E+00 0.  1.
          1   -1    0    0  501    0  0.00000000000E+00 -0.00000000000E+00 -0.99960097290E+02  0.99960097290E+02  0.00000000000E+00 0. -1.
         23    2    1    2    0    0 -0.89862591985E+02 -0.45909819102E+02  0.32498982369E+03  0.36256048742E+03  0.12509486245E+03 0.  0.
          5    1    3    3  502    0 -0.65615677657E+02 -0.87933312955E+02  0.25124435003E+03  0.27418767387E+03  0.41800000000E+01 0.  1.
         -5    1    3    3    0  502 -0.24246914328E+02  0.42023493853E+02  0.73745473663E+02  0.88372813556E+02  0.41800000000E+01 0.  1.
        -11    1    1    2    0    0  0.42447846545E+02  0.20393259614E+02 -0.58062623584E+02  0.74759433996E+02  0.00000000000E+00 0. -1.
         11    1    1    2    0    0  0.47414745440E+02  0.25516559489E+02  0.34330421668E+02  0.63857894932E+02  0.00000000000E+00 0.  1.
</event>
<event>
 7    1  0.6473813E-006  0.1607414E+03  0.7561462E-02  0.1187862E+00
         -4   -1    0    0    0  501 -0.00000000000E+00  0.00000000000E+00  0.78382139852E+03  0.78382139852E+03  0.00000000000E+00 0.  1.
          4   -1    0    0  501    0  0.00000000000E+00 -0.00000000000E+00 -0.43766048860E+02  0.43766048860E+02  0.00000000000E+00 0. -1.
         23    2    1    2    0    0  0.49722680522E+02 -0.12815333181E+03  0.52299602137E+03  0.55503871735E+03  0.12509003945E+03 0.  0.
          5    1    3    3  502    0  0.43583091529E+02 -0.19029228517E+02  0.48325499077E+02  0.67929549286E+02  0.41800000000E+01 0.  1.
         -5    1    3    3    0  502  0.61395889935E+01 -0.10912410330E+03  0.47467052230E+03  0.48710916806E+03  0.41800000000E+01 0.  1.
        -11    1    1    2    0    0  0.26242907886E+02  0.24871991598E+02  0.56532598489E+02  0.67106191013E+02  0.00000000000E+00 0.  1.
         11    1    1    2    0    0 -0.75965588408E+02  0.10328134022E+03  0.16052672980E+03  0.20544253902E+03  0.00000000000E+00 0. -1.
</event>
<event>
 7    1  0.6473813E-006  0.9266033E+02  0.7561462E-02  0.1296534E+00
         -2   -1    0    0    0  501 -0.00000000000E+00  0.00000000000E+00  0.29087978638E+02  0.29087978638E+02  0.00000000000E+00 0.  1.
          2   -1    0    0  501    0  0.00000000000E+00 -0.00000000000E+00 -0.42596250135E+03  0.42596250135E+03  0.00000000000E+00 0. -1.
         23    2    1    2    0    0  0.42387214901E+01 -0.25003885579E+02 -0.24179995794E+03  0.27341717279E+03  0.12508624890E+03 0.  0.
          5    1    3    3  502    0  0.19061810384E+01  0.32656671833E+02 -0.99349892760E+01  0.34442243732E+02  0.41800000000E+01 0. -1.
         -5    1    3    3    0  502  0.23325404517E+01 -0.57660557412E+02 -0.23186496867E+03  0.23897492906E+03  0.41800000000E+01 0. -1.
        -11    1    1    2    0    0 -0.43290165149E+02 -0.71767861833E+01 -0.68271123784E+02  0.81157199319E+02  0.00000000000E+00 0.  1.
         11    1    1    2    0    0  0.39051443659E+02  0.32180671762E+02 -0.86803440988E+02  0.10047610788E+03  0.00000000000E+00 0. -1.
</event>
<event>
 6    1  0.6473813E-006  0.1150747E+03  0.7561462E-02  0.1251451E+00
          1   -1    0    0  501    0  0.00000000000E+00  0.00000000000E+00  0.28048581459E+03  0.28048581459E+03  0.00000000000E+00 0. -1.
         -1   -1    0    0    0  501 -0.00000000000E+00 -0.00000000000E+00 -0.50898782262E+02  0.50898782262E+02  0.00000000000E+00 0.  1.
          5    1    1    2  502    0  0.33301720265E+02 -0.49529386492E+02  0.98840887027E+02  0.11553855654E+03  0.41800000000E+01 0. -1.
         -5    1    1    2    0  502 -0.29320551409E+00  0.70579801985E+02  0.43647385384E+02  0.83091281543E+02  0.41800000000E+01 0.  1.
        -11    1    1    2    0    0  0.27041102640E+02 -0.28284992664E+02  0.41245859757E+02  0.56854929330E+02  0.00000000000E+00 0.  1.
         11    1    1    2    0    0 -0.60049617391E+02  0.72345771719E+01  0.45852900155E+02  0.75899829435E+02  0.00000000000E+00 0. -1.
</event>
<event>
 7    1  0.6473813E-006  0.2183773E+03  0.7561462E-02  0.1135099E+00
         -2   -1    0    0    0  501 -0.00000000000E+00  0.00000000000E+00  0.72857843129E+02  0.72857843129E+02  0.00000000000E+00 0.  1.
          2   -1    0    0  501    0  0.00000000000E+00 -0.00000000000E+00 -0.73944978854E+03  0.73944978854E+03  0.00000000000E+00 0. -1.
         23    2    1    2    0    0 -0.11758383489E+03  0.15782616928E+03 -0.24609861020E+03  0.33903772912E+03  0.12508796062E+03 0.  0.
          5    1    3    3  502    0 -0.80864728642E+02  0.22442378262E+02 -0.13931842450E+03  0.16269560684E+03  0.41800000000E+01 0. -1.
         -5    1    3    3    0  502 -0.36719106250E+02  0.13538379101E+03 -0.10678018570E+03  0.17634212228E+03  0.41800000000E+01 0. -1.
        -11    1    1    2    0    0  0.87680317502E+02 -0.15995800669E+03 -0.31933281944E+03  0.36776059000E+03  0.00000000000E+00 0. -1.
         11    1    1    2    0    0  0.29903517390E+02  0.21318374185E+01 -0.10116051577E+03  0.10550931255E+03  0.00000000000E+00 0.  1.
</event>
<event>
 7    1  0.6473813E-006  0.1013138E+03  0.7561462E-02  0.1277557E+00
          1   -1    0    0  501    0  0.00000000000E+00  0.00000000000E+00  0.30795056644E+02  0.30795056644E+02  0.00000000000E+00 0. -1.
         -1   -1    0    0    0  501 -0.00000000000E+00 -0.00000000000E+00 -0.90530790593E+03  0.90530790593E+03  0.00000000000E+00 0.  1.
         23    2    1    2    0    0  0.30766279681E+02  0.35355775788E+02 -0.79361483554E+03  0.80477887571E+03  0.12509171336E+03 0.  0.
          5    1    3    3  502    0  0.78392630408E+02  0.16579218205E+02 -0.54874680318E+03  0.55458164537E+03  0.41800000000E+01 0.  1.
         -5    1    3    3    0  502 -0.47626350727E+02  0.18776557583E+02 -0.24486803236E+03  0.25019723034E+03  0.41800000000E+01 0.  1.
        -11    1    1    2    0    0 -0.17905244166E+02  0.12263427087E+02  0.12972010937E+02  0.25283640567E+02  0.00000000000E+00 0. -1.
         11    1    1    2    0    0 -0.12861035515E+02 -0.47619202876E+02 -0.93870024692E+02  0.10604044631E+03  0.00000000000E+00 0.  1.
</event>
<event>
 7    1  0.6473813E-006  0.1737769E+03  0.7561462E-02  0.1173965E+00
         -1   -1    0    0    0  501 -0.00000000000E+00  0.00000000000E+00  0.23442386066E+03  0.23442386066E+03  0.00000000000E+00 0.  1.
          1   -1    0    0  501    0  0.00000000000E+00 -0.00000000000E+00 -0.17160749270E+03  0.17160749270E+03  0.00000000000E+00 0. -1.
         23    2    1    2    0    0 -0.81473424849E+02 -0.14032726801E+03  0.80371016516E+02  0.22012242265E+03  0.12515877736E+03 0.  0.
          5    1    3    3  502    0 -0.46375442844E+02 -0.12219807947E+03  0.33381069510E+00  0.13076940069E+03  0.41800000000E+01 0.  1.
         -5    1    3    3    0  502 -0.35097982005E+02 -0.18129188541E+02  0.80037205821E+02  0.89353021961E+02  0.41800000000E+01 0.  1.
        -11    1    1    2    0    0  0.92449191740E+02  0.13756312952E+03 -0.30700839997E+02  0.16856158884E+03  0.00000000000E+00 0. -1.
         11    1    1    2    0    0 -0.10975766891E+02  0.27641384937E+01  0.13146191443E+02  0.17347341869E+02  0.00000000000E+00 0.  1.
</event>
<event>
 7    1  0.6473813E-006  0.1286594E+03  0.7561462E-02  0.1229459E+00
          2   -1    0    0  501    0  0.00000000000E+00  0.00000000000E+00  0.45806239864E+03  0.45806239864E+03  0.00000000000E+00 0. -1.
         -2   -1    0    0    0  501 -0.00000000000E+00 -0.00000000000E+00 -0.52718820787E+02  0.52718820787E+02  0.00000000000E+00 0.  1.
         23    2    1    2    0    0  0.78824259016E+02 -0.57973506631E+02  0.29932543473E+03  0.33884812432E+03  0.12509254255E+03 0.  0.
          5    1    3    3  502    0 -0.18684364328E+02 -0.30393741858E+02  0.18782708081E+02  0.40535756282E+02  0.41800000000E+01 0. -1.
         -5    1    3    3    0  502  0.97508623344E+02 -0.27579764773E+02  0.28054272665E+03  0.29831236804E+03  0.41800000000E+01 0. -1.
        -11    1    1    2    0    0 -0.28946364308E+02  0.63507422795E+02  0.99194436986E+02  0.12128734924E+03  0.00000000000E+00 0. -1.
         11    1    1    2    0    0 -0.49877894708E+02 -0.55339161636E+01  0.68237061386E+01  0.50645745864E+02  0.00000000000E+00 0.  1.
</event>
<event>
 7    1  0.6473813E-006  0.9286639E+02  0.7561462E-02  0.1296055E+00
          1   -1    0    0  501    0  0.00000000000E+00  0.00000000000E+00  0.22823004844E+02  0.22823004844E+02  0.00000000000E+00 0. -1.
         -1   -1    0    0    0  501 -0.00000000000E+00 -0.00000000000E+00 -0.67190667055E+03  0.67190667055E+03  0.00000000000E+00 0.  1.
         23    2    1    2    0    0 -0.22533400386E+02  0.50237829454E+02 -0.43083574239E+03  0.45199432546E+03  0.12509132540E+03 0.  0.
          5    1    3    3  502    0 -0.13749288619E+02 -0.14243985562E+02 -0.33765863327E+03  0.33826433315E+03  0.41800000000E+01 0.  1.
         -5    1    3    3    0  502 -0.87841117666E+01  0.64481815016E+02 -0.93177109124E+02  0.11372999232E+03  0.41800000000E+01 0.  1.
        -11    1    1    2    0    0  0.50799309113E+02 -0.11079979221E+02 -0.72660659259E+02  0.89347116069E+02  0.00000000000E+00 0. -1.
         11    1    1    2    0    0 -0.28265908727E+02 -0.39157850232E+02 -0.14558726405E+03  0.15338823386E+03  0.00000000000E+00 0.  1.
</event>
<event>
 7    1  0.6473813E-006  0.1672502E+03  0.7561462E-02  0.1180746E+00
          1   -1    0    0  501    0  0.00000000000E+00  0.00000000000E+00  0.11651134855E+03  0.11651134855E+03  0.00000000000E+00 0. -1.
         -1   -1    0    0    0  501 -0.00000000000E+00 -0.00000000000E+00 -0.28872275147E+03  0.28872275147E+03  0.00000000000E+00 0.  1.
         23    2    1    2    0    0 -0.54555344451E+02 -0.13505191857E+03 -0.11320205033E+03  0.22288712220E+03  0.12509459912E+03 0.  0.
          5    1    3    3  502    0 -0.77849515398E+02 -0.74093877611E+02 -0.20576001474E+02  0.10950476695E+03  0.41800000000E+01 0.  1.
         -5    1    3    3    0  502  0.23294170947E+02 -0.60958040959E+02 -0.92626048852E+02  0.11338235526E+03  0.41800000000E+01 0.  1.
        -11    1    1    2    0    0 -0.13840009824E+01  0.89239742606E+02 -0.36762507499E+00  0.89251231181E+02  0.00000000000E+00 0. -1.
         11    1    1    2    0    0  0.55939345433E+02  0.45812175965E+02 -0.58641727520E+02  0.93095746631E+02  0.00000000000E+00 0.  1.
</event>
<event>
 7    1  0.6473813E-006  0.1571009E+03  0.7561462E-02  0.1192009E+00
          1   -1    0    0  501    0  0.00000000000E+00  0.00000000000E+00  0.81403904472E+03  0.81403904472E+03  0.00000000000E+00 0. -1.
         -1   -1    0    0    0  501 -0.00000000000E+00 -0.00000000000E+00 -0.31314873867E+02  0.31314873867E+02  0.00000000000E+00 0.  1.
         23    2    1    2    0    0 -0.10320549505E+03 -0.26647048694E+02  0.33711660889E+03  0.37504348949E+03  0.12509425092E+03 0.  0.
          5    1    3    3  502    0 -0.35008679885E+02  0.50302982318E+02  0.12829862871E+03  0.14224629424E+03  0.41800000000E+01 0. -1.
         -5    1    3    3    0  502 -0.68196815166E+02 -0.76950031012E+02  0.20881798018E+03  0.23279719525E+03  0.41800000000E+01 0. -1.
        -11    1    1    2    0    0  0.25364699357E+02 -0.40019247819E+02  0.16019396906E+03  0.16705393109E+03  0.00000000000E+00 0.  1.
         11    1    1    2    0    0  0.77840795693E+02  0.66666296513E+02  0.28541359291E+03  0.30325649801E+03  0.00000000000E+00 0. -1.
</event>
<event>
 7    1  0.6473813E-006  0.9524219E+02  0.7561462E-02  0.1290632E+00
          1   -1    0    0  501    0  0.00000000000E+00  0.00000000000E+00  0.30131008856E+02  0.30131008856E+02  0.00000000000E+00 0. -1.
         -1   -1    0    0    0  501 -0.00000000000E+00 -0.00000000000E+00 -0.43822830680E+03  0.43822830680E+03  0.00000000000E+00 0.  1.
         23    2    1    2    0    0  0.12673110741E+02 -0.37347607028E+02 -0.24724474177E+03  0.27988073020E+03  0.12509120399E+03 0.  0.
          5    1    3    3  502    0 -0.20340258814E+02  0.19845950097E+02 -0.55027074350E+01  0.29246197240E+02  0.41800000000E+01 0.  1.
         -5    1    3    3    0  502  0.33013369555E+02 -0.57193557125E+02 -0.24174203434E+03  0.25063453296E+03  0.41800000000E+01 0.  1.
        -11    1    1    2    0    0  0.22233648371E+02  0.52895122647E+02 -0.11700553288E+03  0.13031701288E+03  0.00000000000E+00 0. -1.
         11    1    1    2    0    0 -0.34906759112E+02 -0.15547515619E+02 -0.43847023282E+02  0.58161572575E+02  0.00000000000E+00 0.  1.
</event>
<event>
 7    1  0.6473813E-006  0.1452013E+03  0.7561462E-02  0.1206497E+00
         -3   -1    0    0    0  501 -0.00000000000E+00  0.00000000000E+00  0.48616835896E+03  0.48616835896E+03  0.00000000000E+00 0.  1.
          3   -1    0    0  501    0  0.00000000000E+00 -0.00000000000E+00 -0.63775806541E+02  0.63775806541E+02  0.00000000000E+00 0. -1.
         23    2    1    2    0    0  0.12626544612E+03  0.55918598157E+02  0.23951281839E+03  0.30344975959E+03  0.12508202876E+03 0.  0.
          5    1    3    3  502    0  0.65295852930E+02 -0.17124339230E+01  0.20034668450E+03  0.21076704493E+03  0.41800000000E+01 0. -1.
         -5    1    3    3    0  502  0.60969593193E+02  0.57631032080E+02  0.39166133891E+02  0.92682714659E+02  0.41800000000E+01 0. -1.
        -11    1    1    2    0    0 -0.14631125198E+02  0.26738741588E+01 -0.86407004945E+01  0.17201195674E+02  0.00000000000E+00 0. -1.
         11    1    1    2    0    0 -0.11163432092E+03 -0.58592472316E+02  0.19152043453E+03  0.22929321024E+03  0.00000000000E+00 0.  1.
</event>
<event>
 7    1  0.6473813E-006  0.1699045E+03  0.7561462E-02  0.1177948E+00
          1   -1    0    0  501    0  0.00000000000E+00  0.00000000000E+00  0.53058664640E+03  0.53058664640E+03  0.00000000000E+00 0. -1.
         -1   -1    0    0    0  501 -0.00000000000E+00 -0.00000000000E+00 -0.55886579994E+02  0.55886579994E+02  0.00000000000E+00 0.  1.
         23    2    1    2    0    0  0.13076200537E+03  0.23560855685E+02  0.25668648769E+03  0.31494323283E+03  0.12508985161E+03 0.  0.
          5    1    3    3  502    0  0.61402841149E+01 -0.39298274058E+02  0.82590966967E+02  0.91764904280E+02  0.41800000000E+01 0.  1.
         -5    1    3    3    0  502  0.12462172125E+03  0.62859129743E+02  0.17409552072E+03  0.22317832855E+03  0.41800000000E+01 0.  1.
        -11    1    1    2    0    0 -0.58302597153E+02 -0.55950018943E+02  0.12950281302E+03  0.15264526208E+03  0.00000000000E+00 0. -1.
         11    1    1    2    0    0 -0.72459408215E+02  0.32389163258E+02  0.88510765692E+02  0.11888473148E+03  0.00000000000E+00 0.  1.
</event>
<event>
 7    1  0.6473813E-006  0.1243079E+03  0.7561462E-02  0.1236155E+00
         -2   -1    0    0    0  501 -0.00000000000E+00  0.00000000000E+00  0.85832163000E+03  0.85832163000E+03  0.00000000000E+00 0.  1.
          2   -1    0    0  501    0  0.00000000000E+00 -0.00000000000E+00 -0.28666301205E+02  0.28666301205E+02  0.00000000000E+00 0. -1.
         23    2    1    2    0    0 -0.64218903155E+02 -0.55873866434E+01  0.70712397048E+03  0.72099095772E+03  0.12509342534E+03 0.  0.
          5    1    3    3  502    0 -0.88589803861E+02 -0.38141766784E+02  0.41881443574E+03  0.42979757061E+03  0.41800000000E+01 0.  1.
         -5    1    3    3    0  502  0.24370900705E+02  0.32554380140E+02  0.28830953475E+03  0.29119338710E+03  0.41800000000E+01 0.  1.
        -11    1    1    2    0    0  0.86208515134E+02  0.14585800357E+02  0.87739373030E+02  0.12386626350E+03  0.00000000000E+00 0. -1.
         11    1    1    2    0    0 -0.21989611979E+02 -0.89984137134E+01  0.34791985277E+02  0.42130709985E+02  0.00000000000E+00 0.  1.
</event>
<event>
 7    1  0.6473813E-006  0.1025227E+03  0.7561462E-02  0.1275079E+00
          1   -1    0    0  501    0  0.00000000000E+00  0.00000000000E+00  0.17734488050E+03  0.17734488050E+03  0.00000000000E+00 0. -1.
         -1   -1    0    0    0  501 -0.00000000000E+00 -0.00000000000E+00 -0.79091860481E+02  0.79091860481E+02  0.00000000000E+00 0.  1.
         23    2    1    2    0    0 -0.31353413074E+02 -0.71846417235E+01  0.18354005970E+02  0.13045665046E+03  0.12508961798E+03 0.  0.
          5    1    3    3  502    0 -0.77424087183E+02  0.40529841130E+01  0.26740147839E+02  0.82118352777E+02  0.41800000000E+01 0. -1.
         -5    1    3    3    0  502  0.46070674109E+02 -0.11237625836E+02 -0.83861418683E+01  0.48338297681E+02  0.41800000000E+01 0. -1.
        -11    1    1    2    0    0  0.12539020220E+01  0.37240264096E+02  0.21101944442E+01  0.37321072610E+02  0.00000000000E+00 0.  1.
         11    1    1    2    0    0  0.30099511052E+02 -0.30055622372E+02  0.77788819603E+02  0.88659017912E+02  0.00000000000E+00 0. -1.
</event>
<event>
 7    1  0.6473813E-006  0.1171954E+03  0.7561462E-02  0.1247797E+00
         -1   -1    0    0    0  501 -0.00000000000E+00  0.00000000000E+00  0.50147998565E+03  0.50147998565E+03  0.00000000000E+00 0.  1.
          1   -1    0    0  501    0  0.00000000000E+00 -0.00000000000E+00 -0.29903528300E+02  0.29903528300E+02  0.00000000000E+00 0. -1.
         23    2    1    2    0    0  0.56951397185E+02  0.80411190800E+01  0.27650171294E+03  0.30888642879E+03  0.12509799118E+03 0.  0.
          5    1    3    3  502    0  0.15140703919E+02  0.63801080620E+02  0.10694204989E+03  0.12551451405E+03  0.41800000000E+01 0.  1.
         -5    1    3    3    0  502  0.41810693266E+02 -0.55759961540E+02  0.16955966305E+03  0.18337191474E+03  0.41800000000E+01 0.  1.
        -11    1    1    2    0    0 -0.13124137212E+02  0.35035258338E+02  0.35813706993E+02  0.51791253247E+02  0.00000000000E+00 0. -1.
         11    1    1    2    0    0 -0.43827259972E+02 -0.43076377418E+02  0.15926103742E+03  0.17070583191E+03  0.00000000000E+00 0.  1.
</event>
<event>
 7    1  0.6473813E-006  0.1650463E+03  0.7561462E-02  0.1183114E+00
         -2   -1    0    0    0  501 -0.00000000000E+00  0.00000000000E+00  0.13555752416E+03  0.13555752416E+03  0.00000000000E+00 0.  1.
          2   -1    0    0  501    0  0.00000000000E+00 -0.00000000000E+00 -0.28308319768E+03  0.28308319768E+03  0.00000000000E+00 0. -1.
         23    2    1    2    0    0  0.14330148390E+03  0.67034081821E+02 -0.35490398931E+02  0.20486258635E+03  0.12522071496E+03 0.  0.
          5    1    3    3  502    0  0.90785920903E+02  0.60380573723E+01  0.35209368445E+02  0.97650978476E+02  0.41800000000E+01 0. -1.
         -5    1    3    3    0  502  0.52515562997E+02  0.60996024448E+02 -0.70699767376E+02  0.10721160787E+03  0.41800000000E+01 0. -1.
        -11    1    1    2    0    0 -0.41788174401E+02 -0.15520022794E+02 -0.86204604631E+02  0.97048217330E+02  0.00000000000E+00 0. -1.
         11    1    1    2    0    0 -0.10151330950E+03 -0.51514059026E+02 -0.25830669956E+02  0.11672991816E+03  0.00000000000E+00 0.  1.
</event>
<event>
 7    1  0.6473813E-006  0.4431486E+02  0.7561462E-02  0.1478665E+00
         -2   -1    0    0    0  501 -0.00000000000E+00  0.00000000000E+00  0.38485516280E+03  0.38485516280E+03  0.00000000000E+00 0. -1.
          2   -1    0    0  501    0  0.00000000000E+00 -0.00000000000E+00 -0.15624798871E+02  0.15624798871E+02  0.00000000000E+00 0.  1.
         23    2    1    2    0    0  0.18651433357E+02  0.55078365233E+01  0.32300254605E+03  0.34247649187E+03  0.11216635191E+03 0.  0.
          5    1    3    3  502    0  0.34785388483E+02  0.10576509929E+02  0.32298937803E+03  0.32505614367E+03  0.41800000000E+01 0. -1.
         -5    1    3    3    0  502 -0.16133955126E+02 -0.50686734055E+01  0.13168014071E-01  0.17420348202E+02  0.41800000000E+01 0.  1.
        -11    1    1    2    0    0  0.47751118245E+01 -0.97016788554E+01  0.10481422834E+02  0.15059365530E+02  0.00000000000E+00 0.  1.
         11    1    1    2    0    0 -0.23426545182E+02  0.41938423321E+01  0.35746395051E+02  0.42944104273E+02  0.00000000000E+00 0. -1.
</event>
<event>
 7    1  0.6473813E-006  0.9652691E+02  0.7561462E-02  0.1287774E+00
         -1   -1    0    0    0  501 -0.00000000000E+00  0.00000000000E+00  0.22825559565E+03  0.22825559565E+03  0.00000000000E+00 0.  1.
          1   -1    0    0  501    0  0.00000000000E+00 -0.00000000000E+00 -0.88785329537E+02  0.88785329537E+02  0.00000000000E+00 0. -1.
         23    2    1    2    0    0 -0.46894783523E+02 -0.43081280947E+02  0.15466076006E+03  0.20886005542E+03  0.12508978598E+03 0.  0.
          5    1    3    3  502    0 -0.63459075617E+02 -0.50471885800E+02  0.36113071020E+02  0.88859956296E+02  0.41800000000E+01 0.  1.
         -5    1    3    3    0  502  0.16564292094E+02  0.73906048533E+01  0.11854768904E+03  0.12000009912E+03  0.41800000000E+01 0.  1.
        -11    1    1    2    0    0 -0.13808058034E+02  0.27198961044E+02  0.19772710977E+02  0.36351149196E+02  0.00000000000E+00 0.  1.
         11    1    1    2    0    0  0.60702841557E+02  0.15882319903E+02 -0.34963204925E+02  0.71829720570E+02  0.00000000000E+00 0. -1.
</event>
<event>
 7    1  0.6473813E-006  0.1074539E+03  0.7561462E-02  0.1265359E+00
          2   -1    0    0  501    0  0.00000000000E+00  0.00000000000E+00  0.41731314374E+03  0.41731314374E+03  0.00000000000E+00 0. -1.
         -2   -1    0    0    0  501 -0.00000000000E+00 -0.00000000000E+00 -0.55185322417E+02  0.55185322417E+02  0.00000000000E+00 0.  1.
         23    2    1    2    0    0  0.53920160314E+01 -0.93142171565E+02  0.11679974544E+03  0.19492468764E+03  0.12509562484E+03 0.  0.
          5    1    3    3  502    0  0.37334889440E+02 -0.42817640047E+02 -0.70667608642E+01  0.57399092134E+02  0.41800000000E+01 0.  1.
         -5    1    3    3    0  502 -0.31942873408E+02 -0.50324531518E+02  0.12386650630E+03  0.13752559550E+03  0.41800000000E+01 0.  1.
        -11    1    1    2    0    0  0.12735325906E+02  0.44342607046E+02  0.27713190892E+02  0.53818921162E+02  0.00000000000E+00 0.  1.
         11    1    1    2    0    0 -0.18127341937E+02  0.48799564519E+02  0.21761488499E+03  0.22375485736E+03  0.00000000000E+00 0. -1.
</event>
<event>
 7    1  0.6473813E-006  0.1234672E+03  0.7561462E-02  0.1237484E+00
          4   -1    0    0  501    0  0.00000000000E+00  0.00000000000E+00  0.10975421991E+03  0.10975421991E+03  0.00000000000E+00 0.  1.
         -4   -1    0    0    0  501 -0.00000000000E+00 -0.00000000000E+00 -0.17685277428E+03  0.17685277428E+03  0.00000000000E+00 0. -1.
         23    2    1    2    0    0 -0.59281427047E+02  0.62909676433E+02 -0.18003084032E+02  0.15310995143E+03  0.12508649492E+03 0.  0.
          5    1    3    3  502    0 -0.45341156188E+02  0.10046456521E+03 -0.22533755397E+02  0.11257971327E+03  0.41800000000E+01 0.  1.
         -5    1    3    3    0  502 -0.13940270859E+02 -0.37554888776E+02  0.45306713650E+01  0.40530238164E+02  0.41800000000E+01 0.  1.
        -11    1    1    2    0    0  0.39434900374E+02 -0.11238412105E+02 -0.64149111886E+02  0.76134892329E+02  0.00000000000E+00 0. -1.
         11    1    1    2    0    0  0.19846526673E+02 -0.51671264329E+02  0.15053641551E+02  0.57362150432E+02  0.00000000000E+00 0.  1.
</event>
<event>
 7    1  0.6473813E-006  0.1185688E+03  0.7561462E-02  0.1245477E+00
          1   -1    0    0  501    0  0.00000000000E+00  0.00000000000E+00  0.11419378369E+03  0.11419378369E+03  0.00000000000E+00 0. -1.
         -1   -1    0    0    0  501 -0.00000000000E+00 -0.00000000000E+00 -0.13280563446E+03  0.13280563446E+03  0.00000000000E+00 0.  1.
         23    2    1    2    0    0 -0.47387351636E+02 -0.26744496956E+02 -0.30200144626E+02  0.13971460711E+03  0.12508914218E+03 0.  0.
          5    1    3    3  502    0 -0.79311202324E+02  0.15003502923E+02 -0.32081348999E+02  0.86960090085E+02  0.41800000000E+01 0.  1.
         -5    1    3    3    0  502  0.31923850688E+02 -0.41747999879E+02  0.18812043734E+01  0.52754517025E+02  0.41800000000E+01 0.  1.
        -11    1    1    2    0    0  0.36384618260E+02  0.59107423066E+02 -0.44011424151E+01  0.69547810619E+02  0.00000000000E+00 0.  1.
         11    1    1    2    0    0  0.11002733376E+02 -0.32362926109E+02  0.15989436268E+02  0.37737000414E+02  0.00000000000E+00 0. -1.
</event>
<event>
 7    1  0.6473813E-006  0.1529399E+03  0.7561462E-02  0.1196906E+00
          1   -1    0    0  501    0  0.00000000000E+00  0.00000000000E+00  0.14923166806E+03  0.14923166806E+03  0.00000000000E+00 0. -1.
         -1   -1    0    0    0  501 -0.00000000000E+00 -0.00000000000E+00 -0.16036598079E+03  0.16036598079E+03  0.00000000000E+00 0.  1.
         23    2    1    2    0    0  0.97306440072E+02  0.49975745495E+02 -0.15780045223E+01  0.16618354924E+03  0.12509341919E+03 0.  0.
          5    1    3    3  502    0 -0.20881631674E+02  0.39036394638E+02 -0.14365421920E+02  0.46730294185E+02  0.41800000000E+01 0.  1.
         -5    1    3    3    0  502  0.11818807175E+03  0.10939350856E+02  0.12787417397E+02  0.11945325506E+03  0.41800000000E+01 0.  1.
        -11    1    1    2    0    0 -0.15947036296E+02 -0.58692520530E+02  0.15414487626E+01  0.60839921080E+02  0.00000000000E+00 0.  1.
         11    1    1    2    0    0 -0.81359403776E+02  0.87167750350E+01 -0.11097756967E+02  0.82574178528E+02  0.00000000000E+00 0. -1.
</event>
<event>
 7    1  0.6473813E-006  0.1144787E+03  0.7561462E-02  0.1252494E+00
          4   -1    0    0  501    0  0.00000000000E+00  0.00000000000E+00  0.28806719081E+02  0.28806719081E+02  0.00000000000E+00 0. -1.
         -4   -1    0    0    0  501 -0.00000000000E+00 -0.00000000000E+00 -0.53736197937E+03  0.53736197937E+03  0.00000000000E+00 0.  1.
         23    2    1    2    0    0 -0.41492784966E+02  0.39398214638E+01 -0.37888272497E+03  0.40116951686E+03  0.12509072142E+03 0.  0.
          5    1    3    3  502    0 -0.68006979516E+02 -0.39988806243E+02 -0.25676274861E+03  0.26864220696E+03  0.41800000000E+01 0.  1.
         -5    1    3    3    0  502  0.26514194550E+02  0.43928627707E+02 -0.12211997635E+03  0.13252730990E+03  0.41800000000E+01 0.  1.
        -11    1    1    2    0    0  0.62800388416E+02 -0.25849060277E+02 -0.67657460145E+02  0.95862373305E+02  0.00000000000E+00 0. -1.
         11    1    1    2    0    0 -0.21307603450E+02  0.21909238813E+02 -0.62015075180E+02  0.69136808284E+02  0.00000000000E+00 0.  1.
</event>
<event>
 7    1  0.6473813E-006  0.9177856E+02  0.7561462E-02  0.1298601E+00
         -1   -1    0    0    0  501 -0.00000000000E+00  0.00000000000E+00  0.42837940690E+02  0.42837940690E+02  0.00000000000E+00 0.  1.
          1   -1    0    0  501    0  0.00000000000E+00 -0.00000000000E+00 -0.38351018292E+03  0.38351018292E+03  0.00000000000E+00 0. -1.
         23    2    1    2    0    0  0.86588225041E+01  0.68105324281E+02 -0.18937656997E+03  0.23711454604E+03  0.12508601956E+03 0.  0.
          5    1    3    3  502    0 -0.37285553276E+02  0.30431122770E+02 -0.11679357836E+02  0.49700558504E+02  0.41800000000E+01 0.  1.
         -5    1    3    3    0  502  0.45944375780E+02  0.37674201511E+02 -0.17769721213E+03  0.18741398754E+03  0.41800000000E+01 0.  1.
        -11    1    1    2    0    0 -0.20834236016E+02 -0.43645356897E+02 -0.15603376389E+02  0.50817791410E+02  0.00000000000E+00 0.  1.
         11    1    1    2    0    0  0.12175413512E+02 -0.24459967385E+02 -0.13569229587E+03  0.13841578616E+03  0.00000000000E+00 0. -1.
</event>
<event>
 7    1  0.6473813E-006  0.7419215E+02  0.7561462E-02  0.1346391E+00
          1   -1    0    0  501    0  0.00000000000E+00  0.00000000000E+00  0.46716593605E+03  0.46716593605E+03  0.00000000000E+00 0. -1.
         -1   -1    0    0    0  501 -0.00000000000E+00 -0.00000000000E+00 -0.28048390743E+02  0.28048390743E+02  0.00000000000E+00 0.  1.
         23    2    1    2    0    0  0.16650761914E+02  0.21425329010E+02  0.19891212656E+03  0.23653544659E+03  0.12508673314E+03 0.  0.
          5    1    3    3  502    0  0.31641648343E+02  0.17328812575E+02  0.21243391772E+03  0.21551594710E+03  0.41800000000E+01 0. -1.
         -5    1    3    3    0  502 -0.14990886429E+02  0.40965164347E+01 -0.13521791162E+02  0.21019499496E+02  0.41800000000E+01 0. -1.
        -11    1    1    2    0    0  0.36272447370E+02 -0.23136581527E+02  0.10465769970E+03  0.11315575968E+03  0.00000000000E+00 0.  1.
         11    1    1    2    0    0 -0.52923209283E+02  0.17112525174E+01  0.13554771905E+03  0.14552312052E+03  0.00000000000E+00 0. -1.
</event>
<event>
 7    1  0.6473813E-006  0.1441077E+03  0.7561462E-02  0.1207906E+00
          2   -1    0    0  501    0  0.00000000000E+00  0.00000000000E+00  0.13011636940E+03  0.13011636940E+03  0.00000000000E+00 0. -1.
         -2   -1    0    0    0  501 -0.00000000000E+00 -0.00000000000E+00 -0.16756448687E+03  0.16756448687E+03  0.00000000000E+00 0.  1.
         23    2    1    2    0    0  0.26309012825E+02  0.95540049062E+02 -0.30347179708E+02  0.16244685053E+03  0.12509181748E+03 0.  0.
          5    1    3    3  502    0  0.55109100092E+02  0.11191428517E+03 -0.15061750597E+02  0.12572250741E+03  0.41800000000E+01 0.  1.
         -5    1    3    3    0  502 -0.28800087267E+02 -0.16374236105E+02 -0.15285429110E+02  0.36724343121E+02  0.41800000000E+01 0.  1.
        -11    1    1    2    0    0 -0.51633309211E+02 -0.90488055296E+02 -0.20439863486E+02  0.10616908585E+03  0.00000000000E+00 0.  1.
         11    1    1    2    0    0  0.25324296386E+02 -0.50519937651E+01  0.13338925729E+02  0.29064919887E+02  0.00000000000E+00 0. -1.
</event>
<event>
 7    1  0.6473813E-006  0.1069599E+03  0.7561462E-02  0.1266306E+00
          1   -1    0    0  501    0  0.00000000000E+00  0.00000000000E+00  0.56604856919E+03  0.56604856919E+03  0.00000000000E+00 0. -1.
         -1   -1    0    0    0  501 -0.00000000000E+00 -0.00000000000E+00 -0.36176568123E+02  0.36176568123E+02  0.00000000000E+00 0.  1.
         23    2    1    2    0    0  0.53667064899E+02 -0.46866333895E+02  0.16196839491E+03  0.21669849003E+03  0.12509143667E+03 0.  0.
          5    1    3    3  502    0  0.18536231162E+02 -0.58648028373E+02  0.12831589713E+02  0.62970669302E+02  0.41800000000E+01 0.  1.
         -5    1    3    3    0  502  0.35130833737E+02  0.11781694478E+02  0.14913680519E+03  0.15372782073E+03  0.41800000000E+01 0.  1.
        -11    1    1    2    0    0 -0.74865036113E+01 -0.26916444552E+02  0.78959048206E+02  0.83756038691E+02  0.00000000000E+00 0. -1.
         11    1    1    2    0    0 -0.46180561288E+02  0.73782778447E+02  0.28894455796E+03  0.30177060859E+03  0.00000000000E+00 0.  1.
</event>
<event>
 6    1  0.6473813E-006  0.2223513E+03  0.7561462E-02  0.1132142E+00
         -1   -1    0    0    0  501 -0.00000000000E+00  0.00000000000E+00  0.36395366992E+03  0.36395366992E+03  0.00000000000E+00 0.  1.
          1   -1    0    0  501    0  0.00000000000E+00 -0.00000000000E+00 -0.17524198142E+03  0.17524198142E+03  0.00000000000E+00 0. -1.
          5    1    1    2  502    0 -0.15737798359E+03 -0.12537687025E+02  0.51717323066E+02  0.16618416657E+03  0.41800000000E+01 0. -1.
         -5    1    1    2    0  502 -0.54826443305E+02  0.19127513358E+02  0.12977542438E+03  0.14223548723E+03  0.41800000000E+01 0.  1.
        -11    1    1    2    0    0  0.20800243373E+02 -0.29164801699E+02  0.12589976425E+02  0.37970294822E+02  0.00000000000E+00 0.  1.
         11    1    1    2    0    0  0.19140418352E+03  0.22574975365E+02 -0.53710353775E+01  0.19280570272E+03  0.00000000000E+00 0. -1.
</event>
<event>
 7    1  0.6473813E-006  0.1672415E+03  0.7561462E-02  0.1180755E+00
          1   -1    0    0  501    0  0.00000000000E+00  0.00000000000E+00  0.12811311954E+03  0.12811311954E+03  0.00000000000E+00 0. -1.
         -1   -1    0    0    0  501 -0.00000000000E+00 -0.00000000000E+00 -0.23097132920E+03  0.23097132920E+03  0.00000000000E+00 0.  1.
         23    2    1    2    0    0  0.48283498299E+01 -0.13002960908E+03 -0.83556345232E+02  0.19889475135E+03  0.12508575893E+03 0.  0.
          5    1    3    3  502    0  0.56280806064E+02 -0.11059034101E+03 -0.47183525761E+02  0.13282134678E+03  0.41800000000E+01 0.  1.
         -5    1    3    3    0  502 -0.51452456234E+02 -0.19439268067E+02 -0.36372819471E+02  0.66073404572E+02  0.41800000000E+01 0.  1.
        -11    1    1    2    0    0 -0.35344032837E+02  0.19225042860E+02  0.10253857898E+02  0.41520411028E+02  0.00000000000E+00 0. -1.
         11    1    1    2    0    0  0.30515683007E+02  0.11080456622E+03 -0.29555722322E+02  0.11866928637E+03  0.00000000000E+00 0.  1.
</event>
<event>
 7    1  0.6473813E-006  0.1050840E+03  0.7561462E-02  0.1269954E+00
          1   -1    0    0  501    0  0.00000000000E+00  0.00000000000E+00  0.13332703548E+03  0.13332703548E+03  0.00000000000E+00 0. -1.
         -1   -1    0    0    0  501 -0.00000000000E+00 -0.00000000000E+00 -0.11038912585E+03  0.11038912585E+03  0.00000000000E+00 0.  1.
         23    2    1    2    0    0 -0.11581824922E+02 -0.30543365940E+02 -0.34199787400E+02  0.13312566075E+03  0.12444187486E+03 0.  0.
          5    1    3    3  502    0  0.20063936445E+02 -0.72833418430E+02 -0.19254499604E+02  0.78073532909E+02  0.41800000000E+01 0. -1.
         -5    1    3    3    0  502 -0.31645761367E+02  0.42290052490E+02 -0.14945287796E+02  0.55052127837E+02  0.41800000000E+01 0.  1.
        -11    1    1    2    0    0 -0.31986964873E+02  0.11845249403E+02  0.52961669759E+02  0.62995351565E+02  0.00000000000E+00 0.  1.
         11    1    1    2    0    0  0.43568789795E+02  0.18698116537E+02  0.41760272791E+01  0.47595149018E+02  0.00000000000E+00 0. -1.
</event>
<event>
 7    1  0.6473813E-006  0.8838656E+02  0.7561462E-02  0.1306807E+00
         -2   -1    0    0    0  501 -0.00000000000E+00  0.00000000000E+00  0.80311356140E+02  0.80311356140E+02  0.00000000000E+00 0.  1.
          2   -1    0    0  501    0  0.00000000000E+00 -0.00000000000E+00 -0.22630314747E+03  0.22630314747E+03  0.00000000000E+00 0. -1.
         23    2    1    2    0    0  0.19504936569E+02 -0.22068137052E+02  0.30334735924E+01  0.12854417076E+03  0.12508779577E+03 0.  0.
          5    1    3    3  502    0 -0.41321656125E+02  0.19915990946E+02 -0.21125909053E+02  0.50674474774E+02  0.41800000000E+01 0. -1.
         -5    1    3    3    0  502  0.60826592694E+02 -0.41984127999E+02  0.24159382645E+02  0.77869695982E+02  0.41800000000E+01 0. -1.
        -11    1    1    2    0    0 -0.13037037773E+02  0.37634469593E+02 -0.15511554581E+03  0.16014727662E+03  0.00000000000E+00 0. -1.
         11    1    1    2    0    0 -0.64678987964E+01 -0.15566332540E+02  0.60902808889E+01  0.17923056238E+02  0.00000000000E+00 0.  1.
</event>
<event>
 7    1  0.6473813E-006  0.1019137E+03  0.7561462E-02  0.1276322E+00
         -1   -1    0    0    0  501 -0.00000000000E+00  0.00000000000E+00  0.53198033602E+02  0.53198033602E+02  0.00000000000E+00 0.  1.
          1   -1    0    0  501    0  0.00000000000E+00 -0.00000000000E+00 -0.25647399035E+03  0.25647399035E+03  0.00000000000E+00 0. -1.
         23    2    1    2    0    0 -0.24195619527E+01 -0.34900891054E+02 -0.80977184884E+02  0.15306302626E+03  0.12508820512E+03 0.  0.
          5    1    3    3  502    0 -0.41832860846E+02  0.14034821312E+02 -0.78371487270E+02  0.90036253102E+02  0.41800000000E+01 0.  1.
         -5    1    3    3    0  502  0.39413298894E+02 -0.48935712366E+02 -0.26056976143E+01  0.63026773156E+02  0.41800000000E+01 0.  1.
        -11    1    1    2    0    0  0.33456088845E+02 -0.15867909019E+02 -0.59624573606E+02  0.70186823515E+02  0.00000000000E+00 0.  1.
         11    1    1    2    0    0 -0.31036526893E+02  0.50768800073E+02 -0.62674198257E+02  0.86422174177E+02  0.00000000000E+00 0. -1.
</event>
<event>
 7    1  0.6473813E-006  0.1686304E+03  0.7561462E-02  0.1179284E+00
          1   -1    0    0  501    0  0.00000000000E+00  0.00000000000E+00  0.89759395556E+03  0.89759395556E+03  0.00000000000E+00 0. -1.
         -1   -1    0    0    0  501 -0.00000000000E+00 -0.00000000000E+00 -0.37346804240E+02  0.37346804240E+02  0.00000000000E+00 0.  1.
         23    2    1    2    0    0  0.43341891848E+02 -0.14111782075E+03  0.45542485922E+03  0.49482481416E+03  0.12508811054E+03 0.  0.
          5    1    3    3  502    0  0.75991782184E+02 -0.94393091753E+02  0.38763207848E+03  0.40615379771E+03  0.41800000000E+01 0. -1.
         -5    1    3    3    0  502 -0.32649890336E+02 -0.46724728994E+02  0.67792780739E+02  0.88671016454E+02  0.41800000000E+01 0. -1.
        -11    1    1    2    0    0  0.13893102972E+02  0.43816245812E+02  0.50696417596E+02  0.68432510288E+02  0.00000000000E+00 0. -1.
         11    1    1    2    0    0 -0.57234994820E+02  0.97301574935E+02  0.35412587451E+03  0.37168343535E+03  0.00000000000E+00 0.  1.
</event>
<event>
 7    1  0.6473813E-006  0.9062114E+02  0.7561462E-02  0.1301354E+00
         -2   -1    0    0    0  501 -0.00000000000E+00  0.00000000000E+00  0.54569741734E+02  0.54569741734E+02  0.00000000000E+00 0.  1.
          2   -1    0    0  501    0  0.00000000000E+00 -0.00000000000E+00 -0.25989945127E+03  0.25989945127E+03  0.00000000000E+00 0. -1.
         23    2    1    2    0    0 -0.19006881142E+01  0.11022408479E+02 -0.49538222221E+02  0.13501041117E+03  0.12509464241E+03 0.  0.
          5    1    3    3  502    0 -0.28895612069E+02  0.42252631480E+02  0.19108980448E+02  0.54798419663E+02  0.41800000000E+01 0.  1.
         -5    1    3    3    0  502  0.26994923954E+02 -0.31230223001E+02 -0.68647202669E+02  0.80211991511E+02  0.41800000000E+01 0.  1.
        -11    1    1    2    0    0 -0.30208856438E+02  0.25664105023E+02 -0.81020368478E+02  0.90197125244E+02  0.00000000000E+00 0.  1.
         11    1    1    2    0    0  0.32109544552E+02 -0.36686513502E+02 -0.74771118839E+02  0.89261656587E+02  0.00000000000E+00 0. -1.
</event>
<event>
 7    1  0.6473813E-006  0.1805415E+03  0.7561462E-02  0.1167280E+00
         -2   -1    0    0    0  501 -0.00000000000E+00  0.00000000000E+00  0.34425542085E+02  0.34425542085E+02  0.00000000000E+00 0.  1.
          2   -1    0    0  501    0  0.00000000000E+00 -0.00000000000E+00 -0.10662041038E+04  0.10662041038E+04  0.00000000000E+00 0. -1.
         23    2    1    2    0    0  0.78703152315E+02  0.13607582493E+03 -0.56893248627E+03  0.60335913120E+03  0.12508897216E+03 0.  0.
          5    1    3    3  502    0 -0.17082672283E+02  0.71994763826E+02 -0.32774815405E+03  0.33602289891E+03  0.41800000000E+01 0.  1.
         -5    1    3    3    0  502  0.95785824598E+02  0.64081061101E+02 -0.24118433222E+03  0.26733623229E+03  0.41800000000E+01 0.  1.
        -11    1    1    2    0    0 -0.13205510560E+02 -0.91443419875E+02 -0.16550758673E+03  0.18954958669E+03  0.00000000000E+00 0.  1.
         11    1    1    2    0    0 -0.65497641756E+02 -0.44632405052E+02 -0.29733848870E+03  0.30772092798E+03  0.00000000000E+00 0. -1.
</event>
<event>
 7    1  0.6473813E-006  0.3017206E+03  0.7561462E-02  0.1084384E+00
         -1   -1    0    0    0  501 -0.00000000000E+00  0.00000000000E+00  0.84667026442E+02  0.84667026442E+02  0.00000000000E+00 0.  1.
          1   -1    0    0  501    0  0.00000000000E+00 -0.00000000000E+00 -0.11416306727E+04  0.11416306727E+04  0.00000000000E+00 0. -1.
         23    2    1    2    0    0 -0.27485240142E+03  0.97416952649E+02 -0.45518409573E+03  0.55173415058E+03  0.11038164106E+03 0.  0.
          5    1    3    3  502    0 -0.28414918532E+03  0.93917114449E+02 -0.42604544287E+03  0.52066628055E+03  0.41800000000E+01 0. -1.
         -5    1    3    3    0  502  0.92967838994E+01  0.34998382002E+01 -0.29138652855E+02  0.31067870035E+02  0.41800000000E+01 0.  1.
        -11    1    1    2    0    0  0.74345552324E+02 -0.41794359656E+02 -0.10049030709E+03  0.13180414056E+03  0.00000000000E+00 0. -1.
         11    1    1    2    0    0  0.20050684910E+03 -0.55622592993E+02 -0.50128924343E+03  0.54275940799E+03  0.00000000000E+00 0.  1.
</event>
<event>
 7    1  0.6473813E-006  0.8512896E+02  0.7561462E-02  0.1315096E+00
          1   -1    0    0  501    0  0.00000000000E+00  0.00000000000E+00  0.87060019142E+02  0.87060019142E+02  0.00000000000E+00 0. -1.
         -1   -1    0    0    0  501 -0.00000000000E+00 -0.00000000000E+00 -0.14731325180E+03  0.14731325180E+03  0.00000000000E+00 0.  1.
         23    2    1    2    0    0 -0.18443882312E+01  0.28141066450E+01 -0.71782873502E+02  0.14426234263E+03  0.12509005400E+03 0.  0.
          5    1    3    3  502    0  0.13575492191E+02  0.47371614178E+02 -0.82072853251E+02  0.95821654436E+02  0.41800000000E+01 0. -1.
         -5    1    3    3    0  502 -0.15419880422E+02 -0.44557507533E+02  0.10289979749E+02  0.48440688197E+02  0.41800000000E+01 0. -1.
        -11    1    1    2    0    0 -0.24144484069E+02 -0.28209158716E+02 -0.19846911186E+02  0.42102406464E+02  0.00000000000E+00 0.  1.
         11    1    1    2    0    0  0.25988872300E+02  0.25395052071E+02  0.31376552026E+02  0.48008521850E+02  0.00000000000E+00 0. -1.
</event>
<event>
 7    1  0.6473813E-006  0.1186388E+03  0.7561462E-02  0.1245360E+00
          1   -1    0    0  501    0  0.00000000000E+00  0.00000000000E+00  0.34951482457E+03  0.34951482457E+03  0.00000000000E+00 0. -1.
         -1   -1    0    0    0  501 -0.00000000000E+00 -0.00000000000E+00 -0.56425371595E+02  0.56425371595E+02  0.00000000000E+00 0.  1.
         23    2    1    2    0    0  0.56778796053E+02 -0.28297424804E+02  0.68597068353E+02  0.15613031621E+03  0.12508613800E+03 0.  0.
          5    1    3    3  502    0  0.90782789237E+02 -0.27178684164E+02  0.75413272017E+02  0.12118097908E+03  0.41800000000E+01 0.  1.
         -5    1    3    3    0  502 -0.34003993184E+02 -0.11187406399E+01 -0.68162036642E+01  0.34949337125E+02  0.41800000000E+01 0.  1.
        -11    1    1    2    0    0 -0.80287581178E+02  0.26575640817E+02  0.19066578044E+03  0.20858044062E+03  0.00000000000E+00 0. -1.
         11    1    1    2    0    0  0.23508785125E+02  0.17217839871E+01  0.33826604183E+02  0.41229439345E+02  0.00000000000E+00 0.  1.
</event>
<event>
 7    1  0.6473813E-006  0.2089363E+03  0.7561462E-02  0.1142411E+00
          3   -1    0    0  501    0  0.00000000000E+00  0.00000000000E+00  0.21823112007E+03  0.21823112007E+03  0.00000000000E+00 0. -1.
         -3   -1    0    0    0  501 -0.00000000000E+00 -0.00000000000E+00 -0.25821014570E+03  0.25821014570E+03  0.00000000000E+00 0.  1.
         23    2    1    2    0    0  0.12217619144E+03  0.16423169941E+03  0.20557828913E+02  0.24077145686E+03  0.12509675160E+03 0.  0.
          5    1    3    3  502    0  0.98792830736E+02  0.13153368791E+03  0.68345864813E+02  0.17818463485E+03  0.41800000000E+01 0. -1.
         -5    1    3    3    0  502  0.23383360704E+02  0.32698011504E+02 -0.47788035899E+02  0.62586822009E+02  0.41800000000E+01 0. -1.
        -11    1    1    2    0    0 -0.12716475578E+03 -0.14421711663E+03 -0.24072240129E+02  0.19377544887E+03  0.00000000000E+00 0. -1.
         11    1    1    2    0    0  0.49885643420E+01 -0.20014582782E+02 -0.36464614417E+02  0.41894360034E+02  0.00000000000E+00 0.  1.
</event>
<event>
 7    1  0.6473813E-006  0.1005670E+03  0.7561462E-02  0.1279108E+00
         -2   -1    0    0    0  501 -0.00000000000E+00  0.00000000000E+00  0.44497128037E+02  0.44497128037E+02  0.00000000000E+00 0.  1.
          2   -1    0    0  501    0  0.00000000000E+00 -0.00000000000E+00 -0.30512339203E+03  0.30512339203E+03  0.00000000000E+00 0. -1.
         23    2    1    2    0    0  0.45642892711E+02  0.26533859965E+02 -0.12575344028E+03  0.18506095668E+03  0.12508521322E+03 0.  0.
          5    1    3    3  502    0  0.75398970587E+02 -0.18929243964E+02 -0.93760595710E+02  0.12186813673E+03  0.41800000000E+01 0. -1.
         -5    1    3    3    0  502 -0.29756077875E+02  0.45463103929E+02 -0.31992844573E+02  0.63192819950E+02  0.41800000000E+01 0. -1.
        -11    1    1    2    0    0 -0.59462862537E+01 -0.28430085346E+02 -0.11776136693E+03  0.12129042672E+03  0.00000000000E+00 0. -1.
         11    1    1    2    0    0 -0.39696606458E+02  0.18962253810E+01 -0.17111456790E+02  0.43269136673E+02  0.00000000000E+00 0.  1.
</event>
<event>
 7    1  0.6473813E-006  0.8502802E+02  0.7561462E-02  0.1315359E+00
          2   -1    0    0  501    0  0.00000000000E+00  0.00000000000E+00  0.19172969335E+03  0.19172969335E+03  0.00000000000E+00 0. -1.
         -2   -1    0    0    0  501 -0.00000000000E+00 -0.00000000000E+00 -0.77566181571E+02  0.77566181571E+02  0.00000000000E+00 0.  1.
         23    2    1    2    0    0  0.67002426724E+01 -0.32329864759E+02  0.14025170430E+02  0.13013217911E+03  0.12509022834E+03 0.  0.
          5    1    3    3  502    0  0.44575694963E+02 -0.65060568532E+02  0.53689383440E+01  0.79159131237E+02  0.41800000000E+01 0. -1.
         -5    1    3    3    0  502 -0.37875452290E+02  0.32730703773E+02  0.86562320862E+01  0.50973047875E+02  0.41800000000E+01 0. -1.
        -11    1    1    2    0    0  0.86847412880E+01  0.67622728660E+01 -0.15906691007E+02  0.19343626452E+02  0.00000000000E+00 0.  1.
         11    1    1    2    0    0 -0.15384983960E+02  0.25567591893E+02  0.11604503236E+03  0.11982006936E+03  0.00000000000E+00 0. -1.
</event>
<event>
 7    1  0.6473813E-006  0.1114191E+03  0.7561462E-02  0.1257964E+00
          2   -1    0    0  501    0  0.00000000000E+00  0.00000000000E+00  0.56583605742E+02  0.56583605742E+02  0.00000000000E+00 0. -1.
         -2   -1    0    0    0  501 -0.00000000000E+00 -0.00000000000E+00 -0.31588600407E+03  0.31588600407E+03  0.00000000000E+00 0.  1.
         23    2    1    2    0    0  0.57712915065E+02 -0.37089544239E+02 -0.19561230664E+03  0.24190197568E+03  0.12468350522E+03 0.  0.
          5    1    3    3  502    0  0.68112458440E+02 -0.58598719984E+02 -0.70018413842E+02  0.11398757676E+03  0.41800000000E+01 0. -1.
         -5    1    3    3    0  502 -0.10399543375E+02  0.21509175745E+02 -0.12559389280E+03  0.12791439892E+03  0.41800000000E+01 0.  1.
        -11    1    1    2    0    0 -0.58491826427E+02 -0.11858710632E+02 -0.54369244320E+02  0.80733744522E+02  0.00000000000E+00 0. -1.
         11    1    1    2    0    0  0.77891136209E+00  0.48948254871E+02 -0.93208473685E+01  0.49833889608E+02  0.00000000000E+00 0.  1.
</event>
<event>
 7    1  0.6473813E-006  0.1870862E+03  0.7561462E-02  0.1161116E+00
          2   -1    0    0  501    0  0.00000000000E+00  0.00000000000E+00  0.37073565941E+03  0.37073565941E+03  0.00000000000E+00 0. -1.
         -2   -1    0    0    0  501 -0.00000000000E+00 -0.00000000000E+00 -0.12898822640E+03  0.12898822640E+03  0.00000000000E+00 0.  1.
         23    2    1    2    0    0  0.45919289820E+02 -0.15729292220E+03  0.17669155120E+02  0.20690202937E+03  0.12508639480E+03 0.  0.
          5    1    3    3  502    0 -0.34471148355E+02 -0.92674686450E+02  0.28815385225E+02  0.10307597394E+03  0.41800000000E+01 0. -1.
         -5    1    3    3    0  502  0.80390438175E+02 -0.64618235752E+02 -0.11146230105E+02  0.10382605543E+03  0.41800000000E+01 0. -1.
        -11    1    1    2    0    0  0.10964751610E+02  0.42143996312E+02  0.11953078400E+03  0.12721615670E+03  0.00000000000E+00 0. -1.
         11    1    1    2    0    0 -0.56884041430E+02  0.11514892589E+03  0.10454749389E+03  0.16560569973E+03  0.00000000000E+00 0.  1.
</event>
<event>
 7    1  0.6473813E-006  0.1211535E+03  0.7561462E-02  0.1241206E+00
         -2   -1    0    0    0  501 -0.00000000000E+00  0.00000000000E+00  0.22841792026E+02  0.22841792026E+02  0.00000000000E+00 0.  1.
          2   -1    0    0  501    0  0.00000000000E+00 -0.00000000000E+00 -0.78596062992E+03  0.78596062992E+03  0.00000000000E+00 0. -1.
         23    2    1    2    0    0 -0.65210216359E+02 -0.86222120676E+01 -0.26333801152E+03  0.29887074931E+03  0.12510036619E+03 0.  0.
          5    1    3    3  502    0 -0.42034842146E+02 -0.66501915684E+02 -0.15146132673E+03  0.17072620958E+03  0.41800000000E+01 0.  1.
         -5    1    3    3    0  502 -0.23175374214E+02  0.57879703616E+02 -0.11187668480E+03  0.12814453973E+03  0.41800000000E+01 0.  1.
        -11    1    1    2    0    0  0.64501998427E+01  0.35742086976E+02 -0.16442760270E+03  0.16839102823E+03  0.00000000000E+00 0.  1.
         11    1    1    2    0    0  0.58760016517E+02 -0.27119874908E+02 -0.33535322368E+03  0.34154064441E+03  0.00000000000E+00 0. -1.
</event>
<event>
 7    1  0.1240593E-005  0.2663549E+03  0.7561462E-02  0.1103384E+00
         -2   -1    0    0    0  501 -0.00000000000E+00  0.00000000000E+00  0.55945887111E+02  0.55945887111E+02  0.00000000000E+00 0.  1.
          2   -1    0    0  501    0  0.00000000000E+00 -0.00000000000E+00 -0.13137470340E+04  0.13137470340E+04  0.00000000000E+00 0. -1.
         23    2    1    2    0    0  0.19430578217E+03  0.14966769526E+03 -0.55516160880E+03  0.61968307221E+03  0.12509013598E+03 0.  0.
          5    1    3    3  502    0  0.15416032573E+03  0.44373813153E+02 -0.28784296347E+03  0.32955346355E+03  0.41800000000E+01 0.  1.
         -5    1    3    3    0  502  0.40145456444E+02  0.10529388210E+03 -0.26731864533E+03  0.29012960866E+03  0.41800000000E+01 0.  1.
        -11    1    1    2    0    0 -0.75520240622E+02 -0.10092407627E+02 -0.25978817867E+03  0.27073060635E+03  0.00000000000E+00 0. -1.
         11    1    1    2    0    0 -0.11878554155E+03 -0.13957528763E+03 -0.44285135940E+03  0.47927924253E+03  0.00000000000E+00 0.  1.
</event>
<event>
 7    1  0.6473813E-006  0.9911382E+02  0.7561462E-02  0.1282171E+00
         -2   -1    0    0    0  501 -0.00000000000E+00  0.00000000000E+00  0.36117662369E+02  0.36117662369E+02  0.00000000000E+00 0.  1.
          2   -1    0    0  501    0  0.00000000000E+00 -0.00000000000E+00 -0.36977203000E+03  0.36977203000E+03  0.00000000000E+00 0. -1.
         23    2    1    2    0    0 -0.94504752687E+01  0.20435121279E+02 -0.13246554743E+03  0.18358197621E+03  0.12509322550E+03 0.  0.
          5    1    3    3  502    0  0.49629700062E+02  0.40538035443E+02 -0.60402477099E+02  0.88161051976E+02  0.41800000000E+01 0. -1.
         -5    1    3    3    0  502 -0.59080175331E+02 -0.20102914165E+02 -0.72063070335E+02  0.95420924231E+02  0.41800000000E+01 0. -1.
        -11    1    1    2    0    0 -0.28671504060E+02 -0.16646650909E+02 -0.16914424585E+03  0.17236282092E+03  0.00000000000E+00 0. -1.
         11    1    1    2    0    0  0.38121979329E+02 -0.37884703695E+01 -0.32044574351E+02  0.49944895245E+02  0.00000000000E+00 0.  1.
</event>
<event>
 7    1  0.6473813E-006  0.9471204E+02  0.7561462E-02  0.1291826E+00
          3   -1    0    0  501    0  0.00000000000E+00  0.00000000000E+00  0.55208364923E+02  0.55208364923E+02  0.00000000000E+00 0.  1.
         -3   -1    0    0    0  501 -0.00000000000E+00 -0.00000000000E+00 -0.24474141121E+03  0.24474141121E+03  0.00000000000E+00 0. -1.
         23    2    1    2    0    0  0.11576534071E+02 -0.33540217007E+02 -0.74812376499E+02  0.15001705404E+03  0.12509701247E+03 0.  0.
          5    1    3    3  502    0  0.15215871896E+02 -0.80708471685E+02 -0.52303693306E+02  0.97460396535E+02  0.41800000000E+01 0.  1.
         -5    1    3    3    0  502 -0.36393378241E+01  0.47168254679E+02 -0.22508683192E+02  0.52556657507E+02  0.41800000000E+01 0.  1.
        -11    1    1    2    0    0 -0.13973483738E+01  0.44624060341E+02 -0.12431278811E+03  0.13208682232E+03  0.00000000000E+00 0. -1.
         11    1    1    2    0    0 -0.10179185698E+02 -0.11083843335E+02  0.95921183228E+01  0.17845899766E+02  0.00000000000E+00 0.  1.
</event>
<event>
 7    1  0.1462896E-005  0.2574948E+03  0.7561462E-02  0.1108658E+00
         -1   -1    0    0    0  501 -0.00000000000E+00  0.00000000000E+00  0.54553059646E+02  0.54553059646E+02  0.00000000000E+00 0.  1.
          1   -1    0    0  501    0  0.00000000000E+00 -0.00000000000E+00 -0.13551630073E+04  0.13551630073E+04  0.00000000000E+00 0. -1.
         23    2    1    2    0    0  0.12474662612E+03  0.20315936596E+03 -0.48384677111E+03  0.55370679787E+03  0.12509225154E+03 0.  0.
          5    1    3    3  502    0  0.80993348654E+01  0.12043183694E+03 -0.16738693985E+03  0.20641048086E+03  0.41800000000E+01 0. -1.
         -5    1    3    3    0  502  0.11664729126E+03  0.82727529016E+02 -0.31645983125E+03  0.34729631701E+03  0.41800000000E+01 0. -1.
        -11    1    1    2    0    0 -0.99402118123E+01 -0.87919746553E+02 -0.37361129775E+03  0.38394542770E+03  0.00000000000E+00 0. -1.
         11    1    1    2    0    0 -0.11480641431E+03 -0.11523961941E+03 -0.44315187875E+03  0.47206384133E+03  0.00000000000E+00 0.  1.
</event>
<event>
 7    1  0.6473813E-006  0.1395280E+03  0.7561462E-02  0.1213965E+00
         -2   -1    0    0    0  501 -0.00000000000E+00  0.00000000000E+00  0.19886134793E+03  0.19886134793E+03  0.00000000000E+00 0.  1.
          2   -1    0    0  501    0  0.00000000000E+00 -0.00000000000E+00 -0.18210679540E+03  0.18210679540E+03  0.00000000000E+00 0. -1.
         23    2    1    2    0    0 -0.26506219957E+02 -0.12215858589E+03  0.10526935503E+03  0.20580036514E+03  0.12508738299E+03 0.  0.
          5    1    3    3  502    0 -0.32644434265E+02 -0.11737249001E+03  0.13079288442E+03  0.17879097157E+03  0.41800000000E+01 0. -1.
         -5    1    3    3    0  502  0.61382143080E+01 -0.47860958773E+01 -0.25523529391E+02  0.27009393574E+02  0.41800000000E+01 0. -1.
        -11    1    1    2    0    0 -0.85917863680E+01 -0.90624766668E+01 -0.18583063552E+02  0.22389227930E+02  0.00000000000E+00 0. -1.
         11    1    1    2    0    0  0.35098006325E+02  0.13122106256E+03 -0.69931738951E+02  0.15277855026E+03  0.00000000000E+00 0.  1.
</event>
<event>
 7    1  0.6473813E-006  0.1049677E+03  0.7561462E-02  0.1270183E+00
          1   -1    0    0  501    0  0.00000000000E+00  0.00000000000E+00  0.48697444570E+02  0.48697444570E+02  0.00000000000E+00 0. -1.
         -1   -1    0    0    0  501 -0.00000000000E+00 -0.00000000000E+00 -0.24637200208E+03  0.24637200208E+03  0.00000000000E+00 0.  1.
         23    2    1    2    0    0 -0.40195763405E+01  0.51771209927E+02 -0.13703962349E+03  0.19267328744E+03  0.12508685828E+03 0.  0.
          5    1    3    3  502    0  0.20316361538E+02  0.84742377823E+02 -0.61863623024E+02  0.10695141607E+03  0.41800000000E+01 0.  1.
         -5    1    3    3    0  502 -0.24335937878E+02 -0.32971167896E+02 -0.75176000466E+02  0.85721871369E+02  0.41800000000E+01 0.  1.
        -11    1    1    2    0    0  0.33090384763E+02 -0.21126915308E+02 -0.37231167974E+02  0.54106191724E+02  0.00000000000E+00 0.  1.
         11    1    1    2    0    0 -0.29070808423E+02 -0.30644294619E+02 -0.23403766049E+02  0.48289967491E+02  0.00000000000E+00 0. -1.
</event>
<event>
 7    1  0.6473813E-006  0.8180946E+02  0.7561462E-02  0.1323993E+00
          2   -1    0    0  501    0  0.00000000000E+00  0.00000000000E+00  0.14203998822E+03  0.14203998822E+03  0.00000000000E+00 0. -1.
         -2   -1    0    0    0  501 -0.00000000000E+00 -0.00000000000E+00 -0.11179951421E+03  0.11179951421E+03  0.00000000000E+00 0.  1.
         23    2    1    2    0    0 -0.39361176760E+02 -0.26194178806E+02 -0.26109155100E+02  0.13625331433E+03  0.12509132842E+03 0.  0.
          5    1    3    3  502    0 -0.49712883745E+02  0.14395972121E+02 -0.62043890048E+02  0.80904459184E+02  0.41800000000E+01 0.  1.
         -5    1    3    3    0  502  0.10351706985E+02 -0.40590150927E+02  0.35934734948E+02  0.55348855142E+02  0.41800000000E+01 0.  1.
        -11    1    1    2    0    0  0.38972971679E+02  0.39964648694E+02  0.75562122735E+02  0.93945197104E+02  0.00000000000E+00 0. -1.
         11    1    1    2    0    0  0.38820508076E+00 -0.13770469888E+02 -0.19212493625E+02  0.23640990999E+02  0.00000000000E+00 0.  1.
</event>
<event>
 7    1  0.6473813E-006  0.1116114E+03  0.7561462E-02  0.1257615E+00
         -2   -1    0    0    0  501 -0.00000000000E+00  0.00000000000E+00  0.10628624002E+04  0.10628624002E+04  0.00000000000E+00 0.  1.
          2   -1    0    0  501    0  0.00000000000E+00 -0.00000000000E+00 -0.20074752911E+02  0.20074752911E+02  0.00000000000E+00 0. -1.
         23    2    1    2    0    0  0.62713462067E+02 -0.13514956889E+02  0.83727847707E+03  0.84899805978E+03  0.12508726939E+03 0.  0.
          5    1    3    3  502    0 -0.31540866124E+02  0.20859473071E+02  0.16988490760E+03  0.17409278584E+03  0.41800000000E+01 0.  1.
         -5    1    3    3    0  502  0.94254328191E+02 -0.34374429960E+02  0.66739356947E+03  0.67490527394E+03  0.41800000000E+01 0.  1.
        -11    1    1    2    0    0 -0.78003459190E+01 -0.19283601804E+02  0.23321617720E+01  0.20931833974E+02  0.00000000000E+00 0. -1.
         11    1    1    2    0    0 -0.54913116148E+02  0.32798558694E+02  0.20317700850E+03  0.21300725940E+03  0.00000000000E+00 0.  1.
</event>
<event>
 7    1  0.6473813E-006  0.1517942E+03  0.7561462E-02  0.1198285E+00
          2   -1    0    0  501    0  0.00000000000E+00  0.00000000000E+00  0.72620958807E+03  0.72620958807E+03  0.00000000000E+00 0. -1.
         -2   -1    0    0    0  501 -0.00000000000E+00 -0.00000000000E+00 -0.33975183585E+02  0.33975183585E+02  0.00000000000E+00 0.  1.
         23    2    1    2    0    0 -0.33200523337E+02  0.12011573301E+03  0.35259560698E+03  0.39433325971E+03  0.12507994877E+03 0.  0.
          5    1    3    3  502    0  0.41971033038E+02  0.16640805477E+02  0.12862918784E+03  0.13638703892E+03  0.41800000000E+01 0.  1.
         -5    1    3    3    0  502 -0.75171556375E+02  0.10347492753E+03  0.22396641914E+03  0.25794622079E+03  0.41800000000E+01 0.  1.
        -11    1    1    2    0    0 -0.17344101777E+01 -0.65011317378E+02  0.11712316390E+03  0.13396758969E+03  0.00000000000E+00 0.  1.
         11    1    1    2    0    0  0.34934933515E+02 -0.55104415633E+02  0.22251563361E+03  0.23188392226E+03  0.00000000000E+00 0. -1.
</event>
<event>
 7    1  0.6473813E-006  0.1130991E+03  0.7561462E-02  0.1254936E+00
         -1   -1    0    0    0  501 -0.00000000000E+00  0.00000000000E+00  0.15813142988E+02  0.15813142988E+02  0.00000000000E+00 0. -1.
          1   -1    0    0  501    0  0.00000000000E+00 -0.00000000000E+00 -0.82370556295E+03  0.82370556295E+03  0.00000000000E+00 0.  1.
         23    2    1    2    0    0 -0.32288428860E+02 -0.13829418019E+02 -0.46811439941E+03  0.48581017905E+03  0.12508654481E+03 0.  0.
          5    1    3    3  502    0  0.29752850286E+02  0.38278284919E+02 -0.16490948439E+03  0.17193914516E+03  0.41800000000E+01 0.  1.
         -5    1    3    3    0  502 -0.62041279146E+02 -0.52107702938E+02 -0.30320491502E+03  0.31387103389E+03  0.41800000000E+01 0.  1.
        -11    1    1    2    0    0  0.19324305906E+02 -0.38188490390E+02 -0.18577795467E+03  0.19064427093E+03  0.00000000000E+00 0. -1.
         11    1    1    2    0    0  0.12964122954E+02  0.52017908408E+02 -0.15400006588E+03  0.16306425596E+03  0.00000000000E+00 0.  1.
</event>
<event>
 7    1  0.6473813E-006  0.1026765E+03  0.7561462E-02  0.1274766E+00
         -1   -1    0    0    0  501 -0.00000000000E+00  0.00000000000E+00  0.92993208126E+03  0.92993208126E+03  0.00000000000E+00 0.  1.
          1   -1    0    0  501    0  0.00000000000E+00 -0.00000000000E+00 -0.24173767853E+02  0.24173767853E+02  0.00000000000E+00 0. -1.
         23    2    1    2    0    0 -0.76205182224E+00  0.95538807964E+02  0.69956042365E+03  0.71704929741E+03  0.12508662610E+03 0.  0.
          5    1    3    3  502    0  0.17105779722E+02  0.20277116169E+02  0.52944870447E+03  0.53012939195E+03  0.41800000000E+01 0.  1.
         -5    1    3    3    0  502 -0.17867831545E+02  0.75261691796E+02  0.17011171917E+03  0.18691990546E+03  0.41800000000E+01 0.  1.
        -11    1    1    2    0    0 -0.14385146454E+02 -0.68906711281E+02  0.77218436330E+02  0.10448805773E+03  0.00000000000E+00 0. -1.
         11    1    1    2    0    0  0.15147198276E+02 -0.26632096683E+02  0.12897945343E+03  0.13256849398E+03  0.00000000000E+00 0.  1.
</event>
<event>
 7    1  0.6473813E-006  0.1712325E+03  0.7561462E-02  0.1176569E+00
         -1   -1    0    0    0  501 -0.00000000000E+00  0.00000000000E+00  0.16553240265E+03  0.16553240265E+03  0.00000000000E+00 0.  1.
          1   -1    0    0  501    0  0.00000000000E+00 -0.00000000000E+00 -0.20296067901E+03  0.20296067901E+03  0.00000000000E+00 0. -1.
         23    2    1    2    0    0  0.14287314333E+03  0.19460186960E+01  0.25431175986E+02  0.19159903295E+03  0.12508765984E+03 0.  0.
          5    1    3    3  502    0 -0.16741843549E+02  0.26442403968E+01  0.26726298830E+02  0.31922543474E+02  0.41800000000E+01 0. -1.
         -5    1    3    3    0  502  0.15961498688E+03 -0.69822170088E+00 -0.12951228442E+01  0.15967648948E+03  0.41800000000E+01 0. -1.
        -11    1    1    2    0    0 -0.44659417522E+02  0.38651706113E+02 -0.21430290955E+02  0.62830528640E+02  0.00000000000E+00 0.  1.
         11    1    1    2    0    0 -0.98213725805E+02 -0.40597724809E+02 -0.41429161392E+02  0.11406352007E+03  0.00000000000E+00 0. -1.
</event>
<event>
 7    1  0.6473813E-006  0.9877782E+02  0.7561462E-02  0.1282887E+00
         -1   -1    0    0    0  501 -0.00000000000E+00  0.00000000000E+00  0.32533868764E+03  0.32533868764E+03  0.00000000000E+00 0.  1.
          1   -1    0    0  501    0  0.00000000000E+00 -0.00000000000E+00 -0.45533460356E+02  0.45533460356E+02  0.00000000000E+00 0. -1.
         23    2    1    2    0    0  0.45464005533E+02  0.16927488388E+02  0.18172815312E+03  0.22588971404E+03  0.12509006999E+03 0.  0.
          5    1    3    3  502    0 -0.26355614163E+01 -0.35259503439E+02  0.57142242600E+01  0.36059721652E+02  0.41800000000E+01 0. -1.
         -5    1    3    3    0  502  0.48099566949E+02  0.52186991827E+02  0.17601392886E+03  0.18982999238E+03  0.41800000000E+01 0. -1.
        -11    1    1    2    0    0 -0.49342227474E+02  0.20352727598E+02  0.92905062715E+02  0.10714588005E+03  0.00000000000E+00 0.  1.
         11    1    1    2    0    0  0.38782219408E+01 -0.37280215986E+02  0.51720114482E+01  0.37836553911E+02  0.00000000000E+00 0. -1.
</event>
<event>
 7    1  0.6473813E-006  0.1113147E+03  0.7561462E-02  0.1258155E+00
         -1   -1    0    0    0  501 -0.00000000000E+00  0.00000000000E+00  0.10973018199E+03  0.10973018199E+03  0.00000000000E+00 0.  1.
          1   -1    0    0  501    0  0.00000000000E+00 -0.00000000000E+00 -0.11802484656E+03  0.11802484656E+03  0.00000000000E+00 0. -1.
         23    2    1    2    0    0 -0.10159758487E+02  0.29529297105E+02  0.15793449350E+02  0.12988774446E+03  0.12508474343E+03 0.  0.
          5    1    3    3  502    0  0.53034852594E+02  0.36918731688E+02  0.28009451958E+01  0.64815168234E+02  0.41800000000E+01 0.  1.
         -5    1    3    3    0  502 -0.63194611081E+02 -0.73894345826E+01  0.12992504154E+02  0.65072576231E+02  0.41800000000E+01 0.  1.
        -11    1    1    2    0    0 -0.13313335412E+02  0.28532257268E+02 -0.23425530752E+01  0.31572490550E+02  0.00000000000E+00 0. -1.
         11    1    1    2    0    0  0.23473093899E+02 -0.58061554374E+02 -0.21745560844E+02  0.66294793535E+02  0.00000000000E+00 0.  1.
</event>
<event>
 7    1  0.6473813E-006  0.9226072E+02  0.7561462E-02  0.1297468E+00
          1   -1    0    0  501    0  0.00000000000E+00  0.00000000000E+00  0.37010499281E+02  0.37010499281E+02  0.00000000000E+00 0. -1.
         -1   -1    0    0    0  501 -0.00000000000E+00 -0.00000000000E+00 -0.34365778424E+03  0.34365778424E+03  0.00000000000E+00 0.  1.
         23    2    1    2    0    0 -0.26555372199E+02 -0.24326542750E+02 -0.19113086044E+03  0.23124348823E+03  0.12508227916E+03 0.  0.
          5    1    3    3  502    0  0.29922043717E+02 -0.23188142237E+02 -0.16413567279E+03  0.16849632080E+03  0.41800000000E+01 0.  1.
         -5    1    3    3    0  502 -0.56477415916E+02 -0.11384005128E+01 -0.26995187655E+02  0.62747167432E+02  0.41800000000E+01 0.  1.
        -11    1    1    2    0    0  0.18719091050E+02 -0.29751209814E+02 -0.23095151477E+02  0.42058588622E+02  0.00000000000E+00 0. -1.
         11    1    1    2    0    0  0.78362811492E+01  0.54077752564E+02 -0.92421273041E+02  0.10736620667E+03  0.00000000000E+00 0.  1.
</event>
<event>
 7    1  0.6473813E-006  0.9083871E+02  0.7561462E-02  0.1300833E+00
         -1   -1    0    0    0  501 -0.00000000000E+00  0.00000000000E+00  0.84757759581E+02  0.84757759581E+02  0.00000000000E+00 0.  1.
          1   -1    0    0  501    0  0.00000000000E+00 -0.00000000000E+00 -0.13631336383E+03  0.13631336383E+03  0.00000000000E+00 0. -1.
         23    2    1    2    0    0 -0.79166801975E+01  0.24279408697E+02 -0.43414397095E+02  0.12623076271E+03  0.11574641276E+03 0.  0.
          5    1    3    3  502    0 -0.26855732194E+02  0.66379985247E+02 -0.20980042783E+02  0.74733977468E+02  0.41800000000E+01 0. -1.
         -5    1    3    3    0  502  0.18939051996E+02 -0.42100576550E+02 -0.22434354312E+02  0.51496785237E+02  0.41800000000E+01 0.  1.
        -11    1    1    2    0    0 -0.24863291032E+02 -0.16698572590E+02 -0.39009007614E+02  0.49180567732E+02  0.00000000000E+00 0. -1.
         11    1    1    2    0    0  0.32779971229E+02 -0.75808361073E+01  0.30867800455E+02  0.45659792978E+02  0.00000000000E+00 0.  1.
</event>
<event>
 7    1  0.6473813E-006  0.8377586E+02  0.7561462E-02  0.1318665E+00
         -1   -1    0    0    0  501 -0.00000000000E+00  0.00000000000E+00  0.15993974419E+03  0.15993974419E+03  0.00000000000E+00 0.  1.
          1   -1    0    0  501    0  0.00000000000E+00 -0.00000000000E+00 -0.88485003658E+02  0.88485003658E+02  0.00000000000E+00 0. -1.
         23    2    1    2    0    0 -0.74126114413E+01 -0.18420623449E+02  0.87707308546E+02  0.15405793513E+03  0.12508800594E+03 0.  0.
          5    1    3    3  502    0 -0.33320658788E+02  0.13540917618E+02  0.10360678017E+03  0.10975181115E+03  0.41800000000E+01 0.  1.
         -5    1    3    3    0  502  0.25908047347E+02 -0.31961541068E+02 -0.15899471629E+02  0.44306123988E+02  0.41800000000E+01 0.  1.
        -11    1    1    2    0    0  0.30325499557E+02 -0.26039161863E+02  0.44844068304E+01  0.40221682940E+02  0.00000000000E+00 0.  1.
         11    1    1    2    0    0 -0.22912888116E+02  0.44459785312E+02 -0.20736974849E+02  0.54145129769E+02  0.00000000000E+00 0. -1.
</event>
<event>
 7    1  0.6473813E-006  0.3697698E+03  0.7561462E-02  0.1054781E+00
          1   -1    0    0  501    0  0.00000000000E+00  0.00000000000E+00  0.69210410234E+03  0.69210410234E+03  0.00000000000E+00 0. -1.
         -1   -1    0    0    0  501 -0.00000000000E+00 -0.00000000000E+00 -0.21413216220E+03  0.21413216220E+03  0.00000000000E+00 0.  1.
         23    2    1    2    0    0  0.34379447543E+03 -0.10723744939E+03  0.33245837939E+03  0.50583689676E+03  0.12509148737E+03 0.  0.
          5    1    3    3  502    0  0.18407280973E+03 -0.15235056756E+02  0.22964621391E+03  0.29473676765E+03  0.41800000000E+01 0.  1.
         -5    1    3    3    0  502  0.15972166569E+03 -0.92002392638E+02  0.10281216548E+03  0.21110012912E+03  0.41800000000E+01 0.  1.
        -11    1    1    2    0    0 -0.19208994111E+03  0.10453078534E+03  0.10895486957E+03  0.24432845550E+03  0.00000000000E+00 0. -1.
         11    1    1    2    0    0 -0.15170453431E+03  0.27066640488E+01  0.36558691176E+02  0.15607091229E+03  0.00000000000E+00 0.  1.
</event>
<event>
 7    1  0.6473813E-006  0.9735448E+02  0.7561462E-02  0.1285960E+00
         -1   -1    0    0    0  501 -0.00000000000E+00  0.00000000000E+00  0.53942464535E+03  0.53942464535E+03  0.00000000000E+00 0.  1.
          1   -1    0    0  501    0  0.00000000000E+00 -0.00000000000E+00 -0.26218876617E+02  0.26218876617E+02  0.00000000000E+00 0. -1.
         23    2    1    2    0    0 -0.20629778735E+02 -0.16695084339E+02  0.38242231679E+03  0.40323464629E+03  0.12508812084E+03 0.  0.
          5    1    3    3  502    0  0.32207645253E+02  0.22831030203E+02  0.26927247127E+03  0.27218325543E+03  0.41800000000E+01 0.  1.
         -5    1    3    3    0  502 -0.52837423987E+02 -0.39526114542E+02  0.11314984552E+03  0.13105139086E+03  0.41800000000E+01 0.  1.
        -11    1    1    2    0    0  0.45941853049E+02 -0.15000689857E+02  0.10137974818E+03  0.11230996349E+03  0.00000000000E+00 0.  1.
         11    1    1    2    0    0 -0.25312074314E+02  0.31695774196E+02  0.29403703767E+02  0.50098912196E+02  0.00000000000E+00 0. -1.
</event>
<event>
 7    1  0.6473813E-006  0.8844602E+02  0.7561462E-02  0.1306659E+00
         -2   -1    0    0    0  501 -0.00000000000E+00  0.00000000000E+00  0.12154887189E+03  0.12154887189E+03  0.00000000000E+00 0.  1.
          2   -1    0    0  501    0  0.00000000000E+00 -0.00000000000E+00 -0.98195951672E+02  0.98195951672E+02  0.00000000000E+00 0. -1.
         23    2    1    2    0    0  0.23383276304E+02  0.11239872556E+02  0.30095493030E+02  0.13124979789E+03  0.12509060077E+03 0.  0.
          5    1    3    3  502    0 -0.47972923763E+02  0.76990939619E+01  0.34204267912E+02  0.59565777134E+02  0.41800000000E+01 0.  1.
         -5    1    3    3    0  502  0.71356200067E+02  0.35407785939E+01 -0.41087748817E+01  0.71684020759E+02  0.41800000000E+01 0.  1.
        -11    1    1    2    0    0 -0.23915377209E+02  0.16346464620E+02  0.30552988030E+02  0.42102698847E+02  0.00000000000E+00 0.  1.
         11    1    1    2    0    0  0.53210090448E+00 -0.27586337175E+02 -0.37295560838E+02  0.46392326826E+02  0.00000000000E+00 0. -1.
</event>
<event>
 7    1  0.6473813E-006  0.9151224E+02  0.7561462E-02  0.1299230E+00
         -4   -1    0    0    0  501 -0.00000000000E+00  0.00000000000E+00  0.11532256391E+03  0.11532256391E+03  0.00000000000E+00 0.  1.
          4   -1    0    0  501    0  0.00000000000E+00 -0.00000000000E+00 -0.15847852021E+03  0.15847852021E+03  0.00000000000E+00 0. -1.
         23    2    1    2    0    0  0.68039446463E+02  0.39002417289E+02 -0.73919938309E+01  0.14782414662E+03  0.12508709734E+03 0.  0.
          5    1    3    3  502    0  0.30691416187E+01  0.25892913385E+02 -0.58394655508E+02  0.64087992524E+02  0.41800000000E+01 0.  1.
         -5    1    3    3    0  502  0.64970304845E+02  0.13109503904E+02  0.51002661677E+02  0.83736154093E+02  0.41800000000E+01 0.  1.
        -11    1    1    2    0    0 -0.23230271480E+02  0.86559467664E+01 -0.52842631628E+02  0.58368781423E+02  0.00000000000E+00 0. -1.
         11    1    1    2    0    0 -0.44809174984E+02 -0.47658364056E+02  0.17078669158E+02  0.67608156071E+02  0.00000000000E+00 0.  1.
</event>
<event>
 7    1  0.6473813E-006  0.1679040E+03  0.7561462E-02  0.1180051E+00
         -1   -1    0    0    0  501 -0.00000000000E+00  0.00000000000E+00  0.18821901633E+03  0.18821901633E+03  0.00000000000E+00 0.  1.
          1   -1    0    0  501    0  0.00000000000E+00 -0.00000000000E+00 -0.27709419234E+03  0.27709419234E+03  0.00000000000E+00 0. -1.
         23    2    1    2    0    0 -0.16358339684E+03 -0.19176935334E+02  0.72983494746E+02  0.21931880248E+03  0.12508742561E+03 0.  0.
          5    1    3    3  502    0 -0.17912279313E+02  0.90599169335E+01 -0.31646740322E+02  0.37708360055E+02  0.41800000000E+01 0.  1.
         -5    1    3    3    0  502 -0.14567111753E+03 -0.28236852267E+02  0.10463023507E+03  0.18161044243E+03  0.41800000000E+01 0.  1.
        -11    1    1    2    0    0  0.12151954852E+03  0.25943665137E+02 -0.16100892187E+03  0.20338128566E+03  0.00000000000E+00 0. -1.
         11    1    1    2    0    0  0.42063848323E+02 -0.67667298032E+01 -0.84974889268E+00  0.42613120529E+02  0.00000000000E+00 0.  1.
</event>
<event>
 7    1  0.6473813E-006  0.5019156E+02  0.7561462E-02  0.1444311E+00
          1   -1    0    0  501    0  0.00000000000E+00  0.00000000000E+00  0.10365889058E+03  0.10365889058E+03  0.00000000000E+00 0. -1.
         -1   -1    0    0    0  501 -0.00000000000E+00 -0.00000000000E+00 -0.12279542614E+03  0.12279542614E+03  0.00000000000E+00 0.  1.
         23    2    1    2    0    0  0.14210890371E+02 -0.10302606855E+02 -0.30705878029E+00  0.12631456348E+03  0.12508869473E+03 0.  0.
          5    1    3    3  502    0  0.87712574207E+01 -0.97003505601E+01 -0.62373766418E+02  0.63866978126E+02  0.41800000000E+01 0. -1.
         -5    1    3    3    0  502  0.54396329502E+01 -0.60225629514E+00  0.62066707638E+02  0.62447585352E+02  0.41800000000E+01 0. -1.
        -11    1    1    2    0    0  0.24078397860E+02  0.28553219906E+02  0.20231340085E+02  0.42477791046E+02  0.00000000000E+00 0. -1.
         11    1    1    2    0    0 -0.38289288231E+02 -0.18250613051E+02 -0.39060816866E+02  0.57661962195E+02  0.00000000000E+00 0.  1.
</event>
<event>
 7    1  0.6473813E-006  0.8626134E+02  0.7561462E-02  0.1312167E+00
         -3   -1    0    0    0  501 -0.00000000000E+00  0.00000000000E+00  0.21391204544E+03  0.21391204544E+03  0.00000000000E+00 0.  1.
          3   -1    0    0  501    0  0.00000000000E+00 -0.00000000000E+00 -0.72734011618E+02  0.72734011618E+02  0.00000000000E+00 0. -1.
         23    2    1    2    0    0  0.26734470919E+02  0.15433418207E+02  0.14079497896E+03  0.19084624740E+03  0.12508453827E+03 0.  0.
          5    1    3    3  502    0  0.62782684047E+02  0.48362963425E+02  0.78979657319E+02  0.11196383487E+03  0.41800000000E+01 0.  1.
         -5    1    3    3    0  502 -0.36048213129E+02 -0.32929545218E+02  0.61815321642E+02  0.78882412537E+02  0.41800000000E+01 0.  1.
        -11    1    1    2    0    0 -0.19942813575E+02  0.66754826407E+01  0.42686922298E+02  0.47586250294E+02  0.00000000000E+00 0.  1.
         11    1    1    2    0    0 -0.67916573439E+01 -0.22108900847E+02 -0.42303867437E+02  0.48213559361E+02  0.00000000000E+00 0. -1.
</event>
<event>
 7    1  0.6473813E-006  0.1448599E+03  0.7561462E-02  0.1206935E+00
          1   -1    0    0  501    0  0.00000000000E+00  0.00000000000E+00  0.89975729632E+03  0.89975729632E+03  0.00000000000E+00 0. -1.
         -1   -1    0    0    0  501 -0.00000000000E+00 -0.00000000000E+00 -0.27847795314E+02  0.27847795314E+02  0.00000000000E+00 0.  1.
         23    2    1    2    0    0 -0.56078665911E+02  0.83740401721E+02  0.30357925994E+03  0.34346401746E+03  0.12509953068E+03 0.  0.
          5    1    3    3  502    0  0.21071699432E+02  0.74304780092E+02  0.19573734695E+03  0.21046567001E+03  0.41800000000E+01 0.  1.
         -5    1    3    3    0  502 -0.77150365343E+02  0.94356216283E+01  0.10784191299E+03  0.13299834745E+03  0.41800000000E+01 0.  1.
        -11    1    1    2    0    0  0.51350058262E+02 -0.10279218472E+03  0.50098964622E+03  0.51399775033E+03  0.00000000000E+00 0. -1.
         11    1    1    2    0    0  0.47286076489E+01  0.19051782997E+02  0.67340594847E+02  0.70143323845E+02  0.00000000000E+00 0.  1.
</event>
<event>
 7    1  0.6473813E-006  0.1532389E+03  0.7561462E-02  0.1196549E+00
         -2   -1    0    0    0  501 -0.00000000000E+00  0.00000000000E+00  0.48232563936E+03  0.48232563936E+03  0.00000000000E+00 0.  1.
          2   -1    0    0  501    0  0.00000000000E+00 -0.00000000000E+00 -0.53726152603E+02  0.53726152603E+02  0.00000000000E+00 0. -1.
         23    2    1    2    0    0 -0.70703925177E+02  0.87238841243E+02  0.29453988558E+03  0.33913216134E+03  0.12508884124E+03 0.  0.
          5    1    3    3  502    0 -0.91117350211E+02  0.19173537438E+02  0.13102572073E+03  0.16079554701E+03  0.41800000000E+01 0. -1.
         -5    1    3    3    0  502  0.20413425034E+02  0.68065303805E+02  0.16351416485E+03  0.17833661433E+03  0.41800000000E+01 0. -1.
        -11    1    1    2    0    0  0.85402434449E+02 -0.43292803684E+02  0.73726037631E+02  0.12084440941E+03  0.00000000000E+00 0. -1.
         11    1    1    2    0    0 -0.14698509272E+02 -0.43946037559E+02  0.60333563551E+02  0.76075221214E+02  0.00000000000E+00 0.  1.
</event>
<event>
 6    1  0.6473813E-006  0.1236527E+03  0.7561462E-02  0.1237190E+00
         -3   -1    0    0    0  501 -0.00000000000E+00  0.00000000000E+00  0.33679027704E+03  0.33679027704E+03  0.00000000000E+00 0.  1.
          3   -1    0    0  501    0  0.00000000000E+00 -0.00000000000E+00 -0.50730587238E+02  0.50730587238E+02  0.00000000000E+00 0. -1.
          5    1    1    2  502    0 -0.41823975110E+02 -0.74289307335E+02  0.13576890612E+03  0.16037086502E+03  0.41800000000E+01 0. -1.
         -5    1    1    2    0  502  0.25036644851E+02  0.72373210650E+02  0.91743873300E+02  0.11957895255E+03  0.41800000000E+01 0.  1.
        -11    1    1    2    0    0 -0.33895397693E+02  0.59397485361E+01  0.68976240263E+01  0.35096378939E+02  0.00000000000E+00 0. -1.
         11    1    1    2    0    0  0.50682727953E+02 -0.40236518507E+01  0.51649286356E+02  0.72474667768E+02  0.00000000000E+00 0.  1.
</event>
<event>
 7    1  0.6473813E-006  0.9329189E+02  0.7561462E-02  0.1295070E+00
         -1   -1    0    0    0  501 -0.00000000000E+00  0.00000000000E+00  0.42396422382E+02  0.42396422382E+02  0.00000000000E+00 0.  1.
          1   -1    0    0  501    0  0.00000000000E+00 -0.00000000000E+00 -0.31235056091E+03  0.31235056091E+03  0.00000000000E+00 0. -1.
         23    2    1    2    0    0 -0.45461136871E+01 -0.22400043459E+02 -0.90181540459E+02  0.15588765166E+03  0.12508325469E+03 0.  0.
          5    1    3    3  502    0 -0.27603841042E+02 -0.63653636920E+02 -0.22159302596E+02  0.72953852708E+02  0.41800000000E+01 0.  1.
         -5    1    3    3    0  502  0.23057727355E+02  0.41253593461E+02 -0.68022237863E+02  0.82933798949E+02  0.41800000000E+01 0.  1.
        -11    1    1    2    0    0  0.28047757542E+02 -0.98502173922E+01 -0.13769967287E+03  0.14087193969E+03  0.00000000000E+00 0. -1.
         11    1    1    2    0    0 -0.23501643855E+02  0.32250260851E+02 -0.42072925200E+02  0.57987391937E+02  0.00000000000E+00 0.  1.
</event>
<event>
 7    1  0.6473813E-006  0.3010543E+03  0.7561462E-02  0.1084715E+00
          1   -1    0    0  501    0  0.00000000000E+00  0.00000000000E+00  0.14325275226E+04  0.14325275226E+04  0.00000000000E+00 0. -1.
         -1   -1    0    0    0  501 -0.00000000000E+00 -0.00000000000E+00 -0.12587487078E+03  0.12587487078E+03  0.00000000000E+00 0.  1.
         23    2    1    2    0    0 -0.31736496889E+02  0.29538960099E+03  0.14071130482E+03  0.35172293375E+03  0.12508848553E+03 0.  0.
          5    1    3    3  502    0  0.97586206234E+01  0.97057139797E+02  0.10942678335E+03  0.14665269304E+03  0.41800000000E+01 0. -1.
         -5    1    3    3    0  502 -0.41495117512E+02  0.19833246119E+03  0.31284521469E+02  0.20507024071E+03  0.41800000000E+01 0. -1.
        -11    1    1    2    0    0  0.46568598230E+02 -0.20665399665E+03  0.67154970795E+03  0.70416867221E+03  0.00000000000E+00 0. -1.
         11    1    1    2    0    0 -0.14832101341E+02 -0.88735604342E+02  0.49439163910E+03  0.50251078747E+03  0.00000000000E+00 0.  1.
</event>
<event>
 6    1  0.6473813E-006  0.1011128E+03  0.7561462E-02  0.1277973E+00
         -2   -1    0    0    0  501 -0.00000000000E+00  0.00000000000E+00  0.63271836425E+02  0.63271836425E+02  0.00000000000E+00 0.  1.
          2   -1    0    0  501    0  0.00000000000E+00 -0.00000000000E+00 -0.97891295067E+03  0.97891295067E+03  0.00000000000E+00 0. -1.
          5    1    1    2  502    0  0.22649047843E+02 -0.27240822836E+01 -0.66305452732E+03  0.66346000527E+03  0.41800000000E+01 0. -1.
         -5    1    1    2    0  502 -0.78651065110E+02  0.32730338645E+01  0.25255076159E+02  0.82776772500E+02  0.41800000000E+01 0.  1.
        -11    1    1    2    0    0  0.25853974601E+01 -0.36000335421E+02 -0.12743918833E+03  0.13245170876E+03  0.00000000000E+00 0. -1.
         11    1    1    2    0    0  0.53416619808E+02  0.35451383840E+02 -0.15040247476E+03  0.16349630057E+03  0.00000000000E+00 0.  1.
</event>
<event>
 6    1  0.6473813E-006  0.1812014E+03  0.7561462E-02  0.1166645E+00
          2   -1    0    0  501    0  0.00000000000E+00  0.00000000000E+00  0.61331959722E+03  0.61331959722E+03  0.00000000000E+00 0. -1.
         -2   -1    0    0    0  501 -0.00000000000E+00 -0.00000000000E+00 -0.61282817836E+02  0.61282817836E+02  0.00000000000E+00 0.  1.
          5    1    1    2  502    0  0.29435360155E+02  0.58902048425E+02  0.14285778357E+03  0.15735854111E+03  0.41800000000E+01 0. -1.
         -5    1    1    2    0  502  0.41834380628E+02 -0.14638671779E+03  0.12153344113E+03  0.19485131834E+03  0.41800000000E+01 0.  1.
        -11    1    1    2    0    0  0.21626893787E+02  0.16978666758E+02  0.38580235046E+02  0.47375438742E+02  0.00000000000E+00 0.  1.
         11    1    1    2    0    0 -0.92896634570E+02  0.70506002603E+02  0.24906531964E+03  0.27501711686E+03  0.00000000000E+00 0. -1.
</event>
<event>
 7    1  0.6473813E-006  0.1062573E+03  0.7561462E-02  0.1267662E+00
          3   -1    0    0  501    0  0.00000000000E+00  0.00000000000E+00  0.68958410655E+02  0.68958410655E+02  0.00000000000E+00 0. -1.
         -3   -1    0    0    0  501 -0.00000000000E+00 -0.00000000000E+00 -0.22825407935E+03  0.22825407935E+03  0.00000000000E+00 0.  1.
         23    2    1    2    0    0 -0.25345459716E+01 -0.59103644747E+02 -0.12108615341E+03  0.18219319979E+03  0.12260848567E+03 0.  0.
          5    1    3    3  502    0  0.38275157120E+02 -0.61069719333E+01  0.50977004207E+01  0.39315921817E+02  0.41800000000E+01 0. -1.
         -5    1    3    3    0  502 -0.40809703091E+02 -0.52996672813E+02 -0.12618385383E+03  0.14287727798E+03  0.41800000000E+01 0.  1.
        -11    1    1    2    0    0 -0.35736923481E+02 -0.42770515257E+00 -0.23387791544E+02  0.42711818328E+02  0.00000000000E+00 0.  1.
         11    1    1    2    0    0  0.38271469453E+02  0.59531349899E+02 -0.14821723743E+02  0.72307471880E+02  0.00000000000E+00 0. -1.
</event>
<event>
 7    1  0.6473813E-006  0.1138381E+03  0.7561462E-02  0.1253623E+00
          1   -1    0    0  501    0  0.00000000000E+00  0.00000000000E+00  0.91111566926E+02  0.91111566926E+02  0.00000000000E+00 0. -1.
         -1   -1    0    0    0  501 -0.00000000000E+00 -0.00000000000E+00 -0.20001973478E+03  0.20001973478E+03  0.00000000000E+00 0.  1.
         23    2    1    2    0    0 -0.24212716473E+02 -0.38243917410E+02 -0.13177031723E+03  0.18724271552E+03  0.12509022806E+03 0.  0.
          5    1    3    3  502    0  0.45376944241E+02  0.57884118403E+01 -0.24867732143E+02  0.52234560228E+02  0.41800000000E+01 0. -1.
         -5    1    3    3    0  502 -0.69589660714E+02 -0.44032329251E+02 -0.10690258509E+03  0.13500815529E+03  0.41800000000E+01 0. -1.
        -11    1    1    2    0    0  0.40167090590E+01  0.65354794373E+02  0.24822581609E+02  0.70025307260E+02  0.00000000000E+00 0. -1.
         11    1    1    2    0    0  0.20196007414E+02 -0.27110876962E+02 -0.19604322365E+01  0.33863278927E+02  0.00000000000E+00 0.  1.
</event>
<event>
 7    1  0.6473813E-006  0.3602367E+03  0.7561462E-02  0.1058490E+00
          3   -1    0    0  501    0  0.00000000000E+00  0.00000000000E+00  0.19866864728E+03  0.19866864728E+03  0.00000000000E+00 0. -1.
         -3   -1    0    0    0  501 -0.00000000000E+00 -0.00000000000E+00 -0.67795370591E+03  0.67795370591E+03  0.00000000000E+00 0.  1.
         23    2    1    2    0    0  0.30193713807E+03 -0.17744085677E+03 -0.25456384869E+03  0.45066691544E+03  0.12508646055E+03 0.  0.
          5    1    3    3  502    0  0.31464735881E+02  0.15096514810E+02 -0.54347608761E+01  0.35566042643E+02  0.41800000000E+01 0. -1.
         -5    1    3    3    0  502  0.27047240219E+03 -0.19253737158E+03 -0.24912908782E+03  0.41510087280E+03  0.41800000000E+01 0. -1.
        -11    1    1    2    0    0 -0.10463280779E+03  0.36475949905E+02 -0.11532874905E+03  0.15993511104E+03  0.00000000000E+00 0.  1.
         11    1    1    2    0    0 -0.19730433028E+03  0.14096490687E+03 -0.10939246090E+03  0.26602032670E+03  0.00000000000E+00 0. -1.
</event>
<event>
 7    1  0.6473813E-006  0.1465779E+03  0.7561462E-02  0.1204742E+00
          3   -1    0    0  501    0  0.00000000000E+00  0.00000000000E+00  0.26093741719E+03  0.26093741719E+03  0.00000000000E+00 0. -1.
         -3   -1    0    0    0  501 -0.00000000000E+00 -0.00000000000E+00 -0.90131012903E+02  0.90131012903E+02  0.00000000000E+00 0.  1.
         23    2    1    2    0    0 -0.98139793793E+02 -0.30409868397E+02  0.57914394953E+02  0.17192527384E+03  0.12509213972E+03 0.  0.
          5    1    3    3  502    0 -0.11962961216E+03 -0.38803680213E+01  0.65780164478E+02  0.13664114973E+03  0.41800000000E+01 0. -1.
         -5    1    3    3    0  502  0.21489818369E+02 -0.26529500375E+02 -0.78657695252E+01  0.35284124106E+02  0.41800000000E+01 0. -1.
        -11    1    1    2    0    0  0.82025973838E+02 -0.21370648526E+02  0.65484339147E+02  0.10711285486E+03  0.00000000000E+00 0. -1.
         11    1    1    2    0    0  0.16113819955E+02  0.51780516923E+02  0.47407670187E+02  0.72030301394E+02  0.00000000000E+00 0.  1.
</event>
<event>
 7    1  0.6473813E-006  0.1050329E+03  0.7561462E-02  0.1270055E+00
         -2   -1    0    0    0  501 -0.00000000000E+00  0.00000000000E+00  0.50149870407E+02  0.50149870407E+02  0.00000000000E+00 0. -1.
          2   -1    0    0  501    0  0.00000000000E+00 -0.00000000000E+00 -0.27964262859E+03  0.27964262859E+03  0.00000000000E+00 0.  1.
         23    2    1    2    0    0  0.21849032375E+02  0.37505112006E+02 -0.97699604266E+02  0.16455317492E+03  0.12509404886E+03 0.  0.
          5    1    3    3  502    0 -0.43472227960E+02  0.25035598252E+01 -0.24711445596E+01  0.43814168611E+02  0.41800000000E+01 0.  1.
         -5    1    3    3    0  502  0.65321260335E+02  0.35001552181E+02 -0.95228459706E+02  0.12073900631E+03  0.41800000000E+01 0.  1.
        -11    1    1    2    0    0 -0.52084193855E+01 -0.62145055516E+02 -0.11568484537E+03  0.13142343401E+03  0.00000000000E+00 0.  1.
         11    1    1    2    0    0 -0.16640612989E+02  0.24639943510E+02 -0.16108308540E+02  0.33815890064E+02  0.00000000000E+00 0. -1.
</event>
<event>
 6    1  0.6473813E-006  0.3872276E+03  0.7561462E-02  0.1048294E+00
          1   -1    0    0  501    0  0.00000000000E+00  0.00000000000E+00  0.11706240885E+04  0.11706240885E+04  0.00000000000E+00 0. -1.
         -1   -1    0    0    0  501 -0.00000000000E+00 -0.00000000000E+00 -0.17458240712E+03  0.17458240712E+03  0.00000000000E+00 0.  1.
          5    1    1    2  502    0 -0.30807740676E+03  0.68389291838E+02  0.55965590151E+03  0.64251146628E+03  0.41800000000E+01 0. -1.
         -5    1    1    2    0  502  0.33978554298E+03  0.69567717790E+01  0.11517865988E+03  0.35886795341E+03  0.41800000000E+01 0.  1.
        -11    1    1    2    0    0  0.23019575173E+02 -0.56628040975E+02  0.20657085197E+03  0.21542551555E+03  0.00000000000E+00 0.  1.
         11    1    1    2    0    0 -0.54727711393E+02 -0.18718022642E+02  0.11463626805E+03  0.12840156042E+03  0.00000000000E+00 0. -1.
</event>
<event>
 7    1  0.6473813E-006  0.1347833E+03  0.7561462E-02  0.1220526E+00
         -2   -1    0    0    0  501 -0.00000000000E+00  0.00000000000E+00  0.36225269674E+02  0.36225269674E+02  0.00000000000E+00 0. -1.
          2   -1    0    0  501    0  0.00000000000E+00 -0.00000000000E+00 -0.55022806383E+03  0.55022806383E+03  0.00000000000E+00 0.  1.
         23    2    1    2    0    0  0.10756917319E+02  0.90203557098E+02 -0.26809838484E+03  0.30947819132E+03  0.12509042317E+03 0.  0.
          5    1    3    3  502    0  0.28307692257E+02 -0.23009836441E+02 -0.40696346863E+02  0.54812800165E+02  0.41800000000E+01 0. -1.
         -5    1    3    3    0  502 -0.17550774938E+02  0.11321339354E+03 -0.22740203798E+03  0.25466539116E+03  0.41800000000E+01 0. -1.
        -11    1    1    2    0    0  0.32693426963E+02 -0.34041609469E+02 -0.15254765555E+03  0.15968243033E+03  0.00000000000E+00 0.  1.
         11    1    1    2    0    0 -0.43450344282E+02 -0.56161947629E+02 -0.93356753762E+02  0.11729271185E+03  0.00000000000E+00 0. -1.
</event>
<event>
 7    1  0.6473813E-006  0.1934557E+03  0.7561462E-02  0.1155381E+00
          2   -1    0    0  501    0  0.00000000000E+00  0.00000000000E+00  0.74924939460E+03  0.74924939460E+03  0.00000000000E+00 0. -1.
         -2   -1    0    0    0  501 -0.00000000000E+00 -0.00000000000E+00 -0.60555847308E+02  0.60555847308E+02  0.00000000000E+00 0.  1.
         23    2    1    2    0    0  0.51901366066E+01  0.17420804297E+03  0.25322268997E+03  0.33188343450E+03  0.12509797610E+03 0.  0.
          5    1    3    3  502    0  0.15921323289E+02 -0.14597012555E+02  0.11130278172E+02  0.24655968912E+02  0.41800000000E+01 0. -1.
         -5    1    3    3    0  502 -0.10731186682E+02  0.18880505552E+03  0.24209241180E+03  0.30722746559E+03  0.41800000000E+01 0. -1.
        -11    1    1    2    0    0 -0.13951134326E+02 -0.12463437012E+03  0.19220686516E+03  0.22950346267E+03  0.00000000000E+00 0.  1.
         11    1    1    2    0    0  0.87609977190E+01 -0.49573672847E+02  0.24326399217E+03  0.24841834474E+03  0.00000000000E+00 0. -1.
</event>
<event>
 7    1  0.6473813E-006  0.1102665E+03  0.7561462E-02  0.1260077E+00
          1   -1    0    0  501    0  0.00000000000E+00  0.00000000000E+00  0.39831230038E+02  0.39831230038E+02  0.00000000000E+00 0. -1.
         -1   -1    0    0    0  501 -0.00000000000E+00 -0.00000000000E+00 -0.50508739698E+03  0.50508739698E+03  0.00000000000E+00 0.  1.
         23    2    1    2    0    0 -0.42150976657E+01 -0.78556438863E+02 -0.37412052920E+03  0.40224752539E+03  0.12509204680E+03 0.  0.
          5    1    3    3  502    0 -0.34689911246E+02 -0.96098432076E+02 -0.33108914143E+03  0.34651953850E+03  0.41800000000E+01 0.  1.
         -5    1    3    3    0  502  0.30474813581E+02  0.17541993213E+02 -0.43031387774E+02  0.55727986886E+02  0.41800000000E+01 0.  1.
        -11    1    1    2    0    0 -0.75268288801E+01  0.62637566880E+02 -0.10212684055E+03  0.12004169900E+03  0.00000000000E+00 0.  1.
         11    1    1    2    0    0  0.11741926546E+02  0.15918871983E+02  0.10991202813E+02  0.22629402632E+02  0.00000000000E+00 0. -1.
</event>
<event>
 7    1  0.6473813E-006  0.8682295E+02  0.7561462E-02  0.1310733E+00
         -1   -1    0    0    0  501 -0.00000000000E+00  0.00000000000E+00  0.43925680797E+03  0.43925680797E+03  0.00000000000E+00 0.  1.
          1   -1    0    0  501    0  0.00000000000E+00 -0.00000000000E+00 -0.28248168536E+02  0.28248168536E+02  0.00000000000E+00 0. -1.
         23    2    1    2    0    0 -0.14610385113E+01  0.18417001217E+02  0.27421401759E+03  0.30196409544E+03  0.12509063484E+03 0.  0.
          5    1    3    3  502    0  0.30153737816E+02  0.63962234485E+02  0.15167351569E+03  0.16739994954E+03  0.41800000000E+01 0.  1.
         -5    1    3    3    0  502 -0.31614776328E+02 -0.45545233269E+02  0.12254050191E+03  0.13456414590E+03  0.41800000000E+01 0.  1.
        -11    1    1    2    0    0 -0.12208356723E+02 -0.27979472382E+02  0.14412267027E+03  0.14732019188E+03  0.00000000000E+00 0.  1.
         11    1    1    2    0    0  0.13669395235E+02  0.95624711658E+01 -0.73280484246E+01  0.18220689191E+02  0.00000000000E+00 0. -1.
</event>
<event>
 7    1  0.6473813E-006  0.1094712E+03  0.7561462E-02  0.1261552E+00
          1   -1    0    0  501    0  0.00000000000E+00  0.00000000000E+00  0.61539301841E+03  0.61539301841E+03  0.00000000000E+00 0. -1.
         -1   -1    0    0    0  501 -0.00000000000E+00 -0.00000000000E+00 -0.21023462333E+02  0.21023462333E+02  0.00000000000E+00 0.  1.
         23    2    1    2    0    0 -0.11850760332E+02  0.32845351711E+02  0.31996590502E+03  0.34531827646E+03  0.12508906441E+03 0.  0.
          5    1    3    3  502    0 -0.14591228998E+02  0.79954681760E+02  0.22330455525E+03  0.23767215213E+03  0.41800000000E+01 0. -1.
         -5    1    3    3    0  502  0.27404686658E+01 -0.47109330049E+02  0.96661349765E+02  0.10764612434E+03  0.41800000000E+01 0. -1.
        -11    1    1    2    0    0  0.37812807784E+02  0.10868631121E+02  0.17591161719E+03  0.18025768399E+03  0.00000000000E+00 0.  1.
         11    1    1    2    0    0 -0.25962047452E+02 -0.43713982832E+02  0.98492033865E+02  0.11084052029E+03  0.00000000000E+00 0. -1.
</event>
<event>
 7    1  0.6473813E-006  0.1033354E+03  0.7561462E-02  0.1273434E+00
         -2   -1    0    0    0  501 -0.00000000000E+00  0.00000000000E+00  0.16247250189E+02  0.16247250189E+02  0.00000000000E+00 0.  1.
          2   -1    0    0  501    0  0.00000000000E+00 -0.00000000000E+00 -0.72563586532E+03  0.72563586532E+03  0.00000000000E+00 0. -1.
         23    2    1    2    0    0 -0.41956605829E+01 -0.13553482124E+01 -0.39394693303E+03  0.41335406169E+03  0.12509178122E+03 0.  0.
          5    1    3    3  502    0 -0.45797806988E+02  0.36753648618E+02 -0.12044520130E+03  0.13406262987E+03  0.41800000000E+01 0. -1.
         -5    1    3    3    0  502  0.41602146405E+02 -0.38108996830E+02 -0.27350173173E+03  0.27929143181E+03  0.41800000000E+01 0. -1.
        -11    1    1    2    0    0 -0.23042972516E+02  0.38678146158E+02 -0.13732692444E+03  0.14451872456E+03  0.00000000000E+00 0.  1.
         11    1    1    2    0    0  0.27238633099E+02 -0.37322797946E+02 -0.17811475766E+03  0.18401032927E+03  0.00000000000E+00 0. -1.
</event>
<event>
 7    1  0.6473813E-006  0.1359474E+03  0.7561462E-02  0.1218888E+00
          1   -1    0    0  501    0  0.00000000000E+00  0.00000000000E+00  0.75193978719E+03  0.75193978719E+03  0.00000000000E+00 0. -1.
         -1   -1    0    0    0  501 -0.00000000000E+00 -0.00000000000E+00 -0.38889058534E+02  0.38889058534E+02  0.00000000000E+00 0.  1.
         23    2    1    2    0    0  0.91193126616E+02  0.68860669494E+02  0.21984126649E+03  0.27638453979E+03  0.12247552097E+03 0.  0.
          5    1    3    3  502    0  0.72930295197E+02  0.16687023476E+02  0.20606072800E+03  0.21926189987E+03  0.41800000000E+01 0. -1.
         -5    1    3    3    0  502  0.18262831419E+02  0.52173646019E+02  0.13780538489E+02  0.57122639919E+02  0.41800000000E+01 0.  1.
        -11    1    1    2    0    0  0.16164425725E+02 -0.69245120142E+01  0.28484142712E+02  0.33475123774E+02  0.00000000000E+00 0.  1.
         11    1    1    2    0    0 -0.10735755234E+03 -0.61936157480E+02  0.46472531945E+03  0.48096918216E+03  0.00000000000E+00 0. -1.
</event>
<event>
 7    1  0.6473813E-006  0.1649597E+03  0.7561462E-02  0.1183208E+00
         -2   -1    0    0    0  501 -0.00000000000E+00  0.00000000000E+00  0.23830949152E+03  0.23830949152E+03  0.00000000000E+00 0.  1.
          2   -1    0    0  501    0  0.00000000000E+00 -0.00000000000E+00 -0.21505326789E+03  0.21505326789E+03  0.00000000000E+00 0. -1.
         23    2    1    2    0    0  0.13166919774E+03 -0.72000481075E+02  0.14120006688E+03  0.24105299732E+03  0.12509293235E+03 0.  0.
          5    1    3    3  502    0  0.11671995071E+03 -0.73169063933E+02  0.47059676633E+02  0.14563428297E+03  0.41800000000E+01 0.  1.
         -5    1    3    3    0  502  0.14949247021E+02  0.11685828587E+01  0.94140390244E+02  0.95418714348E+02  0.41800000000E+01 0.  1.
        -11    1    1    2    0    0 -0.92368794801E+02  0.93753956703E+02 -0.88530749198E+02  0.15861743978E+03  0.00000000000E+00 0. -1.
         11    1    1    2    0    0 -0.39300402935E+02 -0.21753475628E+02 -0.29413094048E+02  0.53692322302E+02  0.00000000000E+00 0.  1.
</event>
<event>
 7    1  0.6473813E-006  0.9804935E+02  0.7561462E-02  0.1284452E+00
          1   -1    0    0  501    0  0.00000000000E+00  0.00000000000E+00  0.53546012293E+03  0.53546012293E+03  0.00000000000E+00 0. -1.
         -1   -1    0    0    0  501 -0.00000000000E+00 -0.00000000000E+00 -0.27886338655E+02  0.27886338655E+02  0.00000000000E+00 0.  1.
         23    2    1    2    0    0  0.49480001556E+02 -0.30917475816E+01  0.22414876401E+03  0.26143305187E+03  0.12508694075E+03 0.  0.
          5    1    3    3  502    0  0.59193250310E+02  0.35302484679E+02  0.56791229314E+02  0.89402586281E+02  0.41800000000E+01 0. -1.
         -5    1    3    3    0  502 -0.97132487540E+01 -0.38394232260E+02  0.16735753470E+03  0.17203046559E+03  0.41800000000E+01 0. -1.
        -11    1    1    2    0    0 -0.68554138311E+01  0.33930768916E+02  0.40140248248E+02  0.53005030964E+02  0.00000000000E+00 0.  1.
         11    1    1    2    0    0 -0.42624587725E+02 -0.30839021335E+02  0.24328477201E+03  0.24890837874E+03  0.00000000000E+00 0. -1.
</event>
<event>
 7    1  0.6473813E-006  0.1123182E+03  0.7561462E-02  0.1256336E+00
         -1   -1    0    0    0  501 -0.00000000000E+00  0.00000000000E+00  0.34533592189E+02  0.34533592189E+02  0.00000000000E+00 0.  1.
          1   -1    0    0  501    0  0.00000000000E+00 -0.00000000000E+00 -0.45243303449E+03  0.45243303449E+03  0.00000000000E+00 0. -1.
         23    2    1    2    0    0  0.27265103116E+02 -0.10787676823E+02 -0.12809159640E+03  0.18142414646E+03  0.12508998373E+03 0.  0.
          5    1    3    3  502    0  0.55665794778E+02 -0.53150477743E+02 -0.82237299771E+02  0.11271246544E+03  0.41800000000E+01 0. -1.
         -5    1    3    3    0  502 -0.28400691662E+02  0.42362800919E+02 -0.45854296632E+02  0.68711681017E+02  0.41800000000E+01 0. -1.
        -11    1    1    2    0    0 -0.49981129560E+02  0.36638159570E+02 -0.17266126923E+03  0.18344585561E+03  0.00000000000E+00 0.  1.
         11    1    1    2    0    0  0.22716026444E+02 -0.25850482747E+02 -0.11714657667E+03  0.12209662461E+03  0.00000000000E+00 0. -1.
</event>
<event>
 7    1  0.6473813E-006  0.6246348E+02  0.7561462E-02  0.1387775E+00
         -1   -1    0    0    0  501 -0.00000000000E+00  0.00000000000E+00  0.21455612554E+02  0.21455612554E+02  0.00000000000E+00 0.  1.
          1   -1    0    0  501    0  0.00000000000E+00 -0.00000000000E+00 -0.59016944501E+03  0.59016944501E+03  0.00000000000E+00 0. -1.
         23    2    1    2    0    0  0.16080210591E+02 -0.14767401290E+01 -0.25720909446E+03  0.28646947297E+03  0.12508991461E+03 0.  0.
          5    1    3    3  502    0 -0.61765436461E+01 -0.50663091660E+01  0.12707328394E+02  0.15580942683E+02  0.41800000000E+01 0.  1.
         -5    1    3    3    0  502  0.22256754237E+02  0.35895690371E+01 -0.26991642285E+03  0.27088853029E+03  0.41800000000E+01 0.  1.
        -11    1    1    2    0    0 -0.53621415015E+02 -0.81228774994E+01 -0.16998692468E+03  0.17842867440E+03  0.00000000000E+00 0. -1.
         11    1    1    2    0    0  0.37541204424E+02  0.95996176283E+01 -0.14151781332E+03  0.14672691019E+03  0.00000000000E+00 0.  1.
</event>
<event>
 7    1  0.6473813E-006  0.7687847E+02  0.7561462E-02  0.1338151E+00
          1   -1    0    0  501    0  0.00000000000E+00  0.00000000000E+00  0.88660436126E+02  0.88660436126E+02  0.00000000000E+00 0. -1.
         -1   -1    0    0    0  501 -0.00000000000E+00 -0.00000000000E+00 -0.16108072018E+03  0.16108072018E+03  0.00000000000E+00 0.  1.
         23    2    1    2    0    0  0.44337184060E+02 -0.17432411797E+02 -0.58994355391E+02  0.14627652502E+03  0.12508722130E+03 0.  0.
          5    1    3    3  502    0 -0.52225289731E+01 -0.64630924793E+01 -0.87444678144E+02  0.87937992409E+02  0.41800000000E+01 0.  1.
         -5    1    3    3    0  502  0.49559713033E+02 -0.10969319318E+02  0.28450322753E+02  0.58338532608E+02  0.41800000000E+01 0.  1.
        -11    1    1    2    0    0 -0.62183980515E+02  0.32502563047E+02  0.94148358059E+01  0.70794796211E+02  0.00000000000E+00 0. -1.
         11    1    1    2    0    0  0.17846796456E+02 -0.15070151249E+02 -0.22840764469E+02  0.32669835076E+02  0.00000000000E+00 0.  1.
</event>
<event>
 7    1  0.6473813E-006  0.1806917E+03  0.7561462E-02  0.1167135E+00
         -1   -1    0    0    0  501 -0.00000000000E+00  0.00000000000E+00  0.28722342530E+02  0.28722342530E+02  0.00000000000E+00 0.  1.
          1   -1    0    0  501    0  0.00000000000E+00 -0.00000000000E+00 -0.13001108434E+04  0.13001108434E+04  0.00000000000E+00 0. -1.
         23    2    1    2    0    0 -0.10789279698E+03  0.11560114757E+03 -0.59493510937E+03  0.62817189159E+03  0.12509060743E+03 0.  0.
          5    1    3    3  502    0  0.13533475024E+02 -0.15368433269E+02 -0.95131279495E+02  0.97400084321E+02  0.41800000000E+01 0. -1.
         -5    1    3    3    0  502 -0.12142627200E+03  0.13096958084E+03 -0.49980382987E+03  0.53077180727E+03  0.41800000000E+01 0. -1.
        -11    1    1    2    0    0  0.19055975657E+01 -0.16902163544E+02 -0.12532049570E+02  0.21127392195E+02  0.00000000000E+00 0.  1.
         11    1    1    2    0    0  0.10598719941E+03 -0.98698984031E+02 -0.66392134191E+03  0.67953390212E+03  0.00000000000E+00 0. -1.
</event>
<event>
 7    1  0.6473813E-006  0.1134355E+03  0.7561462E-02  0.1254337E+00
          1   -1    0    0  501    0  0.00000000000E+00  0.00000000000E+00  0.95493967596E+02  0.95493967596E+02  0.00000000000E+00 0. -1.
         -1   -1    0    0    0  501 -0.00000000000E+00 -0.00000000000E+00 -0.21386301132E+03  0.21386301132E+03  0.00000000000E+00 0.  1.
         23    2    1    2    0    0 -0.78929426844E+01 -0.78044734945E+02 -0.68947455325E+02  0.16295673624E+03  0.12509143494E+03 0.  0.
          5    1    3    3  502    0  0.58357261938E+02 -0.40067235503E+02 -0.38033239033E+02  0.80467092982E+02  0.41800000000E+01 0. -1.
         -5    1    3    3    0  502 -0.66250204622E+02 -0.37977499442E+02 -0.30914216293E+02  0.82489643261E+02  0.41800000000E+01 0. -1.
        -11    1    1    2    0    0  0.62045344597E+01  0.12892892013E+02 -0.75025430888E+02  0.76377602688E+02  0.00000000000E+00 0.  1.
         11    1    1    2    0    0  0.16884082247E+01  0.65151842933E+02  0.25603842492E+02  0.70022639983E+02  0.00000000000E+00 0. -1.
</event>
<event>
 7    1  0.6473813E-006  0.1345360E+03  0.7561462E-02  0.1220876E+00
         -1   -1    0    0    0  501 -0.00000000000E+00  0.00000000000E+00  0.27087232681E+02  0.27087232681E+02  0.00000000000E+00 0.  1.
          1   -1    0    0  501    0  0.00000000000E+00 -0.00000000000E+00 -0.70306419056E+03  0.70306419056E+03  0.00000000000E+00 0. -1.
         23    2    1    2    0    0  0.99638498403E+01 -0.80334210550E+02 -0.29963853575E+03  0.33463976049E+03  0.12509058120E+03 0.  0.
          5    1    3    3  502    0  0.19213930310E+02 -0.11232253380E+03 -0.21065908122E+03  0.23954174504E+03  0.41800000000E+01 0.  1.
         -5    1    3    3    0  502 -0.92500804693E+01  0.31988323253E+02 -0.88979454539E+02  0.95098015454E+02  0.41800000000E+01 0.  1.
        -11    1    1    2    0    0  0.35710731189E+02  0.63405532127E+02 -0.23556001278E+03  0.24654418964E+03  0.00000000000E+00 0. -1.
         11    1    1    2    0    0 -0.45674581029E+02  0.16928678423E+02 -0.14077840935E+03  0.14896747310E+03  0.00000000000E+00 0.  1.
</event>
<event>
 7    1  0.6473813E-006  0.1922057E+03  0.7561462E-02  0.1156487E+00
          2   -1    0    0  501    0  0.00000000000E+00  0.00000000000E+00  0.21950601467E+03  0.21950601467E+03  0.00000000000E+00 0.  1.
         -2   -1    0    0    0  501 -0.00000000000E+00 -0.00000000000E+00 -0.25703246126E+03  0.25703246126E+03  0.00000000000E+00 0. -1.
         23    2    1    2    0    0  0.15570658236E+03 -0.66068007787E+02 -0.14578056760E+03  0.25594793181E+03  0.12509136047E+03 0.  0.
          5    1    3    3  502    0  0.18246776572E+02  0.24033999942E+02  0.72760167692E+01  0.31320773115E+02  0.41800000000E+01 0.  1.
         -5    1    3    3    0  502  0.13745980579E+03 -0.90102007729E+02 -0.15305658437E+03  0.22462715869E+03  0.41800000000E+01 0.  1.
        -11    1    1    2    0    0 -0.15177509968E+03  0.31834557031E+02  0.10187427032E+03  0.18554645472E+03  0.00000000000E+00 0.  1.
         11    1    1    2    0    0 -0.39314826731E+01  0.34233450755E+02  0.63798506969E+01  0.35044089395E+02  0.00000000000E+00 0. -1.
</event>
<event>
 7    1  0.6473813E-006  0.1107919E+03  0.7561462E-02  0.1259110E+00
          1   -1    0    0  501    0  0.00000000000E+00  0.00000000000E+00  0.70882606386E+03  0.70882606386E+03  0.00000000000E+00 0. -1.
         -1   -1    0    0    0  501 -0.00000000000E+00 -0.00000000000E+00 -0.17706876775E+02  0.17706876775E+02  0.00000000000E+00 0.  1.
         23    2    1    2    0    0  0.10782462352E+02 -0.28574910434E+02  0.39615726654E+03  0.41655288338E+03  0.12507173067E+03 0.  0.
          5    1    3    3  502    0 -0.41297444604E+02  0.28091334438E+02  0.12560581446E+03  0.13523644120E+03  0.41800000000E+01 0. -1.
         -5    1    3    3    0  502  0.52079906956E+02 -0.56666244872E+02  0.27055145208E+03  0.28131644218E+03  0.41800000000E+01 0. -1.
        -11    1    1    2    0    0  0.30259066390E+02  0.41497841299E+02  0.13873589136E+03  0.14793691048E+03  0.00000000000E+00 0.  1.
         11    1    1    2    0    0 -0.41041528741E+02 -0.12922930865E+02  0.15622602919E+03  0.16204314678E+03  0.00000000000E+00 0. -1.
</event>
<event>
 7    1  0.6473813E-006  0.8250877E+02  0.7561462E-02  0.1322079E+00
          1   -1    0    0  501    0  0.00000000000E+00  0.00000000000E+00  0.97285216907E+02  0.97285216907E+02  0.00000000000E+00 0. -1.
         -1   -1    0    0    0  501 -0.00000000000E+00 -0.00000000000E+00 -0.15204054360E+03  0.15204054360E+03  0.00000000000E+00 0.  1.
         23    2    1    2    0    0 -0.51885134857E+02 -0.30901558962E+00 -0.33911503101E+02  0.13961368422E+03  0.12509927286E+03 0.  0.
          5    1    3    3  502    0 -0.10756386058E+02  0.39950134413E+02 -0.62614130807E+02  0.75164585127E+02  0.41800000000E+01 0. -1.
         -5    1    3    3    0  502 -0.41128748799E+02 -0.40259150003E+02  0.28702627706E+02  0.64449099093E+02  0.41800000000E+01 0. -1.
        -11    1    1    2    0    0  0.76761961750E+01 -0.16685350617E+02 -0.50564274988E+02  0.53796568831E+02  0.00000000000E+00 0. -1.
         11    1    1    2    0    0  0.44208938682E+02  0.16994366207E+02  0.29720451400E+02  0.55915507452E+02  0.00000000000E+00 0.  1.
</event>
<event>
 6    1  0.6473813E-006  0.1122834E+03  0.7561462E-02  0.1256399E+00
          2   -1    0    0  501    0  0.00000000000E+00  0.00000000000E+00  0.54883295263E+03  0.54883295263E+03  0.00000000000E+00 0.  1.
         -2   -1    0    0    0  501 -0.00000000000E+00 -0.00000000000E+00 -0.23501708481E+02  0.23501708481E+02  0.00000000000E+00 0. -1.
          5    1    1    2  502    0 -0.67775017282E+02  0.15526397667E+02  0.12628761020E+03  0.14422397472E+03  0.41800000000E+01 0. -1.
         -5    1    1    2    0  502  0.49913554786E+02 -0.34228078832E+02  0.15668499319E+03  0.16801959357E+03  0.41800000000E+01 0.  1.
        -11    1    1    2    0    0  0.53582041997E+02  0.22914419373E+02  0.14272986427E+03  0.15416847925E+03  0.00000000000E+00 0. -1.
         11    1    1    2    0    0 -0.35720579501E+02 -0.42127382075E+01  0.99628776487E+02  0.10592261358E+03  0.00000000000E+00 0.  1.
</event>
<event>
 7    1  0.6473813E-006  0.1015488E+03  0.7561462E-02  0.1277072E+00
         -1   -1    0    0    0  501 -0.00000000000E+00  0.00000000000E+00  0.38558808561E+02  0.38558808561E+02  0.00000000000E+00 0.  1.
          1   -1    0    0  501    0  0.00000000000E+00 -0.00000000000E+00 -0.49419554735E+03  0.49419554735E+03  0.00000000000E+00 0. -1.
         23    2    1    2    0    0  0.61658761525E+02  0.57955504072E+02 -0.23299087291E+03  0.27765554549E+03  0.12508881549E+03 0.  0.
          5    1    3    3  502    0  0.33374124068E+02 -0.39499588498E+01 -0.19825872225E+03  0.20113037483E+03  0.41800000000E+01 0. -1.
         -5    1    3    3    0  502  0.28284637457E+02  0.61905462922E+02 -0.34732150659E+02  0.76525170663E+02  0.41800000000E+01 0. -1.
        -11    1    1    2    0    0 -0.12044888432E+02 -0.49211062540E+02 -0.36992697580E+02  0.62731711979E+02  0.00000000000E+00 0.  1.
         11    1    1    2    0    0 -0.49613873093E+02 -0.87444415323E+01 -0.18565316830E+03  0.19236709844E+03  0.00000000000E+00 0. -1.
</event>
<event>
 7    1  0.6473813E-006  0.1293920E+03  0.7561462E-02  0.1228361E+00
         -2   -1    0    0    0  501 -0.00000000000E+00  0.00000000000E+00  0.14028952445E+03  0.14028952445E+03  0.00000000000E+00 0.  1.
          2   -1    0    0  501    0  0.00000000000E+00 -0.00000000000E+00 -0.16382922598E+03  0.16382922598E+03  0.00000000000E+00 0. -1.
         23    2    1    2    0    0 -0.88511085549E+02  0.49961754994E+02 -0.38073574739E+02  0.16561076829E+03  0.12508773022E+03 0.  0.
          5    1    3    3  502    0 -0.10128657900E+02  0.58054074767E+02  0.25432005717E+02  0.64320483695E+02  0.41800000000E+01 0. -1.
         -5    1    3    3    0  502 -0.78382427649E+02 -0.80923197739E+01 -0.63505580455E+02  0.10129028459E+03  0.41800000000E+01 0. -1.
        -11    1    1    2    0    0  0.82001540055E+02 -0.12712322600E+02 -0.22084541127E+02  0.85869567800E+02  0.00000000000E+00 0. -1.
         11    1    1    2    0    0  0.65095454935E+01 -0.37249432394E+02  0.36618414336E+02  0.52638414345E+02  0.00000000000E+00 0.  1.
</event>
<event>
 7    1  0.6473813E-006  0.2003972E+03  0.7561462E-02  0.1149404E+00
          2   -1    0    0  501    0  0.00000000000E+00  0.00000000000E+00  0.39291954295E+03  0.39291954295E+03  0.00000000000E+00 0. -1.
         -2   -1    0    0    0  501 -0.00000000000E+00 -0.00000000000E+00 -0.11034709266E+03  0.11034709266E+03  0.00000000000E+00 0.  1.
         23    2    1    2    0    0  0.35103634444E+02  0.17304240685E+03  0.11981123969E+03  0.24734208758E+03  0.12508970947E+03 0.  0.
          5    1    3    3  502    0 -0.38571632617E+02  0.15670821924E+02  0.15448324753E+02  0.44603459958E+02  0.41800000000E+01 0.  1.
         -5    1    3    3    0  502  0.73675267061E+02  0.15737158492E+03  0.10436291494E+03  0.20273862763E+03  0.41800000000E+01 0.  1.
        -11    1    1    2    0    0  0.15250444879E+02 -0.34202786065E+02  0.75772550813E+02  0.84521512648E+02  0.00000000000E+00 0. -1.
         11    1    1    2    0    0 -0.50354079323E+02 -0.13883962078E+03  0.86988659787E+02  0.17140303537E+03  0.00000000000E+00 0.  1.
</event>
<event>
 7    1  0.6473813E-006  0.8689741E+02  0.7561462E-02  0.1310544E+00
          2   -1    0    0  501    0  0.00000000000E+00  0.00000000000E+00  0.66121423179E+02  0.66121423179E+02  0.00000000000E+00 0. -1.
         -2   -1    0    0    0  501 -0.00000000000E+00 -0.00000000000E+00 -0.21552696078E+03  0.21552696078E+03  0.00000000000E+00 0.  1.
         23    2    1    2    0    0  0.22009338202E+02  0.36529509366E+02 -0.13819271232E+03  0.18304537451E+03  0.11220324135E+03 0.  0.
          5    1    3    3  502    0 -0.10171276412E+02  0.60047231957E+02 -0.30712325114E+02  0.68336258630E+02  0.41800000000E+01 0. -1.
         -5    1    3    3    0  502  0.32180614614E+02 -0.23517722592E+02 -0.10748038721E+03  0.11470911588E+03  0.41800000000E+01 0.  1.
        -11    1    1    2    0    0  0.20083053119E+02 -0.70548391190E+01 -0.35790256011E+02  0.41641832367E+02  0.00000000000E+00 0. -1.
         11    1    1    2    0    0 -0.42092391321E+02 -0.29474670247E+02  0.24577430728E+02  0.56961177081E+02  0.00000000000E+00 0.  1.
</event>
<event>
 7    1  0.6473813E-006  0.1184804E+03  0.7561462E-02  0.1245625E+00
         -2   -1    0    0    0  501 -0.00000000000E+00  0.00000000000E+00  0.12049321274E+03  0.12049321274E+03  0.00000000000E+00 0.  1.
          2   -1    0    0  501    0  0.00000000000E+00 -0.00000000000E+00 -0.15520566145E+03  0.15520566145E+03  0.00000000000E+00 0. -1.
         23    2    1    2    0    0 -0.51798290032E+02 -0.55444857255E+02  0.66566859144E+01  0.14645809755E+03  0.12509383607E+03 0.  0.
          5    1    3    3  502    0 -0.24757320488E+01  0.30913380657E+02 -0.27053885220E+02  0.41366066508E+02  0.41800000000E+01 0.  1.
         -5    1    3    3    0  502 -0.49322557983E+02 -0.86358237912E+02  0.33710571135E+02  0.10509203104E+03  0.41800000000E+01 0.  1.
        -11    1    1    2    0    0  0.39535564260E+02 -0.89844566461E+01  0.14526610728E+02  0.43067432264E+02  0.00000000000E+00 0.  1.
         11    1    1    2    0    0  0.12262725772E+02  0.64429313901E+02 -0.55895745349E+02  0.86173344378E+02  0.00000000000E+00 0. -1.
</event>
<event>
 7    1  0.6473813E-006  0.1397791E+03  0.7561462E-02  0.1213626E+00
         -1   -1    0    0    0  501 -0.00000000000E+00  0.00000000000E+00  0.16544210340E+03  0.16544210340E+03  0.00000000000E+00 0.  1.
          1   -1    0    0  501    0  0.00000000000E+00 -0.00000000000E+00 -0.12346948883E+03  0.12346948883E+03  0.00000000000E+00 0. -1.
         23    2    1    2    0    0  0.74016685808E+02 -0.55709014260E+02  0.23156443294E+02  0.15736998946E+03  0.12508848336E+03 0.  0.
          5    1    3    3  502    0  0.84217380021E+02  0.13620646523E+02  0.10884427610E+02  0.86104774976E+02  0.41800000000E+01 0.  1.
         -5    1    3    3    0  502 -0.10200694213E+02 -0.69329660783E+02  0.12272015684E+02  0.71265214486E+02  0.41800000000E+01 0.  1.
        -11    1    1    2    0    0  0.10884510895E+02  0.34860247655E+02  0.24430172949E+02  0.43937942537E+02  0.00000000000E+00 0.  1.
         11    1    1    2    0    0 -0.84901196703E+02  0.20848766604E+02 -0.56140016758E+01  0.87603660228E+02  0.00000000000E+00 0. -1.
</event>
<event>
 7    1  0.6473813E-006  0.1253311E+03  0.7561462E-02  0.1234553E+00
         -2   -1    0    0    0  501 -0.00000000000E+00  0.00000000000E+00  0.93567379629E+02  0.93567379629E+02  0.00000000000E+00 0.  1.
          2   -1    0    0  501    0  0.00000000000E+00 -0.00000000000E+00 -0.21457537505E+03  0.21457537505E+03  0.00000000000E+00 0. -1.
         23    2    1    2    0    0  0.38796709496E+02 -0.72444166832E+02 -0.24672672605E+02  0.15168786363E+03  0.12508846958E+03 0.  0.
          5    1    3    3  502    0 -0.28459525342E+02 -0.59304277385E+02  0.21060543890E+02  0.69195092368E+02  0.41800000000E+01 0.  1.
         -5    1    3    3    0  502  0.67256234838E+02 -0.13139889447E+02 -0.45733216494E+02  0.82492771260E+02  0.41800000000E+01 0.  1.
        -11    1    1    2    0    0 -0.46935801566E+02  0.87321752917E+02 -0.58790744970E+02  0.11525801358E+03  0.00000000000E+00 0.  1.
         11    1    1    2    0    0  0.81390920700E+01 -0.14877586084E+02 -0.37544577850E+02  0.41196877471E+02  0.00000000000E+00 0. -1.
</event>
<event>
 7    1  0.6473813E-006  0.1501558E+03  0.7561462E-02  0.1200282E+00
          2   -1    0    0  501    0  0.00000000000E+00  0.00000000000E+00  0.48358756878E+03  0.48358756878E+03  0.00000000000E+00 0. -1.
         -2   -1    0    0    0  501 -0.00000000000E+00 -0.00000000000E+00 -0.55343405983E+02  0.55343405983E+02  0.00000000000E+00 0.  1.
         23    2    1    2    0    0  0.58315499851E+02  0.90851223394E+02  0.13151815390E+03  0.21118433740E+03  0.12508859758E+03 0.  0.
          5    1    3    3  502    0  0.79232568520E+02  0.10874235781E+03  0.92813696955E+02  0.16350704890E+03  0.41800000000E+01 0. -1.
         -5    1    3    3    0  502 -0.20917068669E+02 -0.17891134415E+02  0.38704456943E+02  0.47677288510E+02  0.41800000000E+01 0. -1.
        -11    1    1    2    0    0 -0.20747859828E+02 -0.97522085582E+02  0.23355649626E+03  0.25394815969E+03  0.00000000000E+00 0. -1.
         11    1    1    2    0    0 -0.37567640023E+02  0.66708621882E+01  0.63169512633E+02  0.73798477664E+02  0.00000000000E+00 0.  1.
</event>
<event>
 7    1  0.6473813E-006  0.7741406E+02  0.7561462E-02  0.1336554E+00
         -2   -1    0    0    0  501 -0.00000000000E+00  0.00000000000E+00  0.28426754799E+02  0.28426754799E+02  0.00000000000E+00 0.  1.
          2   -1    0    0  501    0  0.00000000000E+00 -0.00000000000E+00 -0.47530708874E+03  0.47530708874E+03  0.00000000000E+00 0. -1.
         23    2    1    2    0    0 -0.35722330543E+01  0.77324109310E+00 -0.16747625954E+03  0.20906721986E+03  0.12508975242E+03 0.  0.
          5    1    3    3  502    0 -0.24139380409E+02  0.29861468323E+02 -0.86089119700E+00  0.38634576620E+02  0.41800000000E+01 0. -1.
         -5    1    3    3    0  502  0.20567147355E+02 -0.29088227230E+02 -0.16661536834E+03  0.17043264324E+03  0.41800000000E+01 0. -1.
        -11    1    1    2    0    0  0.26603564323E+01 -0.40504680646E+02 -0.21640944721E+03  0.22018345871E+03  0.00000000000E+00 0. -1.
         11    1    1    2    0    0  0.91187662200E+00  0.39731439553E+02 -0.62994627190E+02  0.74483164961E+02  0.00000000000E+00 0.  1.
</event>
<event>
 7    1  0.6473813E-006  0.1033193E+03  0.7561462E-02  0.1273467E+00
          2   -1    0    0  501    0  0.00000000000E+00  0.00000000000E+00  0.37499162919E+03  0.37499162919E+03  0.00000000000E+00 0. -1.
         -2   -1    0    0    0  501 -0.00000000000E+00 -0.00000000000E+00 -0.39425778931E+02  0.39425778931E+02  0.00000000000E+00 0.  1.
         23    2    1    2    0    0 -0.10999340772E+02  0.30911092483E+02  0.10821140317E+03  0.16872934319E+03  0.12523339148E+03 0.  0.
          5    1    3    3  502    0 -0.30886492585E+02  0.71870232936E+02  0.90499877020E+02  0.11969547171E+03  0.41800000000E+01 0.  1.
         -5    1    3    3    0  502  0.19887151813E+02 -0.40959140453E+02  0.17711526147E+02  0.49033871480E+02  0.41800000000E+01 0.  1.
        -11    1    1    2    0    0 -0.11004884185E+02  0.22370694999E+02  0.25094819386E+02  0.35373795819E+02  0.00000000000E+00 0.  1.
         11    1    1    2    0    0  0.22004224957E+02 -0.53281787482E+02  0.20225962771E+03  0.21031426912E+03  0.00000000000E+00 0. -1.
</event>
<event>
 7    1  0.6473813E-006  0.2017916E+03  0.7561462E-02  0.1148236E+00
          3   -1    0    0  501    0  0.00000000000E+00  0.00000000000E+00  0.15124998021E+03  0.15124998021E+03  0.00000000000E+00 0. -1.
         -3   -1    0    0    0  501 -0.00000000000E+00 -0.00000000000E+00 -0.32328734385E+03  0.32328734385E+03  0.00000000000E+00 0.  1.
         23    2    1    2    0    0 -0.17390403117E+03  0.69905835606E+02 -0.13525319130E+03  0.26280693472E+03  0.12507846045E+03 0.  0.
          5    1    3    3  502    0 -0.89624743373E+02  0.99219267857E+00 -0.12431137007E+03  0.15331134400E+03  0.41800000000E+01 0.  1.
         -5    1    3    3    0  502 -0.84279287801E+02  0.68913642928E+02 -0.10941821225E+02  0.10949559071E+03  0.41800000000E+01 0.  1.
        -11    1    1    2    0    0  0.46655260063E+02  0.18258782415E+02 -0.26260468279E+02  0.56565966986E+02  0.00000000000E+00 0. -1.
         11    1    1    2    0    0  0.12724877111E+03 -0.88164618022E+02 -0.10523704062E+02  0.15516442236E+03  0.00000000000E+00 0.  1.
</event>
<event>
 7    1  0.6473813E-006  0.9059219E+02  0.7561462E-02  0.1301424E+00
         -2   -1    0    0    0  501 -0.00000000000E+00  0.00000000000E+00  0.26802843637E+02  0.26802843637E+02  0.00000000000E+00 0.  1.
          2   -1    0    0  501    0  0.00000000000E+00 -0.00000000000E+00 -0.74976807166E+03  0.74976807166E+03  0.00000000000E+00 0. -1.
         23    2    1    2    0    0  0.58157992845E+02  0.31283506690E+02 -0.22603098372E+03  0.26664329250E+03  0.12509048690E+03 0.  0.
          5    1    3    3  502    0  0.65039163579E+01  0.13512050174E+02 -0.20855912118E+03  0.20913932164E+03  0.41800000000E+01 0.  1.
         -5    1    3    3    0  502  0.51654076487E+02  0.17771456516E+02 -0.17471862535E+02  0.57503970862E+02  0.41800000000E+01 0.  1.
        -11    1    1    2    0    0 -0.82224012716E+02 -0.23009808999E+02 -0.42828956041E+03  0.43671751411E+03  0.00000000000E+00 0.  1.
         11    1    1    2    0    0  0.24066019871E+02 -0.82736976908E+01 -0.68644683896E+02  0.73210108681E+02  0.00000000000E+00 0. -1.
</event>
<event>
 7    1  0.6473813E-006  0.1148008E+03  0.7561462E-02  0.1251929E+00
          1   -1    0    0  501    0  0.00000000000E+00  0.00000000000E+00  0.40088122006E+03  0.40088122006E+03  0.00000000000E+00 0. -1.
         -1   -1    0    0    0  501 -0.00000000000E+00 -0.00000000000E+00 -0.34250166257E+02  0.34250166257E+02  0.00000000000E+00 0.  1.
         23    2    1    2    0    0  0.40660532831E+01  0.40573413802E+02  0.18533474664E+03  0.22728642892E+03  0.12508963892E+03 0.  0.
          5    1    3    3  502    0  0.46616224759E+02  0.65059763203E+02  0.94159193194E+02  0.12364979281E+03  0.41800000000E+01 0.  1.
         -5    1    3    3    0  502 -0.42550171476E+02 -0.24486349401E+02  0.91175553443E+02  0.10363663612E+03  0.41800000000E+01 0.  1.
        -11    1    1    2    0    0 -0.31099189718E+02 -0.59533027296E+02  0.10415263352E+03  0.12393188456E+03  0.00000000000E+00 0.  1.
         11    1    1    2    0    0  0.27033136435E+02  0.18959613495E+02  0.77143673649E+02  0.83913072840E+02  0.00000000000E+00 0. -1.
</event>
<event>
 7    1  0.6473813E-006  0.1127809E+03  0.7561462E-02  0.1255505E+00
          2   -1    0    0  501    0  0.00000000000E+00  0.00000000000E+00  0.65092611057E+02  0.65092611057E+02  0.00000000000E+00 0. -1.
         -2   -1    0    0    0  501 -0.00000000000E+00 -0.00000000000E+00 -0.27514439407E+03  0.27514439407E+03  0.00000000000E+00 0.  1.
         23    2    1    2    0    0 -0.67224079673E+02 -0.17347644854E+02 -0.16635720939E+03  0.21941141406E+03  0.12508648942E+03 0.  0.
          5    1    3    3  502    0  0.22078446763E+02  0.25280311632E+02 -0.84160889606E+02  0.90703250807E+02  0.41800000000E+01 0. -1.
         -5    1    3    3    0  502 -0.89302526436E+02 -0.42627956486E+02 -0.82196319780E+02  0.12870816325E+03  0.41800000000E+01 0. -1.
        -11    1    1    2    0    0  0.76381459081E+01 -0.20654987839E+02 -0.45044555985E+02  0.50139623247E+02  0.00000000000E+00 0.  1.
         11    1    1    2    0    0  0.59585933765E+02  0.38002632693E+02  0.13499823597E+01  0.70685967820E+02  0.00000000000E+00 0. -1.
</event>
<event>
 7    1  0.6473813E-006  0.8366955E+02  0.7561462E-02  0.1318949E+00
         -1   -1    0    0    0  501 -0.00000000000E+00  0.00000000000E+00  0.71867977288E+02  0.71867977288E+02  0.00000000000E+00 0.  1.
          1   -1    0    0  501    0  0.00000000000E+00 -0.00000000000E+00 -0.21607200695E+03  0.21607200695E+03  0.00000000000E+00 0. -1.
         23    2    1    2    0    0 -0.37365331830E+02 -0.46369458127E+02 -0.10574959152E+03  0.17429078850E+03  0.12509199887E+03 0.  0.
          5    1    3    3  502    0 -0.22691348931E+02 -0.19865582512E+02 -0.13108694728E+03  0.13457636803E+03  0.41800000000E+01 0. -1.
         -5    1    3    3    0  502 -0.14673982899E+02 -0.26503875615E+02  0.25337355763E+02  0.39714420477E+02  0.41800000000E+01 0. -1.
        -11    1    1    2    0    0  0.65386649835E+02  0.42592837121E+02 -0.22645403086E+02  0.81255018501E+02  0.00000000000E+00 0.  1.
         11    1    1    2    0    0 -0.28021318005E+02  0.37766210055E+01 -0.15809035058E+02  0.32394177230E+02  0.00000000000E+00 0. -1.
</event>
<event>
 7    1  0.6473813E-006  0.1214185E+03  0.7561462E-02  0.1240775E+00
         -2   -1    0    0    0  501 -0.00000000000E+00  0.00000000000E+00  0.33375399667E+02  0.33375399667E+02  0.00000000000E+00 0.  1.
          2   -1    0    0  501    0  0.00000000000E+00 -0.00000000000E+00 -0.71689036513E+03  0.71689036513E+03  0.00000000000E+00 0. -1.
         23    2    1    2    0    0  0.34528947045E+02 -0.86778775696E+02 -0.22511592215E+03  0.27393572940E+03  0.12506318939E+03 0.  0.
          5    1    3    3  502    0 -0.27256804070E+02  0.14003190871E+02 -0.85647550672E+02  0.91060408844E+02  0.41800000000E+01 0.  1.
         -5    1    3    3    0  502  0.61785751115E+02 -0.10078196657E+03 -0.13946837147E+03  0.18287532055E+03  0.41800000000E+01 0.  1.
        -11    1    1    2    0    0 -0.71406391914E+01  0.11735919998E+02 -0.31091050367E+01  0.14084994867E+02  0.00000000000E+00 0.  1.
         11    1    1    2    0    0 -0.27388307853E+02  0.75042855698E+02 -0.45528993828E+03  0.46224504054E+03  0.00000000000E+00 0. -1.
</event>
<event>
 7    1  0.6473813E-006  0.9585233E+02  0.7561462E-02  0.1289268E+00
          2   -1    0    0  501    0  0.00000000000E+00  0.00000000000E+00  0.13277729630E+03  0.13277729630E+03  0.00000000000E+00 0. -1.
         -2   -1    0    0    0  501 -0.00000000000E+00 -0.00000000000E+00 -0.89295684364E+02  0.89295684364E+02  0.00000000000E+00 0.  1.
         23    2    1    2    0    0 -0.23754079974E+01 -0.14315394662E+02  0.67065182266E+01  0.12610851560E+03  0.12509119567E+03 0.  0.
          5    1    3    3  502    0 -0.26414823199E+01  0.45225195504E+02  0.37488840568E+02  0.58950668396E+02  0.41800000000E+01 0. -1.
         -5    1    3    3    0  502  0.26607432247E+00 -0.59540590166E+02 -0.30782322341E+02  0.67157847207E+02  0.41800000000E+01 0. -1.
        -11    1    1    2    0    0 -0.30979188070E+02  0.35416386190E+02  0.30307289082E+02  0.55969297617E+02  0.00000000000E+00 0. -1.
         11    1    1    2    0    0  0.33354596067E+02 -0.21100991528E+02  0.64678046271E+01  0.39995167445E+02  0.00000000000E+00 0.  1.
</event>
<event>
 7    1  0.6473813E-006  0.8893911E+02  0.7561462E-02  0.1305441E+00
          1   -1    0    0  501    0  0.00000000000E+00  0.00000000000E+00  0.49239342996E+03  0.49239342996E+03  0.00000000000E+00 0. -1.
         -1   -1    0    0    0  501 -0.00000000000E+00 -0.00000000000E+00 -0.30554537315E+02  0.30554537315E+02  0.00000000000E+00 0.  1.
         23    2    1    2    0    0 -0.17853437923E+02  0.51440596132E+02  0.27713205824E+03  0.30889201181E+03  0.12508883675E+03 0.  0.
          5    1    3    3  502    0 -0.10379342376E+02 -0.15961268075E+02 -0.38008117412E+01  0.19859793469E+02  0.41800000000E+01 0.  1.
         -5    1    3    3    0  502 -0.74740955465E+01  0.67401864207E+02  0.28093286999E+03  0.28903221834E+03  0.41800000000E+01 0.  1.
        -11    1    1    2    0    0  0.33072999753E+02  0.36628343411E+01  0.18025442341E+02  0.37843840182E+02  0.00000000000E+00 0.  1.
         11    1    1    2    0    0 -0.15219561831E+02 -0.55103430473E+02  0.16668139206E+03  0.17621211528E+03  0.00000000000E+00 0. -1.
</event>
<event>
 7    1  0.6473813E-006  0.3932457E+03  0.7561462E-02  0.1046144E+00
         -4   -1    0    0    0  501 -0.00000000000E+00  0.00000000000E+00  0.76344401748E+03  0.76344401748E+03  0.00000000000E+00 0.  1.
          4   -1    0    0  501    0  0.00000000000E+00 -0.00000000000E+00 -0.21773783496E+03  0.21773783496E+03  0.00000000000E+00 0. -1.
         23    2    1    2    0    0  0.34182715319E+03 -0.17579877090E+03  0.37427125753E+03  0.55088838732E+03  0.12509208833E+03 0.  0.
          5    1    3    3  502    0  0.71960766899E+02 -0.74189657876E+02  0.43953546498E+02  0.11239147636E+03  0.41800000000E+01 0. -1.
         -5    1    3    3    0  502  0.26986638629E+03 -0.10160911302E+03  0.33031771103E+03  0.43849691096E+03  0.41800000000E+01 0. -1.
        -11    1    1    2    0    0 -0.30592634190E+03  0.12065657816E+03  0.14389691016E+03  0.35896414483E+03  0.00000000000E+00 0. -1.
         11    1    1    2    0    0 -0.35900811293E+02  0.55142192736E+02  0.27538014832E+02  0.71329320284E+02  0.00000000000E+00 0.  1.
</event>
<event>
 7    1  0.6473813E-006  0.8752996E+02  0.7561462E-02  0.1308946E+00
          1   -1    0    0  501    0  0.00000000000E+00  0.00000000000E+00  0.96757287705E+02  0.96757287705E+02  0.00000000000E+00 0. -1.
         -1   -1    0    0    0  501 -0.00000000000E+00 -0.00000000000E+00 -0.12476360309E+03  0.12476360309E+03  0.00000000000E+00 0.  1.
         23    2    1    2    0    0  0.10355083525E+02  0.32844807732E+01 -0.32409135906E+02  0.12968072242E+03  0.12509485244E+03 0.  0.
          5    1    3    3  502    0  0.41911853710E+02 -0.41132717900E+02 -0.44395451559E+02  0.73735557788E+02  0.41800000000E+01 0.  1.
         -5    1    3    3    0  502 -0.31556770185E+02  0.44417198673E+02  0.11986315653E+02  0.55945164629E+02  0.41800000000E+01 0.  1.
        -11    1    1    2    0    0 -0.14887462549E+02 -0.30506119664E+02  0.36275445265E+02  0.49680658281E+02  0.00000000000E+00 0. -1.
         11    1    1    2    0    0  0.45323790232E+01  0.27221638891E+02 -0.31872624745E+02  0.42159510098E+02  0.00000000000E+00 0.  1.
</event>
<event>
 7    1  0.6473813E-006  0.9666023E+02  0.7561462E-02  0.1287480E+00
          1   -1    0    0  501    0  0.00000000000E+00  0.00000000000E+00  0.36164126893E+03  0.36164126893E+03  0.00000000000E+00 0. -1.
         -1   -1    0    0    0  501 -0.00000000000E+00 -0.00000000000E+00 -0.44120002514E+02  0.44120002514E+02  0.00000000000E+00 0.  1.
         23    2    1    2    0    0 -0.20569275069E+02 -0.24091905542E+02  0.86472840584E+02  0.15533442227E+03  0.12509082937E+03 0.  0.
          5    1    3    3  502    0  0.12161925414E+02 -0.52287767025E+02  0.96756063433E+02  0.11072999242E+03  0.41800000000E+01 0. -1.
         -5    1    3    3    0  502 -0.32731200483E+02  0.28195861483E+02 -0.10283222849E+02  0.44604429847E+02  0.41800000000E+01 0. -1.
        -11    1    1    2    0    0  0.13563362261E+02 -0.34495772904E+02  0.10208268111E+03  0.10860385318E+03  0.00000000000E+00 0. -1.
         11    1    1    2    0    0  0.70059128083E+01  0.58587678446E+02  0.12896574472E+03  0.14182299599E+03  0.00000000000E+00 0.  1.
</event>
<event>
 6    1  0.6473813E-006  0.2090497E+03  0.7561462E-02  0.1142321E+00
          2   -1    0    0  501    0  0.00000000000E+00  0.00000000000E+00  0.14743255708E+03  0.14743255708E+03  0.00000000000E+00 0. -1.
         -2   -1    0    0    0  501 -0.00000000000E+00 -0.00000000000E+00 -0.11400200885E+04  0.11400200885E+04  0.00000000000E+00 0.  1.
          5    1    1    2  502    0  0.78260053431E+02  0.76197437971E+02 -0.62062363937E+03  0.63017605450E+03  0.41800000000E+01 0. -1.
         -5    1    1    2    0  502  0.66395067133E+02 -0.12088958720E+03 -0.44525606868E+03  0.46614701150E+03  0.41800000000E+01 0.  1.
        -11    1    1    2    0    0 -0.11431578130E+03 -0.29154187355E+01  0.71058056644E+02  0.13463225815E+03  0.00000000000E+00 0.  1.
         11    1    1    2    0    0 -0.30339339265E+02  0.47607567962E+02  0.22341200162E+01  0.56497321411E+02  0.00000000000E+00 0. -1.
</event>
<event>
 7    1  0.6473813E-006  0.1223091E+03  0.7561462E-02  0.1239336E+00
          2   -1    0    0  501    0  0.00000000000E+00  0.00000000000E+00  0.12322381839E+04  0.12322381839E+04  0.00000000000E+00 0. -1.
         -2   -1    0    0    0  501 -0.00000000000E+00 -0.00000000000E+00 -0.14082143315E+02  0.14082143315E+02  0.00000000000E+00 0.  1.
         23    2    1    2    0    0  0.23006043848E+02  0.78858845689E+02  0.80228348946E+03  0.81612145958E+03  0.12508974268E+03 0.  0.
          5    1    3    3  502    0 -0.34023686123E+02  0.74585372763E+02  0.31674289828E+03  0.32720654801E+03  0.41800000000E+01 0.  1.
         -5    1    3    3    0  502  0.57029729972E+02  0.42734729259E+01  0.48554059118E+03  0.48891491157E+03  0.41800000000E+01 0.  1.
        -11    1    1    2    0    0  0.32562549184E+01 -0.78860925598E+02  0.35872901335E+03  0.36730934347E+03  0.00000000000E+00 0. -1.
         11    1    1    2    0    0 -0.26262298767E+02  0.20799093579E-02  0.57143537795E+02  0.62889524188E+02  0.00000000000E+00 0.  1.
</event>
<event>
 7    1  0.6473813E-006  0.1409024E+03  0.7561462E-02  0.1212120E+00
         -1   -1    0    0    0  501 -0.00000000000E+00  0.00000000000E+00  0.25732904259E+03  0.25732904259E+03  0.00000000000E+00 0.  1.
          1   -1    0    0  501    0  0.00000000000E+00 -0.00000000000E+00 -0.11995178139E+03  0.11995178139E+03  0.00000000000E+00 0. -1.
         23    2    1    2    0    0 -0.11700753956E+03 -0.64428055733E+02  0.41153421292E+02  0.18757211084E+03  0.12509178232E+03 0.  0.
          5    1    3    3  502    0 -0.84860104465E+02 -0.61092947272E+02  0.83682945670E+02  0.13399213907E+03  0.41800000000E+01 0. -1.
         -5    1    3    3    0  502 -0.32147435096E+02 -0.33351084613E+01 -0.42529524378E+02  0.53579971776E+02  0.41800000000E+01 0. -1.
        -11    1    1    2    0    0  0.97776640097E+02  0.25341650735E+02  0.10453504569E+03  0.14536177760E+03  0.00000000000E+00 0.  1.
         11    1    1    2    0    0  0.19230899464E+02  0.39086404998E+02 -0.83112057708E+01  0.44346935534E+02  0.00000000000E+00 0. -1.
</event>
<event>
 7    1  0.6473813E-006  0.1732727E+03  0.7561462E-02  0.1174477E+00
          1   -1    0    0  501    0  0.00000000000E+00  0.00000000000E+00  0.58924208818E+02  0.58924208818E+02  0.00000000000E+00 0. -1.
         -1   -1    0    0    0  501 -0.00000000000E+00 -0.00000000000E+00 -0.55406185588E+03  0.55406185588E+03  0.00000000000E+00 0.  1.
         23    2    1    2    0    0  0.93527038008E+02 -0.10035825108E+03 -0.34446330454E+03  0.39130765402E+03  0.12509047333E+03 0.  0.
          5    1    3    3  502    0 -0.30128816825E+02 -0.21542554908E+02 -0.50413402437E+02  0.62696178676E+02  0.41800000000E+01 0. -1.
         -5    1    3    3    0  502  0.12365585483E+03 -0.78815696174E+02 -0.29404990210E+03  0.32861147534E+03  0.41800000000E+01 0. -1.
        -11    1    1    2    0    0 -0.69911288086E+02  0.11514835442E+03 -0.12337746439E+03  0.18267109910E+03  0.00000000000E+00 0.  1.
         11    1    1    2    0    0 -0.23615749922E+02 -0.14790103337E+02 -0.27296878133E+02  0.39007311582E+02  0.00000000000E+00 0. -1.
</event>
<event>
 6    1  0.6473813E-006  0.2113826E+03  0.7561462E-02  0.1140476E+00
          1   -1    0    0  501    0  0.00000000000E+00  0.00000000000E+00  0.22175275482E+03  0.22175275482E+03  0.00000000000E+00 0. -1.
         -1   -1    0    0    0  501 -0.00000000000E+00 -0.00000000000E+00 -0.20783504474E+03  0.20783504474E+03  0.00000000000E+00 0.  1.
          5    1    1    2  502    0 -0.85922835983E+01  0.52312059095E+02 -0.88185798285E+01  0.53903790352E+02  0.41800000000E+01 0. -1.
         -5    1    1    2    0  502  0.13746278071E+03 -0.13415993630E+03 -0.19729214585E+02  0.19313627027E+03  0.41800000000E+01 0.  1.
        -11    1    1    2    0    0  0.46075622681E+01  0.36052994664E+02  0.65232429517E+01  0.36926965119E+02  0.00000000000E+00 0.  1.
         11    1    1    2    0    0 -0.13347805938E+03  0.45794882541E+02  0.35942261535E+02  0.14562077381E+03  0.00000000000E+00 0. -1.
</event>
<event>
 7    1  0.6473813E-006  0.1047541E+03  0.7561462E-02  0.1270605E+00
         -2   -1    0    0    0  501 -0.00000000000E+00  0.00000000000E+00  0.51070391528E+03  0.51070391528E+03  0.00000000000E+00 0.  1.
          2   -1    0    0  501    0  0.00000000000E+00 -0.00000000000E+00 -0.11416278130E+03  0.11416278130E+03  0.00000000000E+00 0. -1.
         23    2    1    2    0    0 -0.92591791855E+01  0.33986429066E+02  0.47943465385E+03  0.49695292089E+03  0.12595161178E+03 0.  0.
          5    1    3    3  502    0 -0.45173151682E+02  0.55244058566E+02  0.16617791562E+03  0.18090077854E+03  0.41800000000E+01 0. -1.
         -5    1    3    3    0  502  0.35913972496E+02 -0.21257629499E+02  0.31325673823E+03  0.31605214234E+03  0.41800000000E+01 0.  1.
        -11    1    1    2    0    0 -0.27982195461E+02  0.17151198386E+02 -0.38709448649E+02  0.50750254025E+02  0.00000000000E+00 0.  1.
         11    1    1    2    0    0  0.37241374647E+02 -0.51137627453E+02 -0.44184071217E+02  0.77163521669E+02  0.00000000000E+00 0. -1.
</event>
<event>
 7    1  0.6473813E-006  0.1102391E+03  0.7561462E-02  0.1260128E+00
          3   -1    0    0  501    0  0.00000000000E+00  0.00000000000E+00  0.74128074346E+02  0.74128074346E+02  0.00000000000E+00 0. -1.
         -3   -1    0    0    0  501 -0.00000000000E+00 -0.00000000000E+00 -0.17427889778E+03  0.17427889778E+03  0.00000000000E+00 0.  1.
         23    2    1    2    0    0  0.32062871155E+02 -0.52059758860E+01 -0.43136408872E+02  0.13623700432E+03  0.12507854206E+03 0.  0.
          5    1    3    3  502    0  0.74798762630E+02 -0.21758805929E+02 -0.81657048459E+01  0.78437565376E+02  0.41800000000E+01 0.  1.
         -5    1    3    3    0  502 -0.42735891475E+02  0.16552830043E+02 -0.34970704026E+02  0.57799438947E+02  0.41800000000E+01 0.  1.
        -11    1    1    2    0    0  0.30210651211E+02  0.14454296959E+02 -0.22825422187E+02  0.40529125887E+02  0.00000000000E+00 0.  1.
         11    1    1    2    0    0 -0.62273522366E+02 -0.92483210731E+01 -0.34188992373E+02  0.71640841913E+02  0.00000000000E+00 0. -1.
</event>
<event>
 7    1  0.6473813E-006  0.1982866E+03  0.7561462E-02  0.1151193E+00
          1   -1    0    0  501    0  0.00000000000E+00  0.00000000000E+00  0.18818102074E+04  0.18818102074E+04  0.00000000000E+00 0. -1.
         -1   -1    0    0    0  501 -0.00000000000E+00 -0.00000000000E+00 -0.22396380135E+02  0.22396380135E+02  0.00000000000E+00 0.  1.
         23    2    1    2    0    0 -0.10813248262E+03  0.13596489825E+03  0.10226285958E+04  0.10447913911E+04  0.12506285814E+03 0.  0.
          5    1    3    3  502    0 -0.34935618903E+01  0.95185061994E+02  0.59753719891E+03  0.60509551104E+03  0.41800000000E+01 0.  1.
         -5    1    3    3    0  502 -0.10463892073E+03  0.40779836257E+02  0.42509139691E+03  0.43969588002E+03  0.41800000000E+01 0.  1.
        -11    1    1    2    0    0  0.49743923163E+01 -0.61311713601E+02  0.17514789633E+03  0.18563581656E+03  0.00000000000E+00 0.  1.
         11    1    1    2    0    0  0.10315809030E+03 -0.74653184651E+02  0.66163733513E+03  0.67377937992E+03  0.00000000000E+00 0. -1.
</event>
<event>
 7    1  0.6473813E-006  0.1176906E+03  0.7561462E-02  0.1246956E+00
          2   -1    0    0  501    0  0.00000000000E+00  0.00000000000E+00  0.17479145169E+03  0.17479145169E+03  0.00000000000E+00 0. -1.
         -2   -1    0    0    0  501 -0.00000000000E+00 -0.00000000000E+00 -0.95576852347E+02  0.95576852347E+02  0.00000000000E+00 0.  1.
         23    2    1    2    0    0 -0.39101903491E+00 -0.73588017126E+02  0.75593671562E+02  0.16363765825E+03  0.12509009096E+03 0.  0.
          5    1    3    3  502    0 -0.11850201416E+02  0.29354691330E+02  0.45700684855E+02  0.55750786298E+02  0.41800000000E+01 0. -1.
         -5    1    3    3    0  502  0.11459182381E+02 -0.10294270846E+03  0.29892986707E+02  0.10788687195E+03  0.41800000000E+01 0. -1.
        -11    1    1    2    0    0  0.27480571746E+02  0.76868568860E+01 -0.16147599207E+02  0.32787414543E+02  0.00000000000E+00 0.  1.
         11    1    1    2    0    0 -0.27089552711E+02  0.65901160240E+02  0.19768526983E+02  0.73943231240E+02  0.00000000000E+00 0. -1.
</event>
<event>
 7    1  0.6473813E-006  0.2528081E+03  0.7561462E-02  0.1111543E+00
         -2   -1    0    0    0  501 -0.00000000000E+00  0.00000000000E+00  0.30847461850E+03  0.30847461850E+03  0.00000000000E+00 0.  1.
          2   -1    0    0  501    0  0.00000000000E+00 -0.00000000000E+00 -0.33770238523E+03  0.33770238523E+03  0.00000000000E+00 0. -1.
         23    2    1    2    0    0 -0.10059823746E+03  0.21457862769E+03  0.17523296459E+03  0.32018466208E+03  0.12509049970E+03 0.  0.
          5    1    3    3  502    0 -0.12526910401E+03  0.18191612287E+03  0.16990565873E+03  0.27869558563E+03  0.41800000000E+01 0.  1.
         -5    1    3    3    0  502  0.24670866552E+02  0.32662504810E+02  0.53273058543E+01  0.41489076449E+02  0.41800000000E+01 0.  1.
        -11    1    1    2    0    0  0.76076134378E+02 -0.96107243709E+02 -0.14890147710E+03  0.19286220573E+03  0.00000000000E+00 0. -1.
         11    1    1    2    0    0  0.24522103080E+02 -0.11847138398E+03 -0.55559254216E+02  0.13313013592E+03  0.00000000000E+00 0.  1.
</event>
<event>
 6    1  0.6473813E-006  0.1421181E+03  0.7561462E-02  0.1210507E+00
         -1   -1    0    0    0  501 -0.00000000000E+00  0.00000000000E+00  0.75436048564E+03  0.75436048564E+03  0.00000000000E+00 0.  1.
          1   -1    0    0  501    0  0.00000000000E+00 -0.00000000000E+00 -0.29397775358E+02  0.29397775358E+02  0.00000000000E+00 0. -1.
          5    1    1    2  502    0  0.38464064907E+02  0.97721114865E+02  0.37189131422E+03  0.38645765949E+03  0.41800000000E+01 0. -1.
         -5    1    1    2    0  502 -0.33869576964E+02 -0.83626013309E+02  0.18250264757E+03  0.20362992687E+03  0.41800000000E+01 0.  1.
        -11    1    1    2    0    0 -0.38618247093E+02 -0.32191800200E+02  0.71819758918E+02  0.87668459435E+02  0.00000000000E+00 0.  1.
         11    1    1    2    0    0  0.34023759150E+02  0.18096698644E+02  0.98748989562E+02  0.10600221520E+03  0.00000000000E+00 0. -1.
</event>
<event>
 7    1  0.6473813E-006  0.1548950E+03  0.7561462E-02  0.1194584E+00
         -2   -1    0    0    0  501 -0.00000000000E+00  0.00000000000E+00  0.48683136078E+03  0.48683136078E+03  0.00000000000E+00 0.  1.
          2   -1    0    0  501    0  0.00000000000E+00 -0.00000000000E+00 -0.68170287271E+02  0.68170287271E+02  0.00000000000E+00 0. -1.
         23    2    1    2    0    0 -0.94337686458E+02 -0.82369452710E+02  0.33526498191E+03  0.37911958200E+03  0.12507886927E+03 0.  0.
          5    1    3    3  502    0 -0.10659460474E+03 -0.92603022839E+02  0.33390612555E+03  0.36255827487E+03  0.41800000000E+01 0.  1.
         -5    1    3    3    0  502  0.12256918278E+02  0.10233570129E+02  0.13588563585E+01  0.16561307131E+02  0.41800000000E+01 0.  1.
        -11    1    1    2    0    0 -0.16479256632E+02  0.15313998578E+02  0.25503493761E+02  0.34007538070E+02  0.00000000000E+00 0.  1.
         11    1    1    2    0    0  0.11081694309E+03  0.67055454132E+02  0.57892597838E+02  0.14187452798E+03  0.00000000000E+00 0. -1.
</event>
<event>
 7    1  0.6473813E-006  0.1804535E+03  0.7561462E-02  0.1167365E+00
         -1   -1    0    0    0  501 -0.00000000000E+00  0.00000000000E+00  0.51892755157E+02  0.51892755157E+02  0.00000000000E+00 0.  1.
          1   -1    0    0  501    0  0.00000000000E+00 -0.00000000000E+00 -0.65156547630E+03  0.65156547630E+03  0.00000000000E+00 0. -1.
         23    2    1    2    0    0  0.14121744432E+03 -0.39604152053E+02 -0.30367927684E+03  0.35969985700E+03  0.12510806731E+03 0.  0.
          5    1    3    3  502    0  0.45420378708E+02 -0.71741008492E+02 -0.92972990505E+02  0.12598107979E+03  0.41800000000E+01 0. -1.
         -5    1    3    3    0  502  0.95797065610E+02  0.32136856439E+02 -0.21070628633E+03  0.23371877721E+03  0.41800000000E+01 0. -1.
        -11    1    1    2    0    0 -0.92354376641E+02 -0.23167087648E+02 -0.16510715724E+03  0.19059490604E+03  0.00000000000E+00 0. -1.
         11    1    1    2    0    0 -0.48863067677E+02  0.62771239701E+02 -0.13088628706E+03  0.15316346842E+03  0.00000000000E+00 0.  1.
</event>
<event>
 7    1  0.6473813E-006  0.8423117E+02  0.7561462E-02  0.1317455E+00
         -2   -1    0    0    0  501 -0.00000000000E+00  0.00000000000E+00  0.21530307162E+02  0.21530307162E+02  0.00000000000E+00 0.  1.
          2   -1    0    0  501    0  0.00000000000E+00 -0.00000000000E+00 -0.58305716992E+03  0.58305716992E+03  0.00000000000E+00 0. -1.
         23    2    1    2    0    0 -0.32363064732E+02 -0.35984044134E+00 -0.29570173861E+03  0.32270037868E+03  0.12509403958E+03 0.  0.
          5    1    3    3  502    0  0.76553501049E+01  0.27649786123E+02 -0.26107417504E+03  0.26267910524E+03  0.41800000000E+01 0.  1.
         -5    1    3    3    0  502 -0.40018414837E+02 -0.28009626564E+02 -0.34627563573E+02  0.60021273440E+02  0.41800000000E+01 0.  1.
        -11    1    1    2    0    0 -0.10692361888E+02 -0.33820716548E+02 -0.69746653201E+02  0.78248086899E+02  0.00000000000E+00 0.  1.
         11    1    1    2    0    0  0.43055426620E+02  0.34180556989E+02 -0.19607847095E+03  0.20363901151E+03  0.00000000000E+00 0. -1.
</event>
<event>
 7    1  0.6473813E-006  0.9967316E+02  0.7561462E-02  0.1280985E+00
          1   -1    0    0  501    0  0.00000000000E+00  0.00000000000E+00  0.78999962377E+02  0.78999962377E+02  0.00000000000E+00 0. -1.
         -1   -1    0    0    0  501 -0.00000000000E+00 -0.00000000000E+00 -0.16684667438E+03  0.16684667438E+03  0.00000000000E+00 0.  1.
         23    2    1    2    0    0 -0.53408425613E+01  0.21046625683E+02 -0.84512026219E+02  0.15252424454E+03  0.12509947060E+03 0.  0.
          5    1    3    3  502    0 -0.47779125365E+02 -0.32915788749E+02 -0.37320940238E+02  0.69113088122E+02  0.41800000000E+01 0.  1.
         -5    1    3    3    0  502  0.42438282804E+02  0.53962414431E+02 -0.47191085981E+02  0.83411156416E+02  0.41800000000E+01 0.  1.
        -11    1    1    2    0    0 -0.31640762000E+02 -0.47906540199E+01 -0.30846040471E+02  0.44447344112E+02  0.00000000000E+00 0.  1.
         11    1    1    2    0    0  0.36981604561E+02 -0.16255971663E+02  0.27511354687E+02  0.48875048106E+02  0.00000000000E+00 0. -1.
</event>
<event>
 7    1  0.6473813E-006  0.1102015E+03  0.7561462E-02  0.1260197E+00
         -2   -1    0    0    0  501 -0.00000000000E+00  0.00000000000E+00  0.11056566049E+03  0.11056566049E+03  0.00000000000E+00 0. -1.
          2   -1    0    0  501    0  0.00000000000E+00 -0.00000000000E+00 -0.17108112984E+03  0.17108112984E+03  0.00000000000E+00 0.  1.
         23    2    1    2    0    0  0.74550061615E+02  0.83099937038E+01 -0.70672684502E+02  0.16207398399E+03  0.12508629129E+03 0.  0.
          5    1    3    3  502    0  0.95132982628E+01  0.59998059936E+02 -0.42485120452E+02  0.74247746765E+02  0.41800000000E+01 0.  1.
         -5    1    3    3    0  502  0.65036763352E+02 -0.51688066232E+02 -0.28187564050E+02  0.87826237225E+02  0.41800000000E+01 0.  1.
        -11    1    1    2    0    0 -0.12385578457E+02  0.38887806425E+01 -0.37897145659E+02  0.40058941794E+02  0.00000000000E+00 0.  1.
         11    1    1    2    0    0 -0.62164483158E+02 -0.12198774346E+02  0.48054360807E+02  0.79513864542E+02  0.00000000000E+00 0. -1.
</event>
<event>
 7    1  0.6473813E-006  0.1364518E+03  0.7561462E-02  0.1218185E+00
         -3   -1    0    0    0  501 -0.00000000000E+00  0.00000000000E+00  0.28171588060E+03  0.28171588060E+03  0.00000000000E+00 0.  1.
          3   -1    0    0  501    0  0.00000000000E+00 -0.00000000000E+00 -0.10586468866E+03  0.10586468866E+03  0.00000000000E+00 0. -1.
         23    2    1    2    0    0  0.85702221770E+02  0.99666494112E+02  0.13484426120E+03  0.22607131927E+03  0.12508791210E+03 0.  0.
          5    1    3    3  502    0  0.79782684558E+02  0.10527701470E+03  0.15514141917E+03  0.20380102777E+03  0.41800000000E+01 0. -1.
         -5    1    3    3    0  502  0.59195372121E+01 -0.56105205865E+01 -0.20297157966E+02  0.22270291502E+02  0.41800000000E+01 0. -1.
        -11    1    1    2    0    0 -0.44810794883E+02 -0.56627246456E+02 -0.21457714077E+02  0.75333165821E+02  0.00000000000E+00 0.  1.
         11    1    1    2    0    0 -0.40891426887E+02 -0.43039247656E+02  0.62464644810E+02  0.86176084170E+02  0.00000000000E+00 0. -1.
</event>
<event>
 7    1  0.6473813E-006  0.8342618E+02  0.7561462E-02  0.1319600E+00
          1   -1    0    0  501    0  0.00000000000E+00  0.00000000000E+00  0.27303271717E+03  0.27303271717E+03  0.00000000000E+00 0. -1.
         -1   -1    0    0    0  501 -0.00000000000E+00 -0.00000000000E+00 -0.62005606555E+02  0.62005606555E+02  0.00000000000E+00 0.  1.
         23    2    1    2    0    0 -0.44664754097E+02  0.50582574208E+02  0.84706996342E+02  0.16545870728E+03  0.12509105289E+03 0.  0.
          5    1    3    3  502    0 -0.50928203762E+01 -0.62746294343E+01 -0.30023615353E+02  0.31371924914E+02  0.41800000000E+01 0.  1.
         -5    1    3    3    0  502 -0.39571933721E+02  0.56857203642E+02  0.11473061170E+03  0.13408678236E+03  0.41800000000E+01 0.  1.
        -11    1    1    2    0    0 -0.12973099288E+02 -0.23182634956E+01 -0.81691578324E+01  0.15505185921E+02  0.00000000000E+00 0.  1.
         11    1    1    2    0    0  0.57637853385E+02 -0.48264310712E+02  0.13448927211E+03  0.15407443053E+03  0.00000000000E+00 0. -1.
</event>
<event>
 7    1  0.6473813E-006  0.1353367E+03  0.7561462E-02  0.1219745E+00
          1   -1    0    0  501    0  0.00000000000E+00  0.00000000000E+00  0.33490306624E+02  0.33490306624E+02  0.00000000000E+00 0. -1.
         -1   -1    0    0    0  501 -0.00000000000E+00 -0.00000000000E+00 -0.64876882607E+03  0.64876882607E+03  0.00000000000E+00 0.  1.
         23    2    1    2    0    0  0.60665961840E+01  0.85486428343E+02 -0.27319561044E+03  0.30965379361E+03  0.11791902863E+03 0.  0.
          5    1    3    3  502    0 -0.60418182512E+01  0.11250431060E+03 -0.23881015677E+03  0.26408613528E+03  0.41800000000E+01 0. -1.
         -5    1    3    3    0  502  0.12108414435E+02 -0.27017882254E+02 -0.34385453671E+02  0.45567658331E+02  0.41800000000E+01 0.  1.
        -11    1    1    2    0    0 -0.44668067313E+02 -0.76198240002E+02 -0.13214179079E+03  0.15894294854E+03  0.00000000000E+00 0.  1.
         11    1    1    2    0    0  0.38601471129E+02 -0.92881883419E+01 -0.20994111821E+03  0.21366239054E+03  0.00000000000E+00 0. -1.
</event>
<event>
 7    1  0.6473813E-006  0.1012452E+03  0.7561462E-02  0.1277699E+00
          3   -1    0    0  501    0  0.00000000000E+00  0.00000000000E+00  0.31866804020E+02  0.31866804020E+02  0.00000000000E+00 0.  1.
         -3   -1    0    0    0  501 -0.00000000000E+00 -0.00000000000E+00 -0.47948581952E+03  0.47948581952E+03  0.00000000000E+00 0. -1.
         23    2    1    2    0    0  0.32904168314E+02  0.48966016873E+02 -0.22752526864E+03  0.26626109744E+03  0.12508744557E+03 0.  0.
          5    1    3    3  502    0 -0.20774023076E+02 -0.24736678619E+02 -0.12417745580E+03  0.12837825451E+03  0.41800000000E+01 0. -1.
         -5    1    3    3    0  502  0.53678191390E+02  0.73702695492E+02 -0.10334781284E+03  0.13788284292E+03  0.41800000000E+01 0. -1.
        -11    1    1    2    0    0 -0.41342852656E+02 -0.15535569965E+02 -0.33749464179E+02  0.55584275944E+02  0.00000000000E+00 0.  1.
         11    1    1    2    0    0  0.84386843414E+01 -0.33430446909E+02 -0.18634428269E+03  0.18950725016E+03  0.00000000000E+00 0. -1.
</event>
<event>
 7    1  0.6473813E-006  0.1605030E+03  0.7561462E-02  0.1188130E+00
          2   -1    0    0  501    0  0.00000000000E+00  0.00000000000E+00  0.82362027727E+03  0.82362027727E+03  0.00000000000E+00 0. -1.
         -2   -1    0    0    0  501 -0.00000000000E+00 -0.00000000000E+00 -0.32755202394E+02  0.32755202394E+02  0.00000000000E+00 0.  1.
         23    2    1    2    0    0  0.85557951345E+02  0.83823671110E+02  0.34971528277E+03  0.39024871557E+03  0.12508681036E+03 0.  0.
          5    1    3    3  502    0  0.91584675121E+02  0.11026959711E+03  0.26662304399E+03  0.30274156760E+03  0.41800000000E+01 0. -1.
         -5    1    3    3    0  502 -0.60267237754E+01 -0.26445926000E+02  0.83092238778E+02  0.87507147974E+02  0.41800000000E+01 0. -1.
        -11    1    1    2    0    0 -0.10472139362E+03 -0.64761517814E+02  0.34833328696E+03  0.36945460245E+03  0.00000000000E+00 0.  1.
         11    1    1    2    0    0  0.19163442273E+02 -0.19062153296E+02  0.92816505155E+02  0.96672161645E+02  0.00000000000E+00 0. -1.
</event>
<event>
 6    1  0.6473813E-006  0.1513087E+03  0.7561462E-02  0.1198874E+00
          1   -1    0    0  501    0  0.00000000000E+00  0.00000000000E+00  0.53678716935E+03  0.53678716935E+03  0.00000000000E+00 0. -1.
         -1   -1    0    0    0  501 -0.00000000000E+00 -0.00000000000E+00 -0.12461759566E+03  0.12461759566E+03  0.00000000000E+00 0.  1.
          5    1    1    2  502    0 -0.48670621929E+01 -0.78329583823E+02  0.54257897497E+02  0.95501852532E+02  0.41800000000E+01 0. -1.
         -5    1    1    2    0  502  0.95290701088E+02  0.75102602973E+02 -0.56705958886E+02  0.13399162981E+03  0.41800000000E+01 0.  1.
        -11    1    1    2    0    0 -0.94999788050E+01 -0.16763537191E+02  0.17143897033E+02  0.25791063994E+02  0.00000000000E+00 0.  1.
         11    1    1    2    0    0 -0.80923660090E+02  0.19990518042E+02  0.39747373805E+03  0.40612021867E+03  0.00000000000E+00 0. -1.
</event>
<event>
 7    1  0.6473813E-006  0.1328226E+03  0.7561462E-02  0.1223327E+00
          1   -1    0    0  501    0  0.00000000000E+00  0.00000000000E+00  0.10695033151E+03  0.10695033151E+03  0.00000000000E+00 0. -1.
         -1   -1    0    0    0  501 -0.00000000000E+00 -0.00000000000E+00 -0.23275125208E+03  0.23275125208E+03  0.00000000000E+00 0.  1.
         23    2    1    2    0    0 -0.59788850228E+02  0.87138612188E+02 -0.12599399831E+03  0.20050258998E+03  0.11471249554E+03 0.  0.
          5    1    3    3  502    0  0.24521369654E+02  0.29600336754E+01 -0.58197717004E+02  0.63360129684E+02  0.41800000000E+01 0. -1.
         -5    1    3    3    0  502 -0.84310219883E+02  0.84178578512E+02 -0.67796281307E+02  0.13714246030E+03  0.41800000000E+01 0.  1.
        -11    1    1    2    0    0  0.25843750362E+02 -0.83303958360E+02  0.31625555157E+02  0.92777285206E+02  0.00000000000E+00 0. -1.
         11    1    1    2    0    0  0.33945099866E+02 -0.38346538284E+01 -0.31432477413E+02  0.46421708405E+02  0.00000000000E+00 0.  1.
</event>
<event>
 7    1  0.6473813E-006  0.7584909E+02  0.7561462E-02  0.1341262E+00
         -1   -1    0    0    0  501 -0.00000000000E+00  0.00000000000E+00  0.24985811464E+03  0.24985811464E+03  0.00000000000E+00 0.  1.
          1   -1    0    0  501    0  0.00000000000E+00 -0.00000000000E+00 -0.65767329057E+02  0.65767329057E+02  0.00000000000E+00 0. -1.
         23    2    1    2    0    0  0.43969399300E+02  0.13663999924E+02  0.16380450342E+03  0.21118523715E+03  0.12508907259E+03 0.  0.
          5    1    3    3  502    0 -0.34397659530E+01 -0.16478778984E+02 -0.15486008826E+02  0.23252333560E+02  0.41800000000E+01 0.  1.
         -5    1    3    3    0  502  0.47409165253E+02  0.30142778908E+02  0.17929051224E+03  0.18793290359E+03  0.41800000000E+01 0.  1.
        -11    1    1    2    0    0 -0.65817826279E+01 -0.34563798966E+02 -0.24185633681E+02  0.42695678213E+02  0.00000000000E+00 0. -1.
         11    1    1    2    0    0 -0.37387616672E+02  0.20899799042E+02  0.44471915844E+02  0.61744528335E+02  0.00000000000E+00 0.  1.
</event>
<event>
 7    1  0.6473813E-006  0.1748939E+03  0.7561462E-02  0.1172838E+00
         -2   -1    0    0    0  501 -0.00000000000E+00  0.00000000000E+00  0.48356171237E+03  0.48356171237E+03  0.00000000000E+00 0. -1.
          2   -1    0    0  501    0  0.00000000000E+00 -0.00000000000E+00 -0.19763770877E+03  0.19763770877E+03  0.00000000000E+00 0.  1.
         23    2    1    2    0    0 -0.15221065869E+03  0.11866142220E+02  0.41566791268E+03  0.46014758735E+03  0.12508836301E+03 0.  0.
          5    1    3    3  502    0  0.20511121013E+02 -0.45295598273E+01  0.26770857342E+02  0.34283730839E+02  0.41800000000E+01 0. -1.
         -5    1    3    3    0  502 -0.17272177971E+03  0.16395702047E+02  0.38889705534E+03  0.42586385651E+03  0.41800000000E+01 0. -1.
        -11    1    1    2    0    0  0.12717613858E+03 -0.19470724538E+02 -0.14246316206E+03  0.19195997469E+03  0.00000000000E+00 0.  1.
         11    1    1    2    0    0  0.25034520113E+02  0.76045823181E+01  0.12719252985E+02  0.29091859102E+02  0.00000000000E+00 0. -1.
</event>
<event>
 7    1  0.6473813E-006  0.9615517E+02  0.7561462E-02  0.1288595E+00
          2   -1    0    0  501    0  0.00000000000E+00  0.00000000000E+00  0.91097401253E+02  0.91097401253E+02  0.00000000000E+00 0. -1.
         -2   -1    0    0    0  501 -0.00000000000E+00 -0.00000000000E+00 -0.12654357146E+03  0.12654357146E+03  0.00000000000E+00 0.  1.
         23    2    1    2    0    0  0.30007243962E+01 -0.45113225853E+01 -0.27772393111E+02  0.12825070449E+03  0.12509029140E+03 0.  0.
          5    1    3    3  502    0  0.55138735842E+02 -0.32431052258E+02 -0.35518037828E+01  0.64203902147E+02  0.41800000000E+01 0.  1.
         -5    1    3    3    0  502 -0.52138011445E+02  0.27919729673E+02 -0.24220589328E+02  0.64046802339E+02  0.41800000000E+01 0.  1.
        -11    1    1    2    0    0  0.25645911895E+02  0.23305013098E+02  0.24461329844E+02  0.42416896281E+02  0.00000000000E+00 0. -1.
         11    1    1    2    0    0 -0.28646636291E+02 -0.18793690513E+02 -0.32135106936E+02  0.46973371943E+02  0.00000000000E+00 0.  1.
</event>
<event>
 7    1  0.6473813E-006  0.1337235E+03  0.7561462E-02  0.1222033E+00
         -2   -1    0    0    0  501 -0.00000000000E+00  0.00000000000E+00  0.58684012377E+02  0.58684012377E+02  0.00000000000E+00 0.  1.
          2   -1    0    0  501    0  0.00000000000E+00 -0.00000000000E+00 -0.49710642565E+03  0.49710642565E+03  0.00000000000E+00 0. -1.
         23    2    1    2    0    0 -0.97133432320E+02 -0.18964450216E+02 -0.78873057314E+02  0.17015126746E+03  0.11373627654E+03 0.  0.
          5    1    3    3  502    0  0.89782278304E+00  0.21834815068E+02  0.16233371917E+02  0.27541967950E+02  0.41800000000E+01 0. -1.
         -5    1    3    3    0  502 -0.98031255103E+02 -0.40799265284E+02 -0.95106429231E+02  0.14260929951E+03  0.41800000000E+01 0.  1.
        -11    1    1    2    0    0  0.11160833100E+03  0.35346847238E+02 -0.29015897277E+03  0.31288663864E+03  0.00000000000E+00 0. -1.
         11    1    1    2    0    0 -0.14474898676E+02 -0.16382397022E+02 -0.69390383191E+02  0.72752531937E+02  0.00000000000E+00 0.  1.
</event>
<event>
 6    1  0.6473813E-006  0.1174893E+03  0.7561462E-02  0.1247297E+00
         -3   -1    0    0    0  501 -0.00000000000E+00  0.00000000000E+00  0.34594182472E+02  0.34594182472E+02  0.00000000000E+00 0.  1.
          3   -1    0    0  501    0  0.00000000000E+00 -0.00000000000E+00 -0.48826179602E+03  0.48826179602E+03  0.00000000000E+00 0. -1.
          5    1    1    2  502    0  0.50713531623E+02 -0.71574974907E+02 -0.13601733366E+03  0.16190437542E+03  0.41800000000E+01 0. -1.
         -5    1    1    2    0  502 -0.63900458366E+02  0.41342210786E+02 -0.13214944864E+03  0.15255620652E+03  0.41800000000E+01 0.  1.
        -11    1    1    2    0    0  0.71019840092E+01 -0.19541107253E+02 -0.54525071773E+01  0.21494717585E+02  0.00000000000E+00 0.  1.
         11    1    1    2    0    0  0.60849427339E+01  0.49773871374E+02 -0.18004832407E+03  0.18690067897E+03  0.00000000000E+00 0. -1.
</event>
<event>
 7    1  0.6473813E-006  0.1229324E+03  0.7561462E-02  0.1238337E+00
          2   -1    0    0  501    0  0.00000000000E+00  0.00000000000E+00  0.29652453481E+03  0.29652453481E+03  0.00000000000E+00 0. -1.
         -2   -1    0    0    0  501 -0.00000000000E+00 -0.00000000000E+00 -0.91858507741E+02  0.91858507741E+02  0.00000000000E+00 0.  1.
         23    2    1    2    0    0  0.10609991944E+02  0.10039248972E+03  0.24965518587E+02  0.16267201914E+03  0.12509070618E+03 0.  0.
          5    1    3    3  502    0  0.23767225253E+02  0.87568242530E+02  0.69463383106E+02  0.11434907996E+03  0.41800000000E+01 0. -1.
         -5    1    3    3    0  502 -0.13157233308E+02  0.12824247188E+02 -0.44497864520E+02  0.48322939181E+02  0.41800000000E+01 0. -1.
        -11    1    1    2    0    0 -0.13559591095E+02 -0.11777777698E+03  0.15033426877E+03  0.19145720051E+03  0.00000000000E+00 0.  1.
         11    1    1    2    0    0  0.29495991504E+01  0.17385287257E+02  0.29366239712E+02  0.34253822896E+02  0.00000000000E+00 0. -1.
</event>
<event>
 7    1  0.6473813E-006  0.1786060E+03  0.7561462E-02  0.1169159E+00
         -1   -1    0    0    0  501 -0.00000000000E+00  0.00000000000E+00  0.10476023667E+03  0.10476023667E+03  0.00000000000E+00 0.  1.
          1   -1    0    0  501    0  0.00000000000E+00 -0.00000000000E+00 -0.32130419588E+03  0.32130419588E+03  0.00000000000E+00 0. -1.
         23    2    1    2    0    0  0.49582198633E+02  0.13408113996E+03 -0.15611913016E+03  0.24587572477E+03  0.12508214386E+03 0.  0.
          5    1    3    3  502    0  0.29398449116E+02 -0.17798261996E+02 -0.15727014686E+02  0.38024443868E+02  0.41800000000E+01 0.  1.
         -5    1    3    3    0  502  0.20183749517E+02  0.15187940196E+03 -0.14039211548E+03  0.20785128090E+03  0.41800000000E+01 0.  1.
        -11    1    1    2    0    0 -0.53748179556E+02 -0.23499751521E+02 -0.27112968393E+02  0.64623665806E+02  0.00000000000E+00 0. -1.
         11    1    1    2    0    0  0.41659809235E+01 -0.11058138844E+03 -0.33311860651E+02  0.11556504198E+03  0.00000000000E+00 0.  1.
</event>
<event>
 7    1  0.6473813E-006  0.1013108E+03  0.7561462E-02  0.1277563E+00
          2   -1    0    0  501    0  0.00000000000E+00  0.00000000000E+00  0.13466870296E+03  0.13466870296E+03  0.00000000000E+00 0. -1.
         -2   -1    0    0    0  501 -0.00000000000E+00 -0.00000000000E+00 -0.11740542915E+03  0.11740542915E+03  0.00000000000E+00 0.  1.
         23    2    1    2    0    0  0.15196911753E+02 -0.54263119472E+02 -0.19446942092E+02  0.13853517439E+03  0.12505350345E+03 0.  0.
          5    1    3    3  502    0  0.42256186290E+02 -0.74436735153E+02 -0.44245516280E+02  0.96444548476E+02  0.41800000000E+01 0.  1.
         -5    1    3    3    0  502 -0.27059274537E+02  0.20173615680E+02  0.24798574188E+02  0.42090625914E+02  0.41800000000E+01 0.  1.
        -11    1    1    2    0    0  0.16909489791E+02  0.47067429817E+02  0.56252402231E+02  0.75270223537E+02  0.00000000000E+00 0. -1.
         11    1    1    2    0    0 -0.32106401544E+02  0.71956896549E+01 -0.19542186326E+02  0.38268734185E+02  0.00000000000E+00 0.  1.
</event>
<event>
 7    1  0.6473813E-006  0.2856830E+03  0.7561462E-02  0.1092625E+00
         -2   -1    0    0    0  501 -0.00000000000E+00  0.00000000000E+00  0.53038211486E+03  0.53038211486E+03  0.00000000000E+00 0.  1.
          2   -1    0    0  501    0  0.00000000000E+00 -0.00000000000E+00 -0.18995887599E+03  0.18995887599E+03  0.00000000000E+00 0. -1.
         23    2    1    2    0    0 -0.15300204930E+03 -0.23318438803E+03  0.29238595520E+03  0.42299097525E+03  0.12508889813E+03 0.  0.
          5    1    3    3  502    0 -0.13833104156E+02 -0.89222344261E+02  0.35140057955E+02  0.96975654466E+02  0.41800000000E+01 0.  1.
         -5    1    3    3    0  502 -0.13916894515E+03 -0.14396204377E+03  0.25724589724E+03  0.32601532079E+03  0.41800000000E+01 0.  1.
        -11    1    1    2    0    0  0.11095772948E+03  0.14130725284E+03  0.71921287073E+02  0.19352526701E+03  0.00000000000E+00 0.  1.
         11    1    1    2    0    0  0.42044319819E+02  0.91877135186E+02 -0.23884003412E+02  0.10382474858E+03  0.00000000000E+00 0. -1.
</event>
<event>
 7    1  0.6473813E-006  0.1094348E+03  0.7561462E-02  0.1261620E+00
         -1   -1    0    0    0  501 -0.00000000000E+00  0.00000000000E+00  0.15763362826E+03  0.15763362826E+03  0.00000000000E+00 0.  1.
          1   -1    0    0  501    0  0.00000000000E+00 -0.00000000000E+00 -0.85414532263E+02  0.85414532263E+02  0.00000000000E+00 0. -1.
         23    2    1    2    0    0  0.37278302169E+02 -0.73656555299E-01  0.61376898471E+02  0.14423766602E+03  0.12509078062E+03 0.  0.
          5    1    3    3  502    0 -0.42656719680E+02 -0.20327314673E+02  0.16247955972E+02  0.50142436408E+02  0.41800000000E+01 0. -1.
         -5    1    3    3    0  502  0.79935021849E+02  0.20253658118E+02  0.45128942500E+02  0.94095229615E+02  0.41800000000E+01 0. -1.
        -11    1    1    2    0    0  0.26799201572E+01  0.35417842511E+02  0.25217802035E+02  0.43560797509E+02  0.00000000000E+00 0.  1.
         11    1    1    2    0    0 -0.39958222326E+02 -0.35344185956E+02 -0.14375604510E+02  0.55249696989E+02  0.00000000000E+00 0. -1.
</event>
<event>
 7    1  0.6473813E-006  0.1154179E+03  0.7561462E-02  0.1250853E+00
          2   -1    0    0  501    0  0.00000000000E+00  0.00000000000E+00  0.91653137725E+03  0.91653137725E+03  0.00000000000E+00 0. -1.
         -2   -1    0    0    0  501 -0.00000000000E+00 -0.00000000000E+00 -0.23916815775E+02  0.23916815775E+02  0.00000000000E+00 0.  1.
         23    2    1    2    0    0  0.10562349083E+02  0.90632222165E+02  0.35187973671E+03  0.38444006888E+03  0.12509618117E+03 0.  0.
          5    1    3    3  502    0 -0.26791282154E+02  0.65016287368E+02  0.71418580204E+02  0.10031438791E+03  0.41800000000E+01 0.  1.
         -5    1    3    3    0  502  0.37353631237E+02  0.25615934797E+02  0.28046115650E+03  0.28412568098E+03  0.41800000000E+01 0.  1.
        -11    1    1    2    0    0  0.27263214187E+02 -0.17007621177E+02  0.58712609611E+02  0.66930654809E+02  0.00000000000E+00 0.  1.
         11    1    1    2    0    0 -0.37825563270E+02 -0.73624600988E+02  0.48202221516E+03  0.48907746934E+03  0.00000000000E+00 0. -1.
</event>
<event>
 7    1  0.6473813E-006  0.8939279E+02  0.7561462E-02  0.1304329E+00
          2   -1    0    0  501    0  0.00000000000E+00  0.00000000000E+00  0.31542345226E+03  0.31542345226E+03  0.00000000000E+00 0. -1.
         -2   -1    0    0    0  501 -0.00000000000E+00 -0.00000000000E+00 -0.52114203025E+02  0.52114203025E+02  0.00000000000E+00 0.  1.
         23    2    1    2    0    0 -0.42297214014E+02  0.46079703694E+02  0.10532248115E+03  0.17507751856E+03  0.12508764553E+03 0.  0.
          5    1    3    3  502    0 -0.22771873200E+02  0.61742247453E+02  0.12608616044E+03  0.14228793197E+03  0.41800000000E+01 0.  1.
         -5    1    3    3    0  502 -0.19525340814E+02 -0.15662543760E+02 -0.20763679293E+02  0.32789586590E+02  0.41800000000E+01 0.  1.
        -11    1    1    2    0    0  0.83321807286E+01 -0.52281172456E+02  0.32073138517E+02  0.61898565762E+02  0.00000000000E+00 0.  1.
         11    1    1    2    0    0  0.33965033285E+02  0.62014687623E+01  0.12591362957E+03  0.13056157097E+03  0.00000000000E+00 0. -1.
</event>
<event>
 7    1  0.6473813E-006  0.1899410E+03  0.7561462E-02  0.1158515E+00
          1   -1    0    0  501    0  0.00000000000E+00  0.00000000000E+00  0.31823591574E+03  0.31823591574E+03  0.00000000000E+00 0. -1.
         -1   -1    0    0    0  501 -0.00000000000E+00 -0.00000000000E+00 -0.12594314333E+03  0.12594314333E+03  0.00000000000E+00 0.  1.
         23    2    1    2    0    0  0.15908112297E+03 -0.14508433297E+02  0.44162869912E+02  0.20767961302E+03  0.12515256395E+03 0.  0.
          5    1    3    3  502    0  0.57860056873E+02  0.49613769290E+02 -0.83499359791E+01  0.76788710859E+02  0.41800000000E+01 0. -1.
         -5    1    3    3    0  502  0.10122106610E+03 -0.64122202587E+02  0.52512805891E+02  0.13089090216E+03  0.41800000000E+01 0. -1.
        -11    1    1    2    0    0 -0.87376215866E+02 -0.37489572198E+02  0.66314139192E+02  0.11592081858E+03  0.00000000000E+00 0. -1.
         11    1    1    2    0    0 -0.71704907103E+02  0.51998005496E+02  0.81815763304E+02  0.12057862747E+03  0.00000000000E+00 0.  1.
</event>
<event>
 7    1  0.6473813E-006  0.1111754E+03  0.7561462E-02  0.1258409E+00
          2   -1    0    0  501    0  0.00000000000E+00  0.00000000000E+00  0.55600419571E+03  0.55600419571E+03  0.00000000000E+00 0. -1.
         -2   -1    0    0    0  501 -0.00000000000E+00 -0.00000000000E+00 -0.25538156297E+02  0.25538156297E+02  0.00000000000E+00 0.  1.
         23    2    1    2    0    0 -0.40512756468E+02  0.16216521753E+01  0.22365936674E+03  0.25944284269E+03  0.12507263131E+03 0.  0.
          5    1    3    3  502    0 -0.25086804943E+02  0.61475662915E+02  0.88096082505E+02  0.11039473296E+03  0.41800000000E+01 0.  1.
         -5    1    3    3    0  502 -0.15425951525E+02 -0.59854010739E+02  0.13556328424E+03  0.14904810973E+03  0.41800000000E+01 0.  1.
        -11    1    1    2    0    0 -0.22699710476E+02 -0.17537891763E+02  0.14202706474E+03  0.14489493305E+03  0.00000000000E+00 0. -1.
         11    1    1    2    0    0  0.63212466944E+02  0.15916239587E+02  0.16477960793E+03  0.17720457627E+03  0.00000000000E+00 0.  1.
</event>
<event>
 7    1  0.6473813E-006  0.1088753E+03  0.7561462E-02  0.1262667E+00
         -1   -1    0    0    0  501 -0.00000000000E+00  0.00000000000E+00  0.33800336600E+02  0.33800336600E+02  0.00000000000E+00 0.  1.
          1   -1    0    0  501    0  0.00000000000E+00 -0.00000000000E+00 -0.44156732323E+03  0.44156732323E+03  0.00000000000E+00 0. -1.
         23    2    1    2    0    0 -0.15652396890E+02  0.26676464231E+02 -0.15449545621E+03  0.20117840715E+03  0.12508906522E+03 0.  0.
          5    1    3    3  502    0  0.44931826497E+02  0.29754881682E+02 -0.11917025621E+03  0.13085581524E+03  0.41800000000E+01 0.  1.
         -5    1    3    3    0  502 -0.60584223386E+02 -0.30784174507E+01 -0.35325200005E+02  0.70322591908E+02  0.41800000000E+01 0.  1.
        -11    1    1    2    0    0  0.17577388110E+02  0.36065132093E+02 -0.72953861941E+02  0.83258178564E+02  0.00000000000E+00 0.  1.
         11    1    1    2    0    0 -0.19249912203E+01 -0.62741596324E+02 -0.18031766847E+03  0.19093107412E+03  0.00000000000E+00 0. -1.
</event>
<event>
 7    1  0.6473813E-006  0.1250430E+03  0.7561462E-02  0.1235002E+00
         -1   -1    0    0    0  501 -0.00000000000E+00  0.00000000000E+00  0.56842348814E+03  0.56842348814E+03  0.00000000000E+00 0.  1.
          1   -1    0    0  501    0  0.00000000000E+00 -0.00000000000E+00 -0.39217123784E+02  0.39217123784E+02  0.00000000000E+00 0. -1.
         23    2    1    2    0    0 -0.83168180153E+02  0.98666176429E+01  0.41876608945E+03  0.44500303161E+03  0.12509342164E+03 0.  0.
          5    1    3    3  502    0 -0.40214442081E+01 -0.47083961536E+02  0.85959515228E+02  0.98181373517E+02  0.41800000000E+01 0.  1.
         -5    1    3    3    0  502 -0.79146735945E+02  0.56950579179E+02  0.33280657422E+03  0.34682165809E+03  0.41800000000E+01 0.  1.
        -11    1    1    2    0    0 -0.82718247958E+00 -0.20382020474E+02 -0.34963042911E+01  0.20696258917E+02  0.00000000000E+00 0.  1.
         11    1    1    2    0    0  0.83995362632E+02  0.10515402831E+02  0.11393657920E+03  0.14194132140E+03  0.00000000000E+00 0. -1.
</event>
<event>
 7    1  0.6473813E-006  0.1202060E+03  0.7561462E-02  0.1242758E+00
          2   -1    0    0  501    0  0.00000000000E+00  0.00000000000E+00  0.37566971394E+03  0.37566971394E+03  0.00000000000E+00 0. -1.
         -2   -1    0    0    0  501 -0.00000000000E+00 -0.00000000000E+00 -0.46083764162E+02  0.46083764162E+02  0.00000000000E+00 0.  1.
         23    2    1    2    0    0 -0.27187715223E+02  0.65208220608E+02  0.14937301470E+03  0.20724588198E+03  0.12508906501E+03 0.  0.
          5    1    3    3  502    0 -0.74488415157E+02  0.21035023981E+02  0.67394111017E+02  0.10271530960E+03  0.41800000000E+01 0.  1.
         -5    1    3    3    0  502  0.47300699933E+02  0.44173196627E+02  0.81978903679E+02  0.10453057238E+03  0.41800000000E+01 0.  1.
        -11    1    1    2    0    0  0.43729819495E+02 -0.68411553418E+02  0.83985385087E+02  0.11681602057E+03  0.00000000000E+00 0.  1.
         11    1    1    2    0    0 -0.16542104272E+02  0.32033328101E+01  0.96227549992E+02  0.97691575544E+02  0.00000000000E+00 0. -1.
</event>
<event>
 7    1  0.6473813E-006  0.1104734E+03  0.7561462E-02  0.1259696E+00
          2   -1    0    0  501    0  0.00000000000E+00  0.00000000000E+00  0.32959105149E+03  0.32959105149E+03  0.00000000000E+00 0. -1.
         -2   -1    0    0    0  501 -0.00000000000E+00 -0.00000000000E+00 -0.38970838981E+02  0.38970838981E+02  0.00000000000E+00 0.  1.
         23    2    1    2    0    0 -0.12404638407E+02 -0.27046420193E+02  0.18486592916E+03  0.22518484475E+03  0.12508964244E+03 0.  0.
          5    1    3    3  502    0  0.42214201145E+02  0.26322083757E+02  0.53474551474E+02  0.73156619160E+02  0.41800000000E+01 0.  1.
         -5    1    3    3    0  502 -0.54618839552E+02 -0.53368503950E+02  0.13139137768E+03  0.15202822559E+03  0.41800000000E+01 0.  1.
        -11    1    1    2    0    0  0.51339123047E+02  0.19303249571E+02  0.45718412308E+02  0.71403740961E+02  0.00000000000E+00 0.  1.
         11    1    1    2    0    0 -0.38934484640E+02  0.77431706218E+01  0.60035871043E+02  0.71973304755E+02  0.00000000000E+00 0. -1.
</event>
<event>
 7    1  0.6473813E-006  0.1658822E+03  0.7561462E-02  0.1182211E+00
         -1   -1    0    0    0  501 -0.00000000000E+00  0.00000000000E+00  0.81746765573E+02  0.81746765573E+02  0.00000000000E+00 0.  1.
          1   -1    0    0  501    0  0.00000000000E+00 -0.00000000000E+00 -0.47062994318E+03  0.47062994318E+03  0.00000000000E+00 0. -1.
         23    2    1    2    0    0  0.12801296114E+03 -0.61791274425E+02 -0.91018000527E+02  0.21010033294E+03  0.12510952668E+03 0.  0.
          5    1    3    3  502    0  0.64352961335E+02  0.12925803295E+02  0.12972506687E+02  0.67038334952E+02  0.41800000000E+01 0. -1.
         -5    1    3    3    0  502  0.63659999805E+02 -0.74717077720E+02 -0.10399050721E+03  0.14306199799E+03  0.41800000000E+01 0. -1.
        -11    1    1    2    0    0 -0.85353959002E+01  0.46518665906E+02 -0.10024921214E+03  0.11084558537E+03  0.00000000000E+00 0.  1.
         11    1    1    2    0    0 -0.11947756524E+03  0.15272608519E+02 -0.19761596494E+03  0.23143079044E+03  0.00000000000E+00 0. -1.
</event>
<event>
 7    1  0.6473813E-006  0.1117982E+03  0.7561462E-02  0.1257276E+00
          2   -1    0    0  501    0  0.00000000000E+00  0.00000000000E+00  0.24533266026E+03  0.24533266026E+03  0.00000000000E+00 0. -1.
         -2   -1    0    0    0  501 -0.00000000000E+00 -0.00000000000E+00 -0.98320084489E+02  0.98320084489E+02  0.00000000000E+00 0.  1.
         23    2    1    2    0    0 -0.66123560040E+01 -0.58026451780E+02 -0.30032800394E+02  0.13556556071E+03  0.11859704799E+03 0.  0.
          5    1    3    3  502    0 -0.48761032050E+02  0.25417772196E+01 -0.36891002176E+02  0.61339361910E+02  0.41800000000E+01 0. -1.
         -5    1    3    3    0  502  0.42148676046E+02 -0.60568228999E+02  0.68582017824E+01  0.74226198800E+02  0.41800000000E+01 0.  1.
        -11    1    1    2    0    0  0.57698988028E+01 -0.20935183412E+02  0.80412419614E+02  0.83293042116E+02  0.00000000000E+00 0.  1.
         11    1    1    2    0    0  0.84245720120E+00  0.78961635192E+02  0.96632956547E+02  0.12479414192E+03  0.00000000000E+00 0. -1.
</event>
<event>
 7    1  0.6473813E-006  0.7647860E+02  0.7561462E-02  0.1339352E+00
          2   -1    0    0  501    0  0.00000000000E+00  0.00000000000E+00  0.11171518146E+03  0.11171518146E+03  0.00000000000E+00 0. -1.
         -2   -1    0    0    0  501 -0.00000000000E+00 -0.00000000000E+00 -0.16443836694E+03  0.16443836694E+03  0.00000000000E+00 0.  1.
         23    2    1    2    0    0  0.63612961227E+02  0.10165867977E+02 -0.90815774252E+02  0.16003293742E+03  0.11494817309E+03 0.  0.
          5    1    3    3  502    0  0.32343986012E+01  0.24218544720E+02  0.20753530554E+02  0.32329254138E+02  0.41800000000E+01 0. -1.
         -5    1    3    3    0  502  0.60378562625E+02 -0.14052676743E+02 -0.11156930481E+03  0.12770368328E+03  0.41800000000E+01 0.  1.
        -11    1    1    2    0    0 -0.28917183787E+02  0.26731586944E+01 -0.28024302389E+02  0.40357289552E+02  0.00000000000E+00 0.  1.
         11    1    1    2    0    0 -0.34695777440E+02 -0.12839026671E+02  0.66116891164E+02  0.75763321437E+02  0.00000000000E+00 0. -1.
</event>
<event>
 7    1  0.6473813E-006  0.1099222E+03  0.7561462E-02  0.1260714E+00
         -2   -1    0    0    0  501 -0.00000000000E+00  0.00000000000E+00  0.11240603385E+03  0.11240603385E+03  0.00000000000E+00 0.  1.
          2   -1    0    0  501    0  0.00000000000E+00 -0.00000000000E+00 -0.19842992372E+03  0.19842992372E+03  0.00000000000E+00 0. -1.
         23    2    1    2    0    0 -0.96340109681E+02  0.33222383383E+02 -0.43620118220E+02  0.16714680746E+03  0.12510074756E+03 0.  0.
          5    1    3    3  502    0 -0.15585419086E+02  0.64254147601E+01  0.42561324475E+02  0.45968793588E+02  0.41800000000E+01 0. -1.
         -5    1    3    3    0  502 -0.80754690595E+02  0.26796968623E+02 -0.86181442695E+02  0.12117801387E+03  0.41800000000E+01 0. -1.
        -11    1    1    2    0    0  0.36236627472E+02 -0.43175350776E+02 -0.57921992474E+02  0.80821787269E+02  0.00000000000E+00 0. -1.
         11    1    1    2    0    0  0.60103482209E+02  0.99529673931E+01  0.15518220816E+02  0.62867362843E+02  0.00000000000E+00 0.  1.
</event>
<event>
 7    1  0.6473813E-006  0.2037083E+03  0.7561462E-02  0.1146647E+00
         -1   -1    0    0    0  501 -0.00000000000E+00  0.00000000000E+00  0.10071498408E+04  0.10071498408E+04  0.00000000000E+00 0.  1.
          1   -1    0    0  501    0  0.00000000000E+00 -0.00000000000E+00 -0.62745209104E+02  0.62745209104E+02  0.00000000000E+00 0. -1.
         23    2    1    2    0    0  0.17976461321E+03 -0.22872352309E+02  0.77481633953E+03  0.80549737702E+03  0.12508878339E+03 0.  0.
          5    1    3    3  502    0  0.12631615001E+03 -0.61541078098E+02  0.64115044345E+03  0.65637979675E+03  0.41800000000E+01 0. -1.
         -5    1    3    3    0  502  0.53448463193E+02  0.38668725789E+02  0.13366589608E+03  0.14911758028E+03  0.41800000000E+01 0. -1.
        -11    1    1    2    0    0 -0.74897564700E+02  0.52859476855E+02  0.96510200247E+02  0.13310893375E+03  0.00000000000E+00 0. -1.
         11    1    1    2    0    0 -0.10486704851E+03 -0.29987124546E+02  0.73078091885E+02  0.13128873910E+03  0.00000000000E+00 0.  1.
</event>
<event>
 7    1  0.6473813E-006  0.1065835E+03  0.7561462E-02  0.1267031E+00
          2   -1    0    0  501    0  0.00000000000E+00  0.00000000000E+00  0.27077299320E+03  0.27077299320E+03  0.00000000000E+00 0. -1.
         -2   -1    0    0    0  501 -0.00000000000E+00 -0.00000000000E+00 -0.47309122440E+02  0.47309122440E+02  0.00000000000E+00 0.  1.
         23    2    1    2    0    0 -0.31579883883E+01 -0.30056852713E+02  0.12649695454E+03  0.18045070382E+03  0.12509032622E+03 0.  0.
          5    1    3    3  502    0 -0.48367350603E+02 -0.57016483776E+02  0.85083524244E+02  0.11334442432E+03  0.41800000000E+01 0.  1.
         -5    1    3    3    0  502  0.45209362215E+02  0.26959631063E+02  0.41413430300E+02  0.67106279499E+02  0.41800000000E+01 0.  1.
        -11    1    1    2    0    0  0.27947999300E+02  0.47538152987E+02  0.91464976096E+02  0.10680266151E+03  0.00000000000E+00 0.  1.
         11    1    1    2    0    0 -0.24790010912E+02 -0.17481300274E+02  0.55019401152E+01  0.30828750304E+02  0.00000000000E+00 0. -1.
</event>
<event>
 7    1  0.6473813E-006  0.9355707E+02  0.7561462E-02  0.1294459E+00
          1   -1    0    0  501    0  0.00000000000E+00  0.00000000000E+00  0.12382051104E+03  0.12382051104E+03  0.00000000000E+00 0. -1.
         -1   -1    0    0    0  501 -0.00000000000E+00 -0.00000000000E+00 -0.39250337182E+03  0.39250337182E+03  0.00000000000E+00 0.  1.
         23    2    1    2    0    0 -0.28600743870E+02 -0.44849635697E+02 -0.34836317854E+03  0.37394284449E+03  0.12508738708E+03 0.  0.
          5    1    3    3  502    0 -0.23537469669E+02 -0.66099135789E+02 -0.34421534121E+03  0.35131863280E+03  0.41800000000E+01 0. -1.
         -5    1    3    3    0  502 -0.50632742017E+01  0.21249500092E+02 -0.41478373348E+01  0.22624211685E+02  0.41800000000E+01 0. -1.
        -11    1    1    2    0    0  0.12940329581E+02 -0.22218382230E+02  0.67773926492E+02  0.72487335106E+02  0.00000000000E+00 0. -1.
         11    1    1    2    0    0  0.15660414289E+02  0.67068017927E+02  0.11906391266E+02  0.69893703274E+02  0.00000000000E+00 0.  1.
</event>
<event>
 7    1  0.6473813E-006  0.1061589E+03  0.7561462E-02  0.1267853E+00
          2   -1    0    0  501    0  0.00000000000E+00  0.00000000000E+00  0.22489543044E+03  0.22489543044E+03  0.00000000000E+00 0. -1.
         -2   -1    0    0    0  501 -0.00000000000E+00 -0.00000000000E+00 -0.81882682546E+02  0.81882682546E+02  0.00000000000E+00 0.  1.
         23    2    1    2    0    0  0.74442096314E+02 -0.24162128339E+01  0.27510021875E+02  0.14815660345E+03  0.12508442770E+03 0.  0.
          5    1    3    3  502    0  0.52159658867E+02 -0.47835304367E+02 -0.24948535630E+02  0.75158154495E+02  0.41800000000E+01 0.  1.
         -5    1    3    3    0  502  0.22282437447E+02  0.45419091534E+02  0.52458557505E+02  0.72998448955E+02  0.41800000000E+01 0.  1.
        -11    1    1    2    0    0 -0.75866400786E+02 -0.11444436346E+02  0.49828214480E+02  0.91485172841E+02  0.00000000000E+00 0.  1.
         11    1    1    2    0    0  0.14243044723E+01  0.13860649179E+02  0.65674511539E+02  0.67136336695E+02  0.00000000000E+00 0. -1.
</event>
<event>
 7    1  0.6473813E-006  0.1034632E+03  0.7561462E-02  0.1273177E+00
          3   -1    0    0  501    0  0.00000000000E+00  0.00000000000E+00  0.22982583127E+03  0.22982583127E+03  0.00000000000E+00 0. -1.
         -3   -1    0    0    0  501 -0.00000000000E+00 -0.00000000000E+00 -0.73514063519E+02  0.73514063519E+02  0.00000000000E+00 0.  1.
         23    2    1    2    0    0  0.45937100293E+02  0.23347437688E+02  0.17737603241E+02  0.13010013749E+03  0.11813595209E+03 0.  0.
          5    1    3    3  502    0 -0.30538753032E+02  0.21120124389E+02 -0.22437301298E+02  0.43584171215E+02  0.41800000000E+01 0. -1.
         -5    1    3    3    0  502  0.76475853325E+02  0.22273132986E+01  0.40174904540E+02  0.86515966278E+02  0.41800000000E+01 0.  1.
        -11    1    1    2    0    0  0.12490031014E+02 -0.31556195049E+02  0.16676686379E+02  0.37814100403E+02  0.00000000000E+00 0.  1.
         11    1    1    2    0    0 -0.58427131307E+02  0.82087573609E+01  0.12189747814E+03  0.13542565690E+03  0.00000000000E+00 0. -1.
</event>
<event>
 7    1  0.6473813E-006  0.1647974E+03  0.7561462E-02  0.1183385E+00
         -1   -1    0    0    0  501 -0.00000000000E+00  0.00000000000E+00  0.13146467042E+03  0.13146467042E+03  0.00000000000E+00 0.  1.
          1   -1    0    0  501    0  0.00000000000E+00 -0.00000000000E+00 -0.30614858389E+03  0.30614858389E+03  0.00000000000E+00 0. -1.
         23    2    1    2    0    0  0.13385880738E+03  0.54408411808E+02  0.27135891163E+01  0.19113645762E+03  0.12508927323E+03 0.  0.
          5    1    3    3  502    0  0.38748958783E+02 -0.35094802359E+02  0.25793281942E+02  0.58445639296E+02  0.41800000000E+01 0. -1.
         -5    1    3    3    0  502  0.95109848595E+02  0.89503214167E+02 -0.23079692826E+02  0.13269081832E+03  0.41800000000E+01 0. -1.
        -11    1    1    2    0    0 -0.94500912543E+02 -0.49896462831E+02 -0.59958764601E+02  0.12253625148E+03  0.00000000000E+00 0.  1.
         11    1    1    2    0    0 -0.39357894836E+02 -0.45119489773E+01 -0.11743873798E+03  0.12394054521E+03  0.00000000000E+00 0. -1.
</event>
<event>
 7    1  0.6473813E-006  0.5974127E+02  0.7561462E-02  0.1398921E+00
         -2   -1    0    0    0  501 -0.00000000000E+00  0.00000000000E+00  0.33577825152E+02  0.33577825152E+02  0.00000000000E+00 0. -1.
          2   -1    0    0  501    0  0.00000000000E+00 -0.00000000000E+00 -0.45891082205E+03  0.45891082205E+03  0.00000000000E+00 0.  1.
         23    2    1    2    0    0  0.13827791673E+02 -0.26886407632E+02 -0.13556855775E+03  0.18692291971E+03  0.12508899762E+03 0.  0.
          5    1    3    3  502    0  0.11742829081E+02 -0.20675388807E+02 -0.15972909299E+03  0.16154324896E+03  0.41800000000E+01 0.  1.
         -5    1    3    3    0  502  0.20849625923E+01 -0.62110188250E+01  0.24160535245E+02  0.25379670746E+02  0.41800000000E+01 0.  1.
        -11    1    1    2    0    0  0.22171847695E+02 -0.19032785003E+02 -0.16824875275E+03  0.17076732866E+03  0.00000000000E+00 0.  1.
         11    1    1    2    0    0 -0.35999639368E+02  0.45919192634E+02 -0.12151568640E+03  0.13479839883E+03  0.00000000000E+00 0. -1.
</event>
<event>
 7    1  0.6473813E-006  0.1265425E+03  0.7561462E-02  0.1232678E+00
         -3   -1    0    0    0  501 -0.00000000000E+00  0.00000000000E+00  0.87731201459E+02  0.87731201459E+02  0.00000000000E+00 0.  1.
          3   -1    0    0  501    0  0.00000000000E+00 -0.00000000000E+00 -0.23078976502E+03  0.23078976502E+03  0.00000000000E+00 0. -1.
         23    2    1    2    0    0  0.80730439590E+02 -0.10245881896E+02 -0.33653298807E+02  0.15283607054E+03  0.12491572345E+03 0.  0.
          5    1    3    3  502    0  0.78833640296E+02 -0.47331421029E+02 -0.57478529007E+02  0.10851847749E+03  0.41800000000E+01 0. -1.
         -5    1    3    3    0  502  0.18967992940E+01  0.37085539133E+02  0.23825230200E+02  0.44317593058E+02  0.41800000000E+01 0. -1.
        -11    1    1    2    0    0 -0.10104879074E+03  0.16553103498E+02 -0.83234945837E+02  0.13195802194E+03  0.00000000000E+00 0. -1.
         11    1    1    2    0    0  0.20318351148E+02 -0.63072216020E+01 -0.26170318921E+02  0.33726874005E+02  0.00000000000E+00 0.  1.
</event>
<event>
 7    1  0.6473813E-006  0.1479204E+03  0.7561462E-02  0.1203052E+00
         -2   -1    0    0    0  501 -0.00000000000E+00  0.00000000000E+00  0.14169099132E+03  0.14169099132E+03  0.00000000000E+00 0.  1.
          2   -1    0    0  501    0  0.00000000000E+00 -0.00000000000E+00 -0.20186028056E+03  0.20186028056E+03  0.00000000000E+00 0. -1.
         23    2    1    2    0    0 -0.87769121232E+02 -0.67929312282E+02  0.34342722127E+02  0.17071884858E+03  0.12509073742E+03 0.  0.
          5    1    3    3  502    0  0.31301892791E+02 -0.15700454781E+02  0.18035506158E+02  0.39611420765E+02  0.41800000000E+01 0.  1.
         -5    1    3    3    0  502 -0.11907101402E+03 -0.52228857502E+02  0.16307215970E+02  0.13110742782E+03  0.41800000000E+01 0.  1.
        -11    1    1    2    0    0  0.58168646025E+02  0.79665751228E+02 -0.33791655468E+02  0.10426935925E+03  0.00000000000E+00 0.  1.
         11    1    1    2    0    0  0.29600475206E+02 -0.11736438946E+02 -0.60720355894E+02  0.68563064047E+02  0.00000000000E+00 0. -1.
</event>
<event>
 7    1  0.6473813E-006  0.1277082E+03  0.7561462E-02  0.1230897E+00
         -2   -1    0    0    0  501 -0.00000000000E+00  0.00000000000E+00  0.21512133649E+02  0.21512133649E+02  0.00000000000E+00 0. -1.
          2   -1    0    0  501    0  0.00000000000E+00 -0.00000000000E+00 -0.86303523773E+03  0.86303523773E+03  0.00000000000E+00 0.  1.
         23    2    1    2    0    0 -0.97775413904E+01 -0.76735083437E+02 -0.54886366052E+03  0.56822915597E+03  0.12509669264E+03 0.  0.
          5    1    3    3  502    0  0.16170825781E+02  0.31296508517E+02 -0.11508617144E+03  0.12042950764E+03  0.41800000000E+01 0. -1.
         -5    1    3    3    0  502 -0.25948367172E+02 -0.10803159195E+03 -0.43377748908E+03  0.44779964834E+03  0.41800000000E+01 0. -1.
        -11    1    1    2    0    0  0.39966742208E+02  0.65132119435E+02 -0.25725681465E+03  0.26836654439E+03  0.00000000000E+00 0. -1.
         11    1    1    2    0    0 -0.30189200817E+02  0.11602964001E+02 -0.35402628913E+02  0.47951671020E+02  0.00000000000E+00 0.  1.
</event>
<event>
 7    1  0.6473813E-006  0.1295570E+03  0.7561462E-02  0.1228115E+00
          1   -1    0    0  501    0  0.00000000000E+00  0.00000000000E+00  0.34804680370E+02  0.34804680370E+02  0.00000000000E+00 0. -1.
         -1   -1    0    0    0  501 -0.00000000000E+00 -0.00000000000E+00 -0.66287201712E+03  0.66287201712E+03  0.00000000000E+00 0.  1.
         23    2    1    2    0    0  0.77031116204E+02 -0.68080104881E+02 -0.40642848391E+03  0.43749250082E+03  0.12508749818E+03 0.  0.
          5    1    3    3  502    0 -0.11242679398E+02 -0.66547240438E+02 -0.12003982627E+03  0.13777505341E+03  0.41800000000E+01 0. -1.
         -5    1    3    3    0  502  0.88273795602E+02 -0.15328644435E+01 -0.28638865764E+03  0.29971744742E+03  0.41800000000E+01 0. -1.
        -11    1    1    2    0    0 -0.38498659612E+02  0.28755278044E+02 -0.21557762286E+02  0.52666402214E+02  0.00000000000E+00 0. -1.
         11    1    1    2    0    0 -0.38532456592E+02  0.39324826837E+02 -0.20008109055E+03  0.20751779445E+03  0.00000000000E+00 0.  1.
</event>
<event>
 7    1  0.6473813E-006  0.1622732E+03  0.7561462E-02  0.1186154E+00
         -1   -1    0    0    0  501 -0.00000000000E+00  0.00000000000E+00  0.76352880237E+03  0.76352880237E+03  0.00000000000E+00 0.  1.
          1   -1    0    0  501    0  0.00000000000E+00 -0.00000000000E+00 -0.41409822325E+02  0.41409822325E+02  0.00000000000E+00 0. -1.
         23    2    1    2    0    0  0.12439873451E+03  0.63040939389E+02  0.34400844584E+03  0.39171409628E+03  0.12509563235E+03 0.  0.
          5    1    3    3  502    0  0.97022890605E+01  0.39261960625E+02  0.20903146440E+03  0.21294896448E+03  0.41800000000E+01 0.  1.
         -5    1    3    3    0  502  0.11469644545E+03  0.23778978763E+02  0.13497698144E+03  0.17876513180E+03  0.41800000000E+01 0.  1.
        -11    1    1    2    0    0 -0.13923039295E+03 -0.54178379035E+02  0.33713106122E+03  0.36875161222E+03  0.00000000000E+00 0.  1.
         11    1    1    2    0    0  0.14831658437E+02 -0.88625603538E+01  0.40979472989E+02  0.44472916190E+02  0.00000000000E+00 0. -1.
</event>
<event>
 7    1  0.6473813E-006  0.1474517E+03  0.7561462E-02  0.1203640E+00
          4   -1    0    0  501    0  0.00000000000E+00  0.00000000000E+00  0.34407344508E+03  0.34407344508E+03  0.00000000000E+00 0. -1.
         -4   -1    0    0    0  501 -0.00000000000E+00 -0.00000000000E+00 -0.66135201820E+02  0.66135201820E+02  0.00000000000E+00 0.  1.
         23    2    1    2    0    0 -0.99256895184E+02  0.33559152320E+02  0.13660651961E+03  0.21280992758E+03  0.12509426897E+03 0.  0.
          5    1    3    3  502    0 -0.19237677525E+02 -0.44122706271E+02  0.22836493526E+02  0.53440427410E+02  0.41800000000E+01 0.  1.
         -5    1    3    3    0  502 -0.80019217660E+02  0.77681858591E+02  0.11377002609E+03  0.15936950017E+03  0.41800000000E+01 0.  1.
        -11    1    1    2    0    0  0.52819236728E+02  0.26478858088E+02  0.42489582479E+02  0.72776138352E+02  0.00000000000E+00 0.  1.
         11    1    1    2    0    0  0.46437658456E+02 -0.60038010408E+02  0.98842141170E+02  0.12462258097E+03  0.00000000000E+00 0. -1.
</event>
<event>
 7    1  0.6473813E-006  0.1235766E+03  0.7561462E-02  0.1237311E+00
          2   -1    0    0  501    0  0.00000000000E+00  0.00000000000E+00  0.71633238441E+03  0.71633238441E+03  0.00000000000E+00 0. -1.
         -2   -1    0    0    0  501 -0.00000000000E+00 -0.00000000000E+00 -0.26637894751E+02  0.26637894751E+02  0.00000000000E+00 0.  1.
         23    2    1    2    0    0 -0.63751614661E+02 -0.48704989378E+02  0.30244320328E+03  0.33698102657E+03  0.12509147333E+03 0.  0.
          5    1    3    3  502    0  0.22941523413E+02  0.60859491311E+01  0.83740422080E+01  0.25513707222E+02  0.41800000000E+01 0. -1.
         -5    1    3    3    0  502 -0.86693138074E+02 -0.54790938509E+02  0.29406916107E+03  0.31146731935E+03  0.41800000000E+01 0. -1.
        -11    1    1    2    0    0 -0.16830369784E+02 -0.11013280463E+02  0.91803545988E+02  0.93981087191E+02  0.00000000000E+00 0. -1.
         11    1    1    2    0    0  0.80581984445E+02  0.59718269841E+02  0.29544774039E+03  0.31200816540E+03  0.00000000000E+00 0.  1.
</event>
<event>
 6    1  0.6473813E-006  0.2000229E+03  0.7561462E-02  0.1149720E+00
          1   -1    0    0  501    0  0.00000000000E+00  0.00000000000E+00  0.20476601914E+03  0.20476601914E+03  0.00000000000E+00 0. -1.
         -1   -1    0    0    0  501 -0.00000000000E+00 -0.00000000000E+00 -0.50816319313E+03  0.50816319313E+03  0.00000000000E+00 0.  1.
          5    1    1    2  502    0  0.80247898744E+02 -0.12171754040E+03 -0.35017322080E+03  0.37933315418E+03  0.41800000000E+01 0. -1.
         -5    1    1    2    0  502  0.28836924598E+02  0.13937552744E+03  0.10638086949E+03  0.17773988765E+03  0.41800000000E+01 0.  1.
        -11    1    1    2    0    0 -0.60708307143E+02 -0.18363089695E+02  0.16626413781E+02  0.65567821792E+02  0.00000000000E+00 0.  1.
         11    1    1    2    0    0 -0.48376516199E+02  0.70510265273E+00 -0.76231236460E+02  0.90288348648E+02  0.00000000000E+00 0. -1.
</event>
<event>
 7    1  0.6473813E-006  0.1254296E+03  0.7561462E-02  0.1234399E+00
          1   -1    0    0  501    0  0.00000000000E+00  0.00000000000E+00  0.11814389315E+03  0.11814389315E+03  0.00000000000E+00 0. -1.
         -1   -1    0    0    0  501 -0.00000000000E+00 -0.00000000000E+00 -0.15802432943E+03  0.15802432943E+03  0.00000000000E+00 0.  1.
         23    2    1    2    0    0 -0.73406444121E+02  0.37432888004E+02 -0.33761529168E+02  0.15354601142E+03  0.12508720809E+03 0.  0.
          5    1    3    3  502    0  0.24218236745E+02  0.12626710077E+02  0.24654446887E+02  0.37030675793E+02  0.41800000000E+01 0.  1.
         -5    1    3    3    0  502 -0.97624680866E+02  0.24806177927E+02 -0.58415976055E+02  0.11651533563E+03  0.41800000000E+01 0.  1.
        -11    1    1    2    0    0  0.31941145001E+01 -0.50835039879E+02 -0.43439546825E+01  0.51120187687E+02  0.00000000000E+00 0.  1.
         11    1    1    2    0    0  0.70212329621E+02  0.13402151875E+02 -0.17749524294E+01  0.71502023481E+02  0.00000000000E+00 0. -1.
</event>
<event>
 7    1  0.6473813E-006  0.1106439E+03  0.7561462E-02  0.1259382E+00
         -2   -1    0    0    0  501 -0.00000000000E+00  0.00000000000E+00  0.55231052386E+02  0.55231052386E+02  0.00000000000E+00 0.  1.
          2   -1    0    0  501    0  0.00000000000E+00 -0.00000000000E+00 -0.24575364713E+03  0.24575364713E+03  0.00000000000E+00 0. -1.
         23    2    1    2    0    0 -0.61580457833E+01  0.35905204729E+02 -0.78787740891E+02  0.15224741539E+03  0.12507862377E+03 0.  0.
          5    1    3    3  502    0  0.15330985564E+02 -0.43544736995E+02 -0.39727004428E+02  0.61048263850E+02  0.41800000000E+01 0.  1.
         -5    1    3    3    0  502 -0.21489031347E+02  0.79449941724E+02 -0.39060736463E+02  0.91199151537E+02  0.41800000000E+01 0.  1.
        -11    1    1    2    0    0 -0.28555216183E+02 -0.47925768093E+02 -0.90478694635E+02  0.10629522003E+03  0.00000000000E+00 0. -1.
         11    1    1    2    0    0  0.34713261967E+02  0.12020563365E+02 -0.21256159215E+02  0.42442064094E+02  0.00000000000E+00 0.  1.
</event>
<event>
 7    1  0.6473813E-006  0.1898175E+03  0.7561462E-02  0.1158626E+00
         -1   -1    0    0    0  501 -0.00000000000E+00  0.00000000000E+00  0.78638280881E+02  0.78638280881E+02  0.00000000000E+00 0.  1.
          1   -1    0    0  501    0  0.00000000000E+00 -0.00000000000E+00 -0.61227324355E+03  0.61227324355E+03  0.00000000000E+00 0. -1.
         23    2    1    2    0    0 -0.55087747492E+02 -0.15229464261E+03 -0.12088143714E+03  0.23767340810E+03  0.12509200207E+03 0.  0.
          5    1    3    3  502    0 -0.90189242423E+02 -0.11148875480E+03 -0.57863374067E+02  0.15469157816E+03  0.41800000000E+01 0.  1.
         -5    1    3    3    0  502  0.35101494930E+02 -0.40805887807E+02 -0.63018063073E+02  0.82981829936E+02  0.41800000000E+01 0.  1.
        -11    1    1    2    0    0  0.65109849816E+02  0.57508791750E+02 -0.14506667977E+03  0.16908842435E+03  0.00000000000E+00 0. -1.
         11    1    1    2    0    0 -0.10022102324E+02  0.94785850858E+02 -0.26768684576E+03  0.28414969198E+03  0.00000000000E+00 0.  1.
</event>
<event>
 7    1  0.6473813E-006  0.1337544E+03  0.7561462E-02  0.1221989E+00
          2   -1    0    0  501    0  0.00000000000E+00  0.00000000000E+00  0.68047394768E+03  0.68047394768E+03  0.00000000000E+00 0. -1.
         -2   -1    0    0    0  501 -0.00000000000E+00 -0.00000000000E+00 -0.49509131935E+02  0.49509131935E+02  0.00000000000E+00 0.  1.
         23    2    1    2    0    0 -0.79249073500E+02 -0.97184813812E+02  0.16619351153E+03  0.24288460039E+03  0.12508933666E+03 0.  0.
          5    1    3    3  502    0 -0.44158116325E+02 -0.51711644580E+02  0.12109591334E+01  0.68139358997E+02  0.41800000000E+01 0. -1.
         -5    1    3    3    0  502 -0.35090957175E+02 -0.45473169233E+02  0.16498255239E+03  0.17474524139E+03  0.41800000000E+01 0. -1.
        -11    1    1    2    0    0 -0.11873116210E+02  0.14539177732E+02  0.11033370261E+03  0.11191909806E+03  0.00000000000E+00 0.  1.
         11    1    1    2    0    0  0.91122189710E+02  0.82645636080E+02  0.35443760160E+03  0.37517938116E+03  0.00000000000E+00 0. -1.
</event>
<event>
 7    1  0.6473813E-006  0.1069298E+03  0.7561462E-02  0.1266363E+00
         -4   -1    0    0    0  501 -0.00000000000E+00  0.00000000000E+00  0.10091936715E+03  0.10091936715E+03  0.00000000000E+00 0.  1.
          4   -1    0    0  501    0  0.00000000000E+00 -0.00000000000E+00 -0.14175924109E+03  0.14175924109E+03  0.00000000000E+00 0. -1.
         23    2    1    2    0    0  0.34638904378E+02 -0.10253665445E+02  0.10948274506E+02  0.13065844288E+03  0.12508706020E+03 0.  0.
          5    1    3    3  502    0 -0.37579982561E+02 -0.36906173336E+02  0.85732808717E+01  0.53528443509E+02  0.41800000000E+01 0.  1.
         -5    1    3    3    0  502  0.72218886939E+02  0.26652507892E+02  0.23749936345E+01  0.77129999367E+02  0.41800000000E+01 0.  1.
        -11    1    1    2    0    0  0.10016354496E+02 -0.25066532025E+02 -0.47862617351E+02  0.54949872837E+02  0.00000000000E+00 0. -1.
         11    1    1    2    0    0 -0.44655258874E+02  0.35320197469E+02 -0.39255311001E+01  0.57070292524E+02  0.00000000000E+00 0.  1.
</event>
<event>
 7    1  0.6473813E-006  0.1524528E+03  0.7561462E-02  0.1197491E+00
          2   -1    0    0  501    0  0.00000000000E+00  0.00000000000E+00  0.19822727698E+03  0.19822727698E+03  0.00000000000E+00 0. -1.
         -2   -1    0    0    0  501 -0.00000000000E+00 -0.00000000000E+00 -0.17439082754E+03  0.17439082754E+03  0.00000000000E+00 0.  1.
         23    2    1    2    0    0 -0.40679875778E+02  0.13531512557E+03 -0.39356166133E+02  0.19273269468E+03  0.12502779005E+03 0.  0.
          5    1    3    3  502    0 -0.28879896964E+01  0.26697484375E+02 -0.68776512817E+02  0.73951181679E+02  0.41800000000E+01 0.  1.
         -5    1    3    3    0  502 -0.37791886081E+02  0.10861764119E+03  0.29420346684E+02  0.11878151300E+03  0.41800000000E+01 0.  1.
        -11    1    1    2    0    0 -0.48248052417E+01 -0.11090565881E+03  0.64198927098E+02  0.12823745998E+03  0.00000000000E+00 0. -1.
         11    1    1    2    0    0  0.45504681019E+02 -0.24409466755E+02 -0.10063115211E+01  0.51647949861E+02  0.00000000000E+00 0.  1.
</event>
<event>
 7    1  0.6473813E-006  0.2648557E+03  0.7561462E-02  0.1104260E+00
         -1   -1    0    0    0  501 -0.00000000000E+00  0.00000000000E+00  0.33611902126E+03  0.33611902126E+03  0.00000000000E+00 0.  1.
          1   -1    0    0  501    0  0.00000000000E+00 -0.00000000000E+00 -0.25137944476E+03  0.25137944476E+03  0.00000000000E+00 0. -1.
         23    2    1    2    0    0  0.10373662840E+03  0.23875050346E+03  0.84342081635E+02  0.30087801646E+03  0.12510356942E+03 0.  0.
          5    1    3    3  502    0  0.55523251085E+02  0.51444813282E+02  0.75845035767E+02  0.10723498531E+03  0.41800000000E+01 0.  1.
         -5    1    3    3    0  502  0.48213377316E+02  0.18730569017E+03  0.84970458685E+01  0.19364303115E+03  0.41800000000E+01 0.  1.
        -11    1    1    2    0    0 -0.10419680685E+02 -0.30895360783E+02 -0.43727624154E+02  0.54545377234E+02  0.00000000000E+00 0. -1.
         11    1    1    2    0    0 -0.93316947716E+02 -0.20785514267E+03  0.44125119013E+02  0.23207507232E+03  0.00000000000E+00 0.  1.
</event>
<event>
 7    1  0.6473813E-006  0.1267866E+03  0.7561462E-02  0.1232303E+00
          1   -1    0    0  501    0  0.00000000000E+00  0.00000000000E+00  0.78604174910E+03  0.78604174910E+03  0.00000000000E+00 0. -1.
         -1   -1    0    0    0  501 -0.00000000000E+00 -0.00000000000E+00 -0.29452054305E+02  0.29452054305E+02  0.00000000000E+00 0.  1.
         23    2    1    2    0    0 -0.11067047740E+03  0.82667539342E+01  0.35016480236E+03  0.38444273618E+03  0.11342193263E+03 0.  0.
          5    1    3    3  502    0 -0.82961132380E+01 -0.57247863571E+01 -0.67621157512E+01  0.12837339410E+02  0.41800000000E+01 0.  1.
         -5    1    3    3    0  502 -0.10237436416E+03  0.13991540291E+02  0.35692691811E+03  0.37160539677E+03  0.41800000000E+01 0. -1.
        -11    1    1    2    0    0  0.27790409473E+02 -0.41508674268E+02  0.19991082428E+03  0.20605730893E+03  0.00000000000E+00 0.  1.
         11    1    1    2    0    0  0.82880067925E+02  0.33241920334E+02  0.20651406816E+03  0.22499375830E+03  0.00000000000E+00 0. -1.
</event>
<event>
 7    1  0.6473813E-006  0.1188001E+03  0.7561462E-02  0.1245090E+00
         -1   -1    0    0    0  501 -0.00000000000E+00  0.00000000000E+00  0.48439146509E+02  0.48439146509E+02  0.00000000000E+00 0.  1.
          1   -1    0    0  501    0  0.00000000000E+00 -0.00000000000E+00 -0.32057646120E+03  0.32057646120E+03  0.00000000000E+00 0. -1.
         23    2    1    2    0    0 -0.39965733130E+02 -0.42566718292E+02 -0.12235199019E+03  0.18446439795E+03  0.12509164351E+03 0.  0.
          5    1    3    3  502    0  0.40908802559E+02  0.79051030481E+01 -0.46422094292E+02  0.62518029555E+02  0.41800000000E+01 0. -1.
         -5    1    3    3    0  502 -0.80874535689E+02 -0.50471821340E+02 -0.75929895903E+02  0.12194636839E+03  0.41800000000E+01 0. -1.
        -11    1    1    2    0    0 -0.61104851523E+01 -0.20955823327E+02 -0.94943620164E+01  0.23803938124E+02  0.00000000000E+00 0.  1.
         11    1    1    2    0    0  0.46076218282E+02  0.63522541620E+02 -0.14029096248E+03  0.16074727163E+03  0.00000000000E+00 0. -1.
</event>
<event>
 7    1  0.8141264E-006  0.2202769E+03  0.7561462E-02  0.1133677E+00
         -2   -1    0    0    0  501 -0.00000000000E+00  0.00000000000E+00  0.46672895404E+03  0.46672895404E+03  0.00000000000E+00 0.  1.
          2   -1    0    0  501    0  0.00000000000E+00 -0.00000000000E+00 -0.12036642262E+03  0.12036642262E+03  0.00000000000E+00 0. -1.
         23    2    1    2    0    0  0.18749396221E+03  0.94185647306E+02  0.15772153193E+03  0.29077256243E+03  0.12509068473E+03 0.  0.
          5    1    3    3  502    0  0.73212227923E+01 -0.11945163749E+01  0.67098746026E+02  0.67636833831E+02  0.41800000000E+01 0. -1.
         -5    1    3    3    0  502  0.18017273942E+03  0.95380163681E+02  0.90622785903E+02  0.22313572860E+03  0.41800000000E+01 0. -1.
        -11    1    1    2    0    0 -0.12236053137E+03 -0.11533618994E+02  0.11018621532E+03  0.16506400592E+03  0.00000000000E+00 0.  1.
         11    1    1    2    0    0 -0.65133430840E+02 -0.82652028312E+02  0.78454784172E+02  0.13125880830E+03  0.00000000000E+00 0. -1.
</event>
<event>
 7    1  0.6473813E-006  0.1143754E+03  0.7561462E-02  0.1252675E+00
         -2   -1    0    0    0  501 -0.00000000000E+00  0.00000000000E+00  0.76478641119E+02  0.76478641119E+02  0.00000000000E+00 0.  1.
          2   -1    0    0  501    0  0.00000000000E+00 -0.00000000000E+00 -0.28583454968E+03  0.28583454968E+03  0.00000000000E+00 0. -1.
         23    2    1    2    0    0  0.15843151388E+02  0.95211843195E+02 -0.14238291643E+03  0.21269163544E+03  0.12509411003E+03 0.  0.
          5    1    3    3  502    0 -0.29692434948E+01  0.60605975233E+02 -0.15862117292E+03  0.16988245801E+03  0.41800000000E+01 0.  1.
         -5    1    3    3    0  502  0.18812394883E+02  0.34605867962E+02  0.16238256489E+02  0.42809177432E+02  0.41800000000E+01 0.  1.
        -11    1    1    2    0    0 -0.48113285132E+02 -0.78259876746E+02 -0.66071031346E+02  0.11315863952E+03  0.00000000000E+00 0.  1.
         11    1    1    2    0    0  0.32270133745E+02 -0.16951966449E+02 -0.90196078694E+00  0.36462915841E+02  0.00000000000E+00 0. -1.
</event>
<event>
 7    1  0.6473813E-006  0.1443917E+03  0.7561462E-02  0.1207539E+00
         -2   -1    0    0    0  501 -0.00000000000E+00  0.00000000000E+00  0.34639475384E+02  0.34639475384E+02  0.00000000000E+00 0.  1.
          2   -1    0    0  501    0  0.00000000000E+00 -0.00000000000E+00 -0.10764475269E+04  0.10764475269E+04  0.00000000000E+00 0. -1.
         23    2    1    2    0    0  0.12593398342E+03 -0.15368274732E+02 -0.27110386542E+03  0.32440876253E+03  0.12509271486E+03 0.  0.
          5    1    3    3  502    0  0.31319400070E+02 -0.26738459714E+02 -0.49609371610E+01  0.41688527752E+02  0.41800000000E+01 0.  1.
         -5    1    3    3    0  502  0.94614583351E+02  0.11370184982E+02 -0.26614292826E+03  0.28272023478E+03  0.41800000000E+01 0.  1.
        -11    1    1    2    0    0 -0.12638016701E+03 -0.98672190034E+01 -0.70474395170E+03  0.71605401059E+03  0.00000000000E+00 0. -1.
         11    1    1    2    0    0  0.44618358928E+00  0.25235493736E+02 -0.65960234409E+02  0.70624229179E+02  0.00000000000E+00 0.  1.
</event>
<event>
 7    1  0.6473813E-006  0.1317372E+03  0.7561462E-02  0.1224901E+00
         -1   -1    0    0    0  501 -0.00000000000E+00  0.00000000000E+00  0.39785180941E+03  0.39785180941E+03  0.00000000000E+00 0.  1.
          1   -1    0    0  501    0  0.00000000000E+00 -0.00000000000E+00 -0.55899337459E+02  0.55899337459E+02  0.00000000000E+00 0. -1.
         23    2    1    2    0    0 -0.72987135257E+02 -0.62790463283E+02  0.13138200240E+03  0.20537701765E+03  0.12509486254E+03 0.  0.
          5    1    3    3  502    0  0.30022664642E+02 -0.40182609283E+02  0.27821711729E+02  0.57511064366E+02  0.41800000000E+01 0. -1.
         -5    1    3    3    0  502 -0.10300979990E+03 -0.22607854001E+02  0.10356029067E+03  0.14786595329E+03  0.41800000000E+01 0. -1.
        -11    1    1    2    0    0  0.59628904056E+02  0.20195777584E+02  0.18818302983E+03  0.19843469542E+03  0.00000000000E+00 0. -1.
         11    1    1    2    0    0  0.13358231201E+02  0.42594685699E+02  0.22387439725E+02  0.49939433798E+02  0.00000000000E+00 0.  1.
</event>
<event>
 7    1  0.6473813E-006  0.9925348E+02  0.7561462E-02  0.1281874E+00
         -1   -1    0    0    0  501 -0.00000000000E+00  0.00000000000E+00  0.11823481831E+03  0.11823481831E+03  0.00000000000E+00 0.  1.
          1   -1    0    0  501    0  0.00000000000E+00 -0.00000000000E+00 -0.15377454960E+03  0.15377454960E+03  0.00000000000E+00 0. -1.
         23    2    1    2    0    0 -0.47358966512E+02 -0.41162053882E+02  0.30499822938E+02  0.14323236936E+03  0.12509231009E+03 0.  0.
          5    1    3    3  502    0  0.56300900583E+01 -0.58126768402E+02 -0.25788900878E+02  0.63976237209E+02  0.41800000000E+01 0. -1.
         -5    1    3    3    0  502 -0.52989056570E+02  0.16964714520E+02  0.56288723816E+02  0.79256132152E+02  0.41800000000E+01 0. -1.
        -11    1    1    2    0    0  0.60063535778E+02  0.29495960719E+02 -0.70126354787E+01  0.67281625168E+02  0.00000000000E+00 0.  1.
         11    1    1    2    0    0 -0.12704569266E+02  0.11666093163E+02 -0.59026918749E+02  0.61495373378E+02  0.00000000000E+00 0. -1.
</event>
<event>
 7    1  0.6473813E-006  0.2008328E+03  0.7561462E-02  0.1149038E+00
          2   -1    0    0  501    0  0.00000000000E+00  0.00000000000E+00  0.29094941708E+03  0.29094941708E+03  0.00000000000E+00 0. -1.
         -2   -1    0    0    0  501 -0.00000000000E+00 -0.00000000000E+00 -0.16804873221E+03  0.16804873221E+03  0.00000000000E+00 0.  1.
         23    2    1    2    0    0 -0.79578692339E+01 -0.19265497378E+03  0.43330038651E+02  0.23389056146E+03  0.12509210961E+03 0.  0.
          5    1    3    3  502    0 -0.60091749630E+01 -0.14872639675E+03 -0.26517124549E+02  0.15124907130E+03  0.41800000000E+01 0.  1.
         -5    1    3    3    0  502 -0.19486942708E+01 -0.43928577027E+02  0.69847163199E+02  0.82641490161E+02  0.41800000000E+01 0.  1.
        -11    1    1    2    0    0 -0.26228604667E+02  0.21103505608E+02  0.19104681383E+01  0.33718652705E+02  0.00000000000E+00 0.  1.
         11    1    1    2    0    0  0.34186473901E+02  0.17155146817E+03  0.77660178074E+02  0.19138893512E+03  0.00000000000E+00 0. -1.
</event>
<event>
 7    1  0.6473813E-006  0.1693434E+03  0.7561462E-02  0.1178534E+00
          2   -1    0    0  501    0  0.00000000000E+00  0.00000000000E+00  0.53499524046E+02  0.53499524046E+02  0.00000000000E+00 0. -1.
         -2   -1    0    0    0  501 -0.00000000000E+00 -0.00000000000E+00 -0.65723970132E+03  0.65723970132E+03  0.00000000000E+00 0.  1.
         23    2    1    2    0    0 -0.14135499745E+02  0.14562708832E+03 -0.39960426821E+03  0.44355281469E+03  0.12509383296E+03 0.  0.
          5    1    3    3  502    0 -0.49041428755E+02  0.98175273634E+02 -0.34870252506E+03  0.36558770421E+03  0.41800000000E+01 0.  1.
         -5    1    3    3    0  502  0.34905929009E+02  0.47451814684E+02 -0.50901743156E+02  0.77965110486E+02  0.41800000000E+01 0.  1.
        -11    1    1    2    0    0  0.47924180177E+02 -0.54258365218E+02 -0.64701177030E+02  0.97092427876E+02  0.00000000000E+00 0.  1.
         11    1    1    2    0    0 -0.33788680431E+02 -0.91368723100E+02 -0.13943473203E+03  0.17009398279E+03  0.00000000000E+00 0. -1.
</event>
<event>
 7    1  0.6473813E-006  0.2003057E+03  0.7561462E-02  0.1149481E+00
         -2   -1    0    0    0  501 -0.00000000000E+00  0.00000000000E+00  0.85815653300E+02  0.85815653300E+02  0.00000000000E+00 0.  1.
          2   -1    0    0  501    0  0.00000000000E+00 -0.00000000000E+00 -0.53852871987E+03  0.53852871987E+03  0.00000000000E+00 0. -1.
         23    2    1    2    0    0 -0.95837803105E+02  0.14982933514E+03 -0.16123961019E+03  0.27070164601E+03  0.12508978810E+03 0.  0.
          5    1    3    3  502    0  0.11936197661E+02 -0.15517203381E+02 -0.15615913953E+02  0.25388690079E+02  0.41800000000E+01 0. -1.
         -5    1    3    3    0  502 -0.10777400077E+03  0.16534653852E+03 -0.14562369624E+03  0.24531295593E+03  0.41800000000E+01 0. -1.
        -11    1    1    2    0    0  0.14330565743E+02 -0.60836349220E+02 -0.17539768709E+03  0.18620089994E+03  0.00000000000E+00 0. -1.
         11    1    1    2    0    0  0.81507237362E+02 -0.88992985922E+02 -0.11607576928E+03  0.16744182721E+03  0.00000000000E+00 0.  1.
</event>
<event>
 6    1  0.6473813E-006  0.1160366E+03  0.7561462E-02  0.1249782E+00
         -2   -1    0    0    0  501 -0.00000000000E+00  0.00000000000E+00  0.74619039869E+02  0.74619039869E+02  0.00000000000E+00 0.  1.
          2   -1    0    0  501    0  0.00000000000E+00 -0.00000000000E+00 -0.32138970101E+03  0.32138970101E+03  0.00000000000E+00 0. -1.
          5    1    1    2  502    0 -0.98120964512E+01  0.79919732020E+02 -0.56930089600E+02  0.98701308526E+02  0.41800000000E+01 0. -1.
         -5    1    1    2    0  502  0.18748204925E+02 -0.53755200962E+02  0.24978874858E+02  0.62309978395E+02  0.41800000000E+01 0.  1.
        -11    1    1    2    0    0 -0.38253844093E+02  0.17258976280E+02 -0.79669346062E+02  0.90046840878E+02  0.00000000000E+00 0. -1.
         11    1    1    2    0    0  0.29317735619E+02 -0.43423507338E+02 -0.13515010033E+03  0.14495061308E+03  0.00000000000E+00 0.  1.
</event>
<event>
 6    1  0.6473813E-006  0.9020959E+02  0.7561462E-02  0.1302345E+00
         -1   -1    0    0    0  501 -0.00000000000E+00  0.00000000000E+00  0.13178700808E+03  0.13178700808E+03  0.00000000000E+00 0.  1.
          1   -1    0    0  501    0  0.00000000000E+00 -0.00000000000E+00 -0.12345835682E+03  0.12345835682E+03  0.00000000000E+00 0. -1.
          5    1    1    2  502    0 -0.57189847849E+02 -0.86960772036E+01 -0.38576585875E+02  0.69655766692E+02  0.41800000000E+01 0. -1.
         -5    1    1    2    0  502  0.24325982802E+02  0.52410913729E+01  0.78591361470E+02  0.82542697895E+02  0.41800000000E+01 0.  1.
        -11    1    1    2    0    0 -0.31968918187E+02  0.48837031517E+01 -0.41906647545E+01  0.32610181809E+02  0.00000000000E+00 0.  1.
         11    1    1    2    0    0  0.64832783234E+02 -0.14287173209E+01 -0.27495459586E+02  0.70436718499E+02  0.00000000000E+00 0. -1.
</event>
<event>
 7    1  0.6473813E-006  0.9396649E+02  0.7561462E-02  0.1293521E+00
          2   -1    0    0  501    0  0.00000000000E+00  0.00000000000E+00  0.18006458971E+03  0.18006458971E+03  0.00000000000E+00 0. -1.
         -2   -1    0    0    0  501 -0.00000000000E+00 -0.00000000000E+00 -0.75484382400E+02  0.75484382400E+02  0.00000000000E+00 0.  1.
         23    2    1    2    0    0 -0.65553444795E+01  0.36202457505E+02  0.35841409852E+02  0.13522623628E+03  0.12509171775E+03 0.  0.
          5    1    3    3  502    0 -0.55619261024E+00 -0.44031970970E+02 -0.56675006676E+01  0.44595030906E+02  0.41800000000E+01 0. -1.
         -5    1    3    3    0  502 -0.59991518693E+01  0.80234428474E+02  0.41508910520E+02  0.90631205378E+02  0.41800000000E+01 0. -1.
        -11    1    1    2    0    0 -0.22333812300E+02 -0.11492192559E+02 -0.14366293410E+02  0.28935446221E+02  0.00000000000E+00 0.  1.
         11    1    1    2    0    0  0.28889156779E+02 -0.24710264945E+02  0.83105090863E+02  0.91387289600E+02  0.00000000000E+00 0. -1.
</event>
<event>
 7    1  0.6473813E-006  0.1011201E+03  0.7561462E-02  0.1277958E+00
          2   -1    0    0  501    0  0.00000000000E+00  0.00000000000E+00  0.44799834550E+03  0.44799834550E+03  0.00000000000E+00 0. -1.
         -2   -1    0    0    0  501 -0.00000000000E+00 -0.00000000000E+00 -0.30114681287E+02  0.30114681287E+02  0.00000000000E+00 0.  1.
         23    2    1    2    0    0 -0.16628104336E+02 -0.15607896057E+02  0.16771211779E+03  0.21046380001E+03  0.12509019301E+03 0.  0.
          5    1    3    3  502    0 -0.67804237720E+02  0.88075751613E+01  0.10897218241E+03  0.12871440080E+03  0.41800000000E+01 0.  1.
         -5    1    3    3    0  502  0.51176133384E+02 -0.24415471218E+02  0.58739935375E+02  0.81749399208E+02  0.41800000000E+01 0.  1.
        -11    1    1    2    0    0  0.43423635173E+02  0.22928512579E+02  0.22456023354E+03  0.22986654230E+03  0.00000000000E+00 0. -1.
         11    1    1    2    0    0 -0.26795530837E+02 -0.73206165216E+01  0.25611312887E+02  0.37782684485E+02  0.00000000000E+00 0.  1.
</event>
<event>
 7    1  0.6473813E-006  0.7765890E+02  0.7561462E-02  0.1335830E+00
         -1   -1    0    0    0  501 -0.00000000000E+00  0.00000000000E+00  0.42442924251E+03  0.42442924251E+03  0.00000000000E+00 0.  1.
          1   -1    0    0  501    0  0.00000000000E+00 -0.00000000000E+00 -0.30671918698E+02  0.30671918698E+02  0.00000000000E+00 0. -1.
         23    2    1    2    0    0 -0.63917341612E+01  0.15708167599E+02  0.21360293628E+03  0.24811600711E+03  0.12509091814E+03 0.  0.
          5    1    3    3  502    0  0.33156133274E+02 -0.14065096968E+02  0.87137669421E+01  0.37290189873E+02  0.41800000000E+01 0.  1.
         -5    1    3    3    0  502 -0.39547867436E+02  0.29773264568E+02  0.20488916934E+03  0.21082581724E+03  0.41800000000E+01 0.  1.
        -11    1    1    2    0    0 -0.16207846902E+02  0.20845914380E+02  0.53067651426E+01  0.26933403124E+02  0.00000000000E+00 0. -1.
         11    1    1    2    0    0  0.22599581063E+02 -0.36554081980E+02  0.17484762239E+03  0.18005175097E+03  0.00000000000E+00 0.  1.
</event>
<event>
 7    1  0.6473813E-006  0.1446914E+03  0.7561462E-02  0.1207152E+00
         -2   -1    0    0    0  501 -0.00000000000E+00  0.00000000000E+00  0.34710840683E+02  0.34710840683E+02  0.00000000000E+00 0.  1.
          2   -1    0    0  501    0  0.00000000000E+00 -0.00000000000E+00 -0.68020480783E+03  0.68020480783E+03  0.00000000000E+00 0. -1.
         23    2    1    2    0    0 -0.11718853831E+03 -0.10069036330E+02 -0.35039001669E+03  0.39019971818E+03  0.12509243490E+03 0.  0.
          5    1    3    3  502    0 -0.12695606915E+03  0.29775883657E+02 -0.26630004639E+03  0.29654280272E+03  0.41800000000E+01 0. -1.
         -5    1    3    3    0  502  0.97675308380E+01 -0.39844919988E+02 -0.84089970304E+02  0.93656915459E+02  0.41800000000E+01 0. -1.
        -11    1    1    2    0    0  0.61494960075E+02  0.71252796864E+01 -0.72992321082E+02  0.95709344696E+02  0.00000000000E+00 0.  1.
         11    1    1    2    0    0  0.55693578239E+02  0.29437566440E+01 -0.22211162938E+03  0.22900658564E+03  0.00000000000E+00 0. -1.
</event>
<event>
 6    1  0.6473813E-006  0.1454898E+03  0.7561462E-02  0.1206127E+00
         -3   -1    0    0    0  501 -0.00000000000E+00  0.00000000000E+00  0.17805176802E+03  0.17805176802E+03  0.00000000000E+00 0.  1.
          3   -1    0    0  501    0  0.00000000000E+00 -0.00000000000E+00 -0.13060092972E+03  0.13060092972E+03  0.00000000000E+00 0. -1.
          5    1    1    2  502    0  0.82987885982E+02  0.61363739554E+01 -0.14150462236E+02  0.84512438650E+02  0.41800000000E+01 0. -1.
         -5    1    1    2    0  502 -0.10723248649E+03 -0.32310919336E+02  0.57518126320E+02  0.12597066691E+03  0.41800000000E+01 0.  1.
        -11    1    1    2    0    0  0.48845183381E+02 -0.11884350860E+02 -0.88490029810E+01  0.51043066019E+02  0.00000000000E+00 0.  1.
         11    1    1    2    0    0 -0.24600582875E+02  0.38058896241E+02  0.12932177202E+02  0.47126526162E+02  0.00000000000E+00 0. -1.
</event>
<event>
 7    1  0.6473813E-006  0.8476228E+02  0.7561462E-02  0.1316055E+00
          2   -1    0    0  501    0  0.00000000000E+00  0.00000000000E+00  0.78858541174E+02  0.78858541174E+02  0.00000000000E+00 0. -1.
         -2   -1    0    0    0  501 -0.00000000000E+00 -0.00000000000E+00 -0.19420987530E+03  0.19420987530E+03  0.00000000000E+00 0.  1.
         23    2    1    2    0    0  0.27356788358E+02 -0.36741582378E+02 -0.39993491004E+02  0.13908733344E+03  0.12508984474E+03 0.  0.
          5    1    3    3  502    0  0.50883555234E+02  0.20424691058E+02  0.14176585110E+02  0.56786901337E+02  0.41800000000E+01 0. -1.
         -5    1    3    3    0  502 -0.23526766877E+02 -0.57166273436E+02 -0.54170076114E+02  0.82300432103E+02  0.41800000000E+01 0. -1.
        -11    1    1    2    0    0 -0.17352283171E+02  0.32909225994E+01  0.23351723773E+02  0.29278574180E+02  0.00000000000E+00 0. -1.
         11    1    1    2    0    0 -0.10004505187E+02  0.33450659779E+02 -0.98709566896E+02  0.10470250885E+03  0.00000000000E+00 0.  1.
</event>
<event>
 7    1  0.6473813E-006  0.1059781E+03  0.7561462E-02  0.1268204E+00
         -1   -1    0    0    0  501 -0.00000000000E+00  0.00000000000E+00  0.91387218927E+02  0.91387218927E+02  0.00000000000E+00 0. -1.
          1   -1    0    0  501    0  0.00000000000E+00 -0.00000000000E+00 -0.28346924172E+03  0.28346924172E+03  0.00000000000E+00 0.  1.
         23    2    1    2    0    0  0.43675832751E+02  0.10350163323E+02  0.24953820864E+02  0.13522149240E+03  0.12508978609E+03 0.  0.
          5    1    3    3  502    0 -0.27968122287E+02 -0.18788886596E+02 -0.25779281183E+02  0.42629589044E+02  0.41800000000E+01 0. -1.
         -5    1    3    3    0  502  0.71643955038E+02  0.29139049919E+02  0.50733102048E+02  0.92591903355E+02  0.41800000000E+01 0. -1.
        -11    1    1    2    0    0  0.17825011057E+01 -0.43971722892E+02 -0.11224111877E+03  0.12056018608E+03  0.00000000000E+00 0.  1.
         11    1    1    2    0    0 -0.45458333857E+02  0.33621559568E+02 -0.10479472489E+03  0.11907478217E+03  0.00000000000E+00 0. -1.
</event>
<event>
 6    1  0.6473813E-006  0.1283644E+03  0.7561462E-02  0.1229903E+00
          1   -1    0    0  501    0  0.00000000000E+00  0.00000000000E+00  0.12950343632E+03  0.12950343632E+03  0.00000000000E+00 0. -1.
         -1   -1    0    0    0  501 -0.00000000000E+00 -0.00000000000E+00 -0.32609945732E+03  0.32609945732E+03  0.00000000000E+00 0.  1.
          5    1    1    2  502    0 -0.25893970551E+02  0.27964672419E+02  0.72214535821E+01  0.39014643484E+02  0.41800000000E+01 0. -1.
         -5    1    1    2    0  502  0.83762079338E+02 -0.65527066001E+02 -0.26553367932E+03  0.28606902937E+03  0.41800000000E+01 0.  1.
        -11    1    1    2    0    0 -0.22616442987E+02 -0.28916892322E+02  0.67308436723E+01  0.37322840346E+02  0.00000000000E+00 0.  1.
         11    1    1    2    0    0 -0.35251665800E+02  0.66479285904E+02  0.54985361061E+02  0.93196380439E+02  0.00000000000E+00 0. -1.
</event>
<event>
 7    1  0.6473813E-006  0.1176821E+03  0.7561462E-02  0.1246971E+00
          2   -1    0    0  501    0  0.00000000000E+00  0.00000000000E+00  0.15004689907E+03  0.15004689907E+03  0.00000000000E+00 0. -1.
         -2   -1    0    0    0  501 -0.00000000000E+00 -0.00000000000E+00 -0.14742969463E+03  0.14742969463E+03  0.00000000000E+00 0.  1.
         23    2    1    2    0    0  0.12264765275E+02 -0.98897733005E+02 -0.16659585461E+02  0.16079321898E+03  0.12508289819E+03 0.  0.
          5    1    3    3  502    0 -0.26099168439E+02 -0.61591638803E+01 -0.48366090135E+02  0.55460372951E+02  0.41800000000E+01 0.  1.
         -5    1    3    3    0  502  0.38363933715E+02 -0.92738569125E+02  0.31706504674E+02  0.10533284603E+03  0.41800000000E+01 0.  1.
        -11    1    1    2    0    0 -0.25717378126E+02  0.41490075931E+02 -0.32145205328E+02  0.58447618977E+02  0.00000000000E+00 0.  1.
         11    1    1    2    0    0  0.13452612851E+02  0.57407657074E+02  0.51421995229E+02  0.78235755742E+02  0.00000000000E+00 0. -1.
</event>
<event>
 7    1  0.6473813E-006  0.7945185E+02  0.7561462E-02  0.1330614E+00
          1   -1    0    0  501    0  0.00000000000E+00  0.00000000000E+00  0.43787991232E+02  0.43787991232E+02  0.00000000000E+00 0. -1.
         -1   -1    0    0    0  501 -0.00000000000E+00 -0.00000000000E+00 -0.63904989619E+03  0.63904989619E+03  0.00000000000E+00 0.  1.
         23    2    1    2    0    0  0.30184130844E+02  0.44286361888E+02 -0.54927851953E+03  0.56588517455E+03  0.12508707031E+03 0.  0.
          5    1    3    3  502    0 -0.31771056277E+02  0.18006911450E+02 -0.40459278612E+03  0.40625908465E+03  0.41800000000E+01 0. -1.
         -5    1    3    3    0  502  0.61955187121E+02  0.26279450439E+02 -0.14468573340E+03  0.15962608990E+03  0.41800000000E+01 0. -1.
        -11    1    1    2    0    0 -0.11201795821E+02 -0.79952908503E+01 -0.68736746532E+02  0.70100964538E+02  0.00000000000E+00 0.  1.
         11    1    1    2    0    0 -0.18982335023E+02 -0.36291071038E+02  0.22753361104E+02  0.46851748330E+02  0.00000000000E+00 0. -1.
</event>
<event>
 7    1  0.6473813E-006  0.9205843E+02  0.7561462E-02  0.1297942E+00
          1   -1    0    0  501    0  0.00000000000E+00  0.00000000000E+00  0.49399676937E+02  0.49399676937E+02  0.00000000000E+00 0. -1.
         -1   -1    0    0    0  501 -0.00000000000E+00 -0.00000000000E+00 -0.26049021086E+03  0.26049021086E+03  0.00000000000E+00 0.  1.
         23    2    1    2    0    0  0.40322124045E+02 -0.32468605461E+02 -0.14749319821E+03  0.20010797575E+03  0.12493548099E+03 0.  0.
          5    1    3    3  502    0  0.50910965016E+01  0.40920938734E+02 -0.93659466568E+02  0.10242075262E+03  0.41800000000E+01 0.  1.
         -5    1    3    3    0  502  0.35231027544E+02 -0.73389544195E+02 -0.53833731646E+02  0.97687223125E+02  0.41800000000E+01 0.  1.
        -11    1    1    2    0    0 -0.31689396357E+02  0.46525636960E+01  0.75475321638E+01  0.32906373731E+02  0.00000000000E+00 0. -1.
         11    1    1    2    0    0 -0.86327276886E+01  0.27816041765E+02 -0.71144867871E+02  0.76875538315E+02  0.00000000000E+00 0.  1.
</event>
<event>
 7    1  0.6473813E-006  0.1084415E+03  0.7561462E-02  0.1263483E+00
         -1   -1    0    0    0  501 -0.00000000000E+00  0.00000000000E+00  0.26917401668E+02  0.26917401668E+02  0.00000000000E+00 0.  1.
          1   -1    0    0  501    0  0.00000000000E+00 -0.00000000000E+00 -0.55992575928E+03  0.55992575928E+03  0.00000000000E+00 0. -1.
         23    2    1    2    0    0  0.42348014037E+02  0.35492722111E+02 -0.25662318194E+03  0.29078425731E+03  0.12508772590E+03 0.  0.
          5    1    3    3  502    0  0.20716991980E+02  0.69027958908E+02 -0.72397269257E+02  0.10223937531E+03  0.41800000000E+01 0.  1.
         -5    1    3    3    0  502  0.21631022056E+02 -0.33535236798E+02 -0.18422591269E+03  0.18854488200E+03  0.41800000000E+01 0.  1.
        -11    1    1    2    0    0 -0.54006277487E+02 -0.57981100587E+02 -0.18560812880E+03  0.20181393289E+03  0.00000000000E+00 0.  1.
         11    1    1    2    0    0  0.11658263450E+02  0.22488378476E+02 -0.90777046867E+02  0.94244970746E+02  0.00000000000E+00 0. -1.
</event>
<event>
 7    1  0.6473813E-006  0.9611687E+02  0.7561462E-02  0.1288680E+00
         -2   -1    0    0    0  501 -0.00000000000E+00  0.00000000000E+00  0.26050780614E+02  0.26050780614E+02  0.00000000000E+00 0.  1.
          2   -1    0    0  501    0  0.00000000000E+00 -0.00000000000E+00 -0.57728030319E+03  0.57728030319E+03  0.00000000000E+00 0. -1.
         23    2    1    2    0    0  0.29678009398E+02 -0.18542158953E+02 -0.19606106695E+03  0.23518649357E+03  0.12509256126E+03 0.  0.
          5    1    3    3  502    0  0.32748801639E+02 -0.56717077469E+02 -0.45705333163E+02  0.79973500392E+02  0.41800000000E+01 0.  1.
         -5    1    3    3    0  502 -0.30707922411E+01  0.38174918516E+02 -0.15035573378E+03  0.15521299317E+03  0.41800000000E+01 0.  1.
        -11    1    1    2    0    0 -0.33244265825E+02  0.48011496888E+02 -0.29863996204E+03  0.30429609260E+03  0.00000000000E+00 0. -1.
         11    1    1    2    0    0  0.35662564268E+01 -0.29469337935E+02 -0.56528493588E+02  0.63848497637E+02  0.00000000000E+00 0.  1.
</event>
<event>
 7    1  0.6473813E-006  0.9157775E+02  0.7561462E-02  0.1299075E+00
          2   -1    0    0  501    0  0.00000000000E+00  0.00000000000E+00  0.19745029221E+03  0.19745029221E+03  0.00000000000E+00 0. -1.
         -2   -1    0    0    0  501 -0.00000000000E+00 -0.00000000000E+00 -0.67173631699E+02  0.67173631699E+02  0.00000000000E+00 0.  1.
         23    2    1    2    0    0 -0.45789402869E-02  0.19427611265E+02  0.33096996842E+02  0.13084184211E+03  0.12508694715E+03 0.  0.
          5    1    3    3  502    0  0.40843950091E+02 -0.18807171119E+02 -0.23703676709E+02  0.51002692419E+02  0.41800000000E+01 0.  1.
         -5    1    3    3    0  502 -0.40848529031E+02  0.38234782384E+02  0.56800673551E+02  0.79839149693E+02  0.41800000000E+01 0.  1.
        -11    1    1    2    0    0  0.37612815014E+02  0.36096844371E+01  0.15271618321E+02  0.40755073318E+02  0.00000000000E+00 0.  1.
         11    1    1    2    0    0 -0.37608236074E+02 -0.23037295702E+02  0.81908045348E+02  0.93027008479E+02  0.00000000000E+00 0. -1.
</event>
<event>
 7    1  0.6473813E-006  0.1496319E+03  0.7561462E-02  0.1200926E+00
         -4   -1    0    0    0  501 -0.00000000000E+00  0.00000000000E+00  0.37846550131E+02  0.37846550131E+02  0.00000000000E+00 0.  1.
          4   -1    0    0  501    0  0.00000000000E+00 -0.00000000000E+00 -0.71304927309E+03  0.71304927309E+03  0.00000000000E+00 0. -1.
         23    2    1    2    0    0 -0.78370693979E+02  0.87665435575E+02 -0.27913888548E+03  0.32770866513E+03  0.12508899848E+03 0.  0.
          5    1    3    3  502    0 -0.44023623920E+02 -0.24501452788E+02 -0.11777272576E+03  0.12816508099E+03  0.41800000000E+01 0.  1.
         -5    1    3    3    0  502 -0.34347070059E+02  0.11216688836E+03 -0.16136615972E+03  0.19954358414E+03  0.41800000000E+01 0.  1.
        -11    1    1    2    0    0  0.43507596901E+02 -0.78250394393E+01 -0.51931349312E+02  0.68198293760E+02  0.00000000000E+00 0.  1.
         11    1    1    2    0    0  0.34863097078E+02 -0.79840396136E+02 -0.34413248817E+03  0.35498886434E+03  0.00000000000E+00 0. -1.
</event>
<event>
 7    1  0.6473813E-006  0.1760175E+03  0.7561462E-02  0.1171714E+00
          1   -1    0    0  501    0  0.00000000000E+00  0.00000000000E+00  0.25134108701E+03  0.25134108701E+03  0.00000000000E+00 0. -1.
         -1   -1    0    0    0  501 -0.00000000000E+00 -0.00000000000E+00 -0.12470418992E+03  0.12470418992E+03  0.00000000000E+00 0.  1.
         23    2    1    2    0    0 -0.19275166234E+02  0.13838983726E+03  0.62703241553E+02  0.19773883520E+03  0.12508265808E+03 0.  0.
          5    1    3    3  502    0 -0.46004149845E+02  0.16438143205E+01  0.37050158829E+01  0.46371149125E+02  0.41800000000E+01 0.  1.
         -5    1    3    3    0  502  0.26728983611E+02  0.13674602294E+03  0.58998225671E+02  0.15136768607E+03  0.41800000000E+01 0.  1.
        -11    1    1    2    0    0 -0.17923850944E+02 -0.12590934151E+03  0.50397160238E+02  0.13680022102E+03  0.00000000000E+00 0.  1.
         11    1    1    2    0    0  0.37199017178E+02 -0.12480495750E+02  0.13536495293E+02  0.41506220715E+02  0.00000000000E+00 0. -1.
</event>
<event>
 7    1  0.6473813E-006  0.2633897E+03  0.7561462E-02  0.1105124E+00
          1   -1    0    0  501    0  0.00000000000E+00  0.00000000000E+00  0.31957436912E+03  0.31957436912E+03  0.00000000000E+00 0. -1.
         -1   -1    0    0    0  501 -0.00000000000E+00 -0.00000000000E+00 -0.35546136443E+03  0.35546136443E+03  0.00000000000E+00 0.  1.
         23    2    1    2    0    0  0.10151893069E+02 -0.26014250801E+03 -0.20104745381E+03  0.35191199343E+03  0.12507912308E+03 0.  0.
          5    1    3    3  502    0  0.32770769254E+02 -0.17471763586E+03 -0.19400513052E+03  0.26316466075E+03  0.41800000000E+01 0.  1.
         -5    1    3    3    0  502 -0.22618876185E+02 -0.85424872144E+02 -0.70423232895E+01  0.88747332681E+02  0.41800000000E+01 0.  1.
        -11    1    1    2    0    0 -0.92978129177E+01  0.12219308425E+03  0.22355199475E+02  0.12456867225E+03  0.00000000000E+00 0.  1.
         11    1    1    2    0    0 -0.85408015151E+00  0.13794942376E+03  0.14280525903E+03  0.19855506786E+03  0.00000000000E+00 0. -1.
</event>
<event>
 7    1  0.6473813E-006  0.1083221E+03  0.7561462E-02  0.1263709E+00
         -2   -1    0    0    0  501 -0.00000000000E+00  0.00000000000E+00  0.72494359067E+02  0.72494359067E+02  0.00000000000E+00 0.  1.
          2   -1    0    0  501    0  0.00000000000E+00 -0.00000000000E+00 -0.41706088559E+03  0.41706088559E+03  0.00000000000E+00 0. -1.
         23    2    1    2    0    0 -0.21364197015E+02 -0.90034068570E+02 -0.26696146530E+02  0.14648445209E+03  0.11037412762E+03 0.  0.
          5    1    3    3  502    0 -0.92537117036E+01 -0.35637008372E+02 -0.67694794354E+02  0.77173085520E+02  0.41800000000E+01 0. -1.
         -5    1    3    3    0  502 -0.12110485311E+02 -0.54397060199E+02  0.40998647824E+02  0.69311366572E+02  0.41800000000E+01 0.  1.
        -11    1    1    2    0    0  0.46110089464E+02  0.21572605885E+02 -0.18128591057E+03  0.18829789974E+03  0.00000000000E+00 0.  1.
         11    1    1    2    0    0 -0.24745892449E+02  0.68461462685E+02 -0.13658446943E+03  0.15477289283E+03  0.00000000000E+00 0. -1.
</event>
<event>
 7    1  0.6473813E-006  0.1235165E+03  0.7561462E-02  0.1237406E+00
         -2   -1    0    0    0  501 -0.00000000000E+00  0.00000000000E+00  0.12473948565E+04  0.12473948565E+04  0.00000000000E+00 0.  1.
          2   -1    0    0  501    0  0.00000000000E+00 -0.00000000000E+00 -0.16733079311E+02  0.16733079311E+02  0.00000000000E+00 0. -1.
         23    2    1    2    0    0  0.29642155203E+02 -0.53037127892E+02  0.98882640975E+03  0.99855731602E+03  0.12508976957E+03 0.  0.
          5    1    3    3  502    0  0.19970180929E+01  0.40378560641E+02  0.34563950779E+03  0.34802091602E+03  0.41800000000E+01 0. -1.
         -5    1    3    3    0  502  0.27645137110E+02 -0.93415688533E+02  0.64318690196E+03  0.65053639999E+03  0.41800000000E+01 0. -1.
        -11    1    1    2    0    0  0.31792537635E+02  0.82293851874E+01  0.58416489620E+02  0.67014733375E+02  0.00000000000E+00 0.  1.
         11    1    1    2    0    0 -0.61434692838E+02  0.44807742705E+02  0.18341887778E+03  0.19855588638E+03  0.00000000000E+00 0. -1.
</event>
<event>
 7    1  0.6473813E-006  0.1305946E+03  0.7561462E-02  0.1226576E+00
         -3   -1    0    0    0  501 -0.00000000000E+00  0.00000000000E+00  0.19020605214E+03  0.19020605214E+03  0.00000000000E+00 0.  1.
          3   -1    0    0  501    0  0.00000000000E+00 -0.00000000000E+00 -0.13266610063E+03  0.13266610063E+03  0.00000000000E+00 0. -1.
         23    2    1    2    0    0 -0.62881223954E+02 -0.74359413975E+02  0.63233952201E+02  0.17067320403E+03  0.12508972416E+03 0.  0.
          5    1    3    3  502    0 -0.46637371966E+02  0.11275314503E+02 -0.18034870723E+02  0.51428650994E+02  0.41800000000E+01 0. -1.
         -5    1    3    3    0  502 -0.16243851988E+02 -0.85634728478E+02  0.81268822924E+02  0.11924455303E+03  0.41800000000E+01 0. -1.
        -11    1    1    2    0    0  0.15093907655E+02  0.76455614988E+02  0.38635729579E+02  0.86982795492E+02  0.00000000000E+00 0.  1.
         11    1    1    2    0    0  0.47787316299E+02 -0.20962010133E+01 -0.44329730275E+02  0.65216153245E+02  0.00000000000E+00 0. -1.
</event>
<event>
 7    1  0.6473813E-006  0.7437861E+02  0.7561462E-02  0.1345806E+00
          4   -1    0    0  501    0  0.00000000000E+00  0.00000000000E+00  0.67814130016E+02  0.67814130016E+02  0.00000000000E+00 0. -1.
         -4   -1    0    0    0  501 -0.00000000000E+00 -0.00000000000E+00 -0.22439536464E+03  0.22439536464E+03  0.00000000000E+00 0.  1.
         23    2    1    2    0    0  0.28741514623E+01  0.51292257980E+02 -0.11930423415E+03  0.18033094767E+03  0.12508634588E+03 0.  0.
          5    1    3    3  502    0 -0.66482955891E+00  0.30781672589E+02  0.21596700702E+02  0.37839704636E+02  0.41800000000E+01 0. -1.
         -5    1    3    3    0  502  0.35389810212E+01  0.20510585391E+02 -0.14090093485E+03  0.14249124303E+03  0.41800000000E+01 0. -1.
        -11    1    1    2    0    0  0.38696376221E+02 -0.33711920647E+02 -0.42243304128E+02  0.66471045351E+02  0.00000000000E+00 0.  1.
         11    1    1    2    0    0 -0.41570527683E+02 -0.17580337332E+02  0.49663036541E+01  0.45407501633E+02  0.00000000000E+00 0. -1.
</event>
<event>
 7    1  0.6473813E-006  0.1199510E+03  0.7561462E-02  0.1243178E+00
          3   -1    0    0  501    0  0.00000000000E+00  0.00000000000E+00  0.18247920338E+03  0.18247920338E+03  0.00000000000E+00 0. -1.
         -3   -1    0    0    0  501 -0.00000000000E+00 -0.00000000000E+00 -0.97177482939E+02  0.97177482939E+02  0.00000000000E+00 0.  1.
         23    2    1    2    0    0 -0.27486403617E+02 -0.66419991242E+02  0.19124446670E+02  0.14553614458E+03  0.12509159564E+03 0.  0.
          5    1    3    3  502    0 -0.31409506831E+02 -0.98348744620E+02  0.35425693839E+02  0.10923133649E+03  0.41800000000E+01 0.  1.
         -5    1    3    3    0  502  0.39231032142E+01  0.31928753379E+02 -0.16301247170E+02  0.36304808090E+02  0.41800000000E+01 0.  1.
        -11    1    1    2    0    0  0.52908516061E+02  0.54834194325E+02  0.72825909148E+02  0.10540262322E+03  0.00000000000E+00 0. -1.
         11    1    1    2    0    0 -0.25422112444E+02  0.11585796917E+02 -0.66486353792E+01  0.28717918513E+02  0.00000000000E+00 0.  1.
</event>
<event>
 7    1  0.6473813E-006  0.1240070E+03  0.7561462E-02  0.1236629E+00
          2   -1    0    0  501    0  0.00000000000E+00  0.00000000000E+00  0.27104054154E+03  0.27104054154E+03  0.00000000000E+00 0. -1.
         -2   -1    0    0    0  501 -0.00000000000E+00 -0.00000000000E+00 -0.90138951469E+02  0.90138951469E+02  0.00000000000E+00 0.  1.
         23    2    1    2    0    0 -0.48139941880E+02 -0.93202252717E+02  0.51876493489E+02  0.17129796703E+03  0.12509080308E+03 0.  0.
          5    1    3    3  502    0  0.62158017379E+01  0.16769737363E+02 -0.21513890322E+02  0.28287455864E+02  0.41800000000E+01 0.  1.
         -5    1    3    3    0  502 -0.54355743617E+02 -0.10997199008E+03  0.73390383812E+02  0.14301051116E+03  0.41800000000E+01 0.  1.
        -11    1    1    2    0    0  0.31075487891E+01  0.24898691105E+02 -0.11244850054E+02  0.27496333046E+02  0.00000000000E+00 0.  1.
         11    1    1    2    0    0  0.45032393090E+02  0.68303561612E+02  0.14026994664E+03  0.16238519294E+03  0.00000000000E+00 0. -1.
</event>
<event>
 7    1  0.6473813E-006  0.9681581E+02  0.7561462E-02  0.1287138E+00
          2   -1    0    0  501    0  0.00000000000E+00  0.00000000000E+00  0.46935346962E+02  0.46935346962E+02  0.00000000000E+00 0. -1.
         -2   -1    0    0    0  501 -0.00000000000E+00 -0.00000000000E+00 -0.31359973992E+03  0.31359973992E+03  0.00000000000E+00 0.  1.
         23    2    1    2    0    0  0.20122019532E+01  0.56918833941E+02 -0.14720167429E+03  0.20139451926E+03  0.12509043473E+03 0.  0.
          5    1    3    3  502    0  0.56372331800E+02  0.57878401500E+02 -0.70658651755E+02  0.10741446188E+03  0.41800000000E+01 0. -1.
         -5    1    3    3    0  502 -0.54360129847E+02 -0.95956755886E+00 -0.76543022531E+02  0.93980057380E+02  0.41800000000E+01 0. -1.
        -11    1    1    2    0    0 -0.68276988013E+01 -0.24819923111E+02  0.85128613171E+01  0.27113001715E+02  0.00000000000E+00 0. -1.
         11    1    1    2    0    0  0.48154968481E+01 -0.32098910830E+02 -0.12797557999E+03  0.13202756591E+03  0.00000000000E+00 0.  1.
</event>
<event>
 7    1  0.6473813E-006  0.1429046E+03  0.7561462E-02  0.1209473E+00
         -2   -1    0    0    0  501 -0.00000000000E+00  0.00000000000E+00  0.84209619039E+02  0.84209619039E+02  0.00000000000E+00 0.  1.
          2   -1    0    0  501    0  0.00000000000E+00 -0.00000000000E+00 -0.45526657708E+03  0.45526657708E+03  0.00000000000E+00 0. -1.
         23    2    1    2    0    0  0.12221818204E+03 -0.12406307620E+02 -0.35677505307E+02  0.17100862327E+03  0.11348949007E+03 0.  0.
          5    1    3    3  502    0 -0.24392112654E+01 -0.28709052375E+02  0.18018479975E+02  0.34238829718E+02  0.41800000000E+01 0. -1.
         -5    1    3    3    0  502  0.12465739331E+03  0.16302744755E+02 -0.53695985282E+02  0.13676979355E+03  0.41800000000E+01 0.  1.
        -11    1    1    2    0    0 -0.79975688639E+02 -0.13854450126E+02 -0.28997520243E+03  0.30112069770E+03  0.00000000000E+00 0. -1.
         11    1    1    2    0    0 -0.42242493401E+02  0.26260757746E+02 -0.45404250300E+02  0.67346875142E+02  0.00000000000E+00 0.  1.
</event>
<event>
 7    1  0.6473813E-006  0.8500455E+02  0.7561462E-02  0.1315421E+00
          2   -1    0    0  501    0  0.00000000000E+00  0.00000000000E+00  0.10576713664E+04  0.10576713664E+04  0.00000000000E+00 0. -1.
         -2   -1    0    0    0  501 -0.00000000000E+00 -0.00000000000E+00 -0.13297711056E+02  0.13297711056E+02  0.00000000000E+00 0.  1.
         23    2    1    2    0    0  0.38941689698E+02 -0.60083481737E+01  0.51552504936E+03  0.53194565638E+03  0.12509016500E+03 0.  0.
          5    1    3    3  502    0  0.28955615681E+02  0.21892852794E+02  0.49334114461E+03  0.49469251262E+03  0.41800000000E+01 0. -1.
         -5    1    3    3    0  502  0.99860740171E+01 -0.27901200967E+02  0.22183904755E+02  0.37253143758E+02  0.41800000000E+01 0. -1.
        -11    1    1    2    0    0 -0.12092423237E+01  0.47467036028E+02  0.27380706947E+03  0.27789367223E+03  0.00000000000E+00 0. -1.
         11    1    1    2    0    0 -0.37732447374E+02 -0.41458687854E+02  0.25504153651E+03  0.26112974884E+03  0.00000000000E+00 0.  1.
</event>
<event>
 7    1  0.6473813E-006  0.9562103E+02  0.7561462E-02  0.1289783E+00
          4   -1    0    0  501    0  0.00000000000E+00  0.00000000000E+00  0.23747333577E+03  0.23747333577E+03  0.00000000000E+00 0. -1.
         -4   -1    0    0    0  501 -0.00000000000E+00 -0.00000000000E+00 -0.61577596561E+02  0.61577596561E+02  0.00000000000E+00 0.  1.
         23    2    1    2    0    0 -0.31353517027E+02 -0.49874611405E+01  0.45972685004E+02  0.13699624681E+03  0.12508623455E+03 0.  0.
          5    1    3    3  502    0 -0.64728841785E+02  0.35823609116E+02  0.38750061626E+02  0.83619337506E+02  0.41800000000E+01 0.  1.
         -5    1    3    3    0  502  0.33375324758E+02 -0.40811070257E+02  0.72226233783E+01  0.53376909302E+02  0.41800000000E+01 0.  1.
        -11    1    1    2    0    0  0.28021779114E+02 -0.22889369775E+02  0.12898509966E+03  0.13396379842E+03  0.00000000000E+00 0. -1.
         11    1    1    2    0    0  0.33317379126E+01  0.27876830915E+02  0.93795454429E+00  0.28090887101E+02  0.00000000000E+00 0.  1.
</event>
<event>
 7    1  0.6473813E-006  0.1078483E+03  0.7561462E-02  0.1264607E+00
         -2   -1    0    0    0  501 -0.00000000000E+00  0.00000000000E+00  0.39929697226E+02  0.39929697226E+02  0.00000000000E+00 0.  1.
          2   -1    0    0  501    0  0.00000000000E+00 -0.00000000000E+00 -0.29749230632E+03  0.29749230632E+03  0.00000000000E+00 0. -1.
         23    2    1    2    0    0 -0.46178701972E+01  0.14861235875E+02 -0.13120799734E+03  0.18194998106E+03  0.12509226989E+03 0.  0.
          5    1    3    3  502    0  0.21754785025E+02  0.64800992800E+02 -0.60665559781E+02  0.91488916722E+02  0.41800000000E+01 0. -1.
         -5    1    3    3    0  502 -0.26372655222E+02 -0.49939756925E+02 -0.70542437555E+02  0.90461064339E+02  0.41800000000E+01 0. -1.
        -11    1    1    2    0    0  0.45239140937E+02  0.47279521689E+01 -0.62730967003E+02  0.77486176997E+02  0.00000000000E+00 0.  1.
         11    1    1    2    0    0 -0.40621270740E+02 -0.19589188044E+02 -0.63623644760E+02  0.77985845494E+02  0.00000000000E+00 0. -1.
</event>
<event>
 7    1  0.6473813E-006  0.1908880E+03  0.7561462E-02  0.1157663E+00
         -1   -1    0    0    0  501 -0.00000000000E+00  0.00000000000E+00  0.15843802417E+03  0.15843802417E+03  0.00000000000E+00 0.  1.
          1   -1    0    0  501    0  0.00000000000E+00 -0.00000000000E+00 -0.27158251322E+03  0.27158251322E+03  0.00000000000E+00 0. -1.
         23    2    1    2    0    0  0.17040013310E+03 -0.41999786180E+02 -0.69902064275E+02  0.22657019911E+03  0.12509024395E+03 0.  0.
          5    1    3    3  502    0  0.14210249421E+03  0.14504610723E+02 -0.77865742501E+02  0.16273920501E+03  0.41800000000E+01 0. -1.
         -5    1    3    3    0  502  0.28297638897E+02 -0.56504396902E+02  0.79636782264E+01  0.63830994096E+02  0.41800000000E+01 0. -1.
        -11    1    1    2    0    0 -0.70702533685E+02  0.15482063456E+02  0.28506529387E+02  0.77789233034E+02  0.00000000000E+00 0.  1.
         11    1    1    2    0    0 -0.99697599418E+02  0.26517722723E+02 -0.71748954166E+02  0.12566110525E+03  0.00000000000E+00 0. -1.
</event>
<event>
 7    1  0.6473813E-006  0.1230196E+03  0.7561462E-02  0.1238197E+00
         -3   -1    0    0    0  501 -0.00000000000E+00  0.00000000000E+00  0.12795424570E+03  0.12795424570E+03  0.00000000000E+00 0.  1.
          3   -1    0    0  501    0  0.00000000000E+00 -0.00000000000E+00 -0.13720685439E+03  0.13720685439E+03  0.00000000000E+00 0. -1.
         23    2    1    2    0    0 -0.49175678312E+02  0.43773145344E+02  0.33676405944E+02  0.14531584888E+03  0.12509300551E+03 0.  0.
          5    1    3    3  502    0  0.35306727963E+02 -0.61684507883E+01 -0.10542461052E+02  0.37592960905E+02  0.41800000000E+01 0. -1.
         -5    1    3    3    0  502 -0.84482406275E+02  0.49941596133E+02  0.44218866995E+02  0.10772288797E+03  0.41800000000E+01 0. -1.
        -11    1    1    2    0    0 -0.24709140562E+02  0.20350278430E+01 -0.12282490723E+02  0.27668439493E+02  0.00000000000E+00 0. -1.
         11    1    1    2    0    0  0.73884818874E+02 -0.45808173187E+02 -0.30646523916E+02  0.92176811720E+02  0.00000000000E+00 0.  1.
</event>
<event>
 7    1  0.6473813E-006  0.1371335E+03  0.7561462E-02  0.1217239E+00
         -1   -1    0    0    0  501 -0.00000000000E+00  0.00000000000E+00  0.84953589744E+02  0.84953589744E+02  0.00000000000E+00 0.  1.
          1   -1    0    0  501    0  0.00000000000E+00 -0.00000000000E+00 -0.30998718848E+03  0.30998718848E+03  0.00000000000E+00 0. -1.
         23    2    1    2    0    0  0.54665985918E+02  0.96954654761E+02 -0.67717002696E+02  0.18061182559E+03  0.12508582651E+03 0.  0.
          5    1    3    3  502    0 -0.80308297270E+01 -0.62868695545E+01  0.25630390249E+02  0.27899968803E+02  0.41800000000E+01 0.  1.
         -5    1    3    3    0  502  0.62696815646E+02  0.10324152432E+03 -0.93347392945E+02  0.15271185679E+03  0.41800000000E+01 0.  1.
        -11    1    1    2    0    0 -0.61080137490E+02 -0.11113900296E+03 -0.15182424155E+03  0.19782128677E+03  0.00000000000E+00 0.  1.
         11    1    1    2    0    0  0.64141515717E+01  0.14184348202E+02 -0.54923544858E+01  0.16507665859E+02  0.00000000000E+00 0. -1.
</event>
<event>
 7    1  0.6473813E-006  0.1526044E+03  0.7561462E-02  0.1197309E+00
          1   -1    0    0  501    0  0.00000000000E+00  0.00000000000E+00  0.30517823555E+03  0.30517823555E+03  0.00000000000E+00 0. -1.
         -1   -1    0    0    0  501 -0.00000000000E+00 -0.00000000000E+00 -0.97638955939E+02  0.97638955939E+02  0.00000000000E+00 0.  1.
         23    2    1    2    0    0 -0.22447482560E+02 -0.10827448014E+03  0.28997111384E+02  0.16939546150E+03  0.12500694935E+03 0.  0.
          5    1    3    3  502    0  0.43690700691E+02 -0.14546870199E+02  0.29049340082E+02  0.54606092322E+02  0.41800000000E+01 0. -1.
         -5    1    3    3    0  502 -0.66138183250E+02 -0.93727609943E+02 -0.52228698741E-01  0.11478936918E+03  0.41800000000E+01 0. -1.
        -11    1    1    2    0    0 -0.31093595514E+02  0.74880950431E+02  0.13238434807E+03  0.15524040722E+03  0.00000000000E+00 0.  1.
         11    1    1    2    0    0  0.53541078074E+02  0.33393529711E+02  0.46157820158E+02  0.78181322767E+02  0.00000000000E+00 0. -1.
</event>
<event>
 7    1  0.6473813E-006  0.1030731E+03  0.7561462E-02  0.1273963E+00
         -2   -1    0    0    0  501 -0.00000000000E+00  0.00000000000E+00  0.20194041436E+02  0.20194041436E+02  0.00000000000E+00 0.  1.
          2   -1    0    0  501    0  0.00000000000E+00 -0.00000000000E+00 -0.86436613225E+03  0.86436613225E+03  0.00000000000E+00 0. -1.
         23    2    1    2    0    0 -0.23554382039E+02  0.67890696137E+02 -0.38997180264E+03  0.41579998896E+03  0.12509064086E+03 0.  0.
          5    1    3    3  502    0  0.21799076698E+02  0.25412197084E+02 -0.32140190546E+03  0.32316812457E+03  0.41800000000E+01 0. -1.
         -5    1    3    3    0  502 -0.45353458737E+02  0.42478499054E+02 -0.68569897178E+02  0.92631864390E+02  0.41800000000E+01 0. -1.
        -11    1    1    2    0    0 -0.20176776743E+02 -0.62963211705E+02 -0.34010159288E+03  0.34646870252E+03  0.00000000000E+00 0. -1.
         11    1    1    2    0    0  0.43731158782E+02 -0.49274844323E+01 -0.11409869530E+03  0.12229148221E+03  0.00000000000E+00 0.  1.
</event>
<event>
 7    1  0.6473813E-006  0.9445521E+02  0.7561462E-02  0.1292408E+00
         -1   -1    0    0    0  501 -0.00000000000E+00  0.00000000000E+00  0.20608603020E+02  0.20608603020E+02  0.00000000000E+00 0.  1.
          1   -1    0    0  501    0  0.00000000000E+00 -0.00000000000E+00 -0.72527542729E+03  0.72527542729E+03  0.00000000000E+00 0. -1.
         23    2    1    2    0    0  0.54819997962E+02 -0.11559781113E+02 -0.35824326218E+03  0.38356848873E+03  0.12509072682E+03 0.  0.
          5    1    3    3  502    0  0.44809109026E+02  0.20380394294E+02 -0.40065570769E+02  0.63607696738E+02  0.41800000000E+01 0. -1.
         -5    1    3    3    0  502  0.10010888936E+02 -0.31940175406E+02 -0.31817769141E+03  0.31996079200E+03  0.41800000000E+01 0. -1.
        -11    1    1    2    0    0 -0.59030899960E+01  0.45727285001E+02 -0.16580893793E+03  0.17210007252E+03  0.00000000000E+00 0.  1.
         11    1    1    2    0    0 -0.48916907966E+02 -0.34167503889E+02 -0.18061462416E+03  0.19021546905E+03  0.00000000000E+00 0. -1.
</event>
<event>
 7    1  0.6473813E-006  0.1828186E+03  0.7561462E-02  0.1165103E+00
         -2   -1    0    0    0  501 -0.00000000000E+00  0.00000000000E+00  0.17486917877E+03  0.17486917877E+03  0.00000000000E+00 0.  1.
          2   -1    0    0  501    0  0.00000000000E+00 -0.00000000000E+00 -0.30568959880E+03  0.30568959880E+03  0.00000000000E+00 0. -1.
         23    2    1    2    0    0  0.51460507356E+02 -0.14853442293E+03  0.67187036919E+02  0.21182926500E+03  0.12508749325E+03 0.  0.
          5    1    3    3  502    0  0.61896134265E+02 -0.18371357514E+02 -0.47144388426E+00  0.64701876891E+02  0.41800000000E+01 0.  1.
         -5    1    3    3    0  502 -0.10435626909E+02 -0.13016306541E+03  0.67658480803E+02  0.14712738811E+03  0.41800000000E+01 0.  1.
        -11    1    1    2    0    0  0.14166040475E+02  0.49478299196E+02 -0.21105688197E+02  0.55625793193E+02  0.00000000000E+00 0.  1.
         11    1    1    2    0    0 -0.65626547831E+02  0.99056123732E+02 -0.17690176875E+03  0.21310371938E+03  0.00000000000E+00 0. -1.
</event>
<event>
 7    1  0.6473813E-006  0.1146554E+03  0.7561462E-02  0.1252184E+00
          1   -1    0    0  501    0  0.00000000000E+00  0.00000000000E+00  0.25037115937E+03  0.25037115937E+03  0.00000000000E+00 0. -1.
         -1   -1    0    0    0  501 -0.00000000000E+00 -0.00000000000E+00 -0.83287127659E+02  0.83287127659E+02  0.00000000000E+00 0.  1.
         23    2    1    2    0    0  0.63990402414E+02  0.45756423982E+02  0.28079467453E+02  0.15040872155E+03  0.12508359241E+03 0.  0.
          5    1    3    3  502    0 -0.34592887548E+02  0.33487004178E+02  0.85782274799E+01  0.49082641580E+02  0.41800000000E+01 0. -1.
         -5    1    3    3    0  502  0.98583289962E+02  0.12269419803E+02  0.19501239974E+02  0.10132607997E+03  0.41800000000E+01 0. -1.
        -11    1    1    2    0    0 -0.13757685552E+02 -0.22088220623E+02 -0.70789868811E+01  0.26968045114E+02  0.00000000000E+00 0.  1.
         11    1    1    2    0    0 -0.50232716862E+02 -0.23668203359E+02  0.14608355114E+03  0.15628152036E+03  0.00000000000E+00 0. -1.
</event>
<event>
 7    1  0.6473813E-006  0.1055327E+03  0.7561462E-02  0.1269074E+00
          1   -1    0    0  501    0  0.00000000000E+00  0.00000000000E+00  0.59487507352E+03  0.59487507352E+03  0.00000000000E+00 0. -1.
         -1   -1    0    0    0  501 -0.00000000000E+00 -0.00000000000E+00 -0.29553231358E+02  0.29553231358E+02  0.00000000000E+00 0.  1.
         23    2    1    2    0    0  0.15179428847E+02 -0.72461850582E+02  0.32837430484E+03  0.35910636456E+03  0.12508621881E+03 0.  0.
          5    1    3    3  502    0 -0.29108551348E+02 -0.62246615015E+02  0.29404000277E+03  0.30199162980E+03  0.41800000000E+01 0.  1.
         -5    1    3    3    0  502  0.44287980195E+02 -0.10215235567E+02  0.34334302073E+02  0.57114734756E+02  0.41800000000E+01 0.  1.
        -11    1    1    2    0    0  0.12039743254E+02 -0.60562755323E+01 -0.76824561309E+00  0.13499040420E+02  0.00000000000E+00 0.  1.
         11    1    1    2    0    0 -0.27219172101E+02  0.78518126114E+02  0.23771578293E+03  0.25182289990E+03  0.00000000000E+00 0. -1.
</event>
<event>
 7    1  0.6473813E-006  0.2797699E+03  0.7561462E-02  0.1095815E+00
         -1   -1    0    0    0  501 -0.00000000000E+00  0.00000000000E+00  0.37165747569E+03  0.37165747569E+03  0.00000000000E+00 0.  1.
          1   -1    0    0  501    0  0.00000000000E+00 -0.00000000000E+00 -0.23125203255E+03  0.23125203255E+03  0.00000000000E+00 0. -1.
         23    2    1    2    0    0 -0.24783656620E+03  0.10182732644E+03  0.11933242273E+03  0.31887226440E+03  0.12509007127E+03 0.  0.
          5    1    3    3  502    0  0.76701429829E+01  0.22326792104E+02  0.26186590971E+02  0.35503896768E+02  0.41800000000E+01 0. -1.
         -5    1    3    3    0  502 -0.25550670919E+03  0.79500534336E+02  0.93145831761E+02  0.28336836763E+03  0.41800000000E+01 0. -1.
        -11    1    1    2    0    0  0.17562151755E+03 -0.71512393214E+02  0.56808544833E+02  0.19794986885E+03  0.00000000000E+00 0.  1.
         11    1    1    2    0    0  0.72215048649E+02 -0.30314933226E+02 -0.35735524429E+02  0.86087374998E+02  0.00000000000E+00 0. -1.
</event>
<event>
 7    1  0.6473813E-006  0.1923347E+03  0.7561462E-02  0.1156372E+00
         -1   -1    0    0    0  501 -0.00000000000E+00  0.00000000000E+00  0.14264953344E+04  0.14264953344E+04  0.00000000000E+00 0.  1.
          1   -1    0    0  501    0  0.00000000000E+00 -0.00000000000E+00 -0.35477368348E+02  0.35477368348E+02  0.00000000000E+00 0. -1.
         23    2    1    2    0    0  0.12563044527E+03  0.12185647516E+03  0.10263561947E+04  0.10486592112E+04  0.12508834333E+03 0.  0.
          5    1    3    3  502    0  0.24929244966E+02  0.96805605410E+02  0.33748373105E+03  0.35200217843E+03  0.41800000000E+01 0. -1.
         -5    1    3    3    0  502  0.10070120030E+03  0.25050869748E+02  0.68887246361E+03  0.69665703279E+03  0.41800000000E+01 0. -1.
        -11    1    1    2    0    0 -0.75944013046E+02 -0.42199904785E+02  0.25259419643E+03  0.26711823815E+03  0.00000000000E+00 0.  1.
         11    1    1    2    0    0 -0.49686432222E+02 -0.79656570372E+02  0.11206757491E+03  0.14619525333E+03  0.00000000000E+00 0. -1.
</event>
<event>
 7    1  0.6473813E-006  0.9421567E+02  0.7561462E-02  0.1292952E+00
          2   -1    0    0  501    0  0.00000000000E+00  0.00000000000E+00  0.29633565236E+03  0.29633565236E+03  0.00000000000E+00 0. -1.
         -2   -1    0    0    0  501 -0.00000000000E+00 -0.00000000000E+00 -0.42352619041E+02  0.42352619041E+02  0.00000000000E+00 0.  1.
         23    2    1    2    0    0  0.28065644415E+02 -0.89514682681E+01  0.13236295215E+03  0.18448954252E+03  0.12509448835E+03 0.  0.
          5    1    3    3  502    0 -0.25699057567E+02 -0.28114722579E+02 -0.20767124601E+01  0.38375308731E+02  0.41800000000E+01 0.  1.
         -5    1    3    3    0  502  0.53764701983E+02  0.19163254311E+02  0.13443966461E+03  0.14611423378E+03  0.41800000000E+01 0.  1.
        -11    1    1    2    0    0  0.31391441886E+02  0.11339123292E+02  0.59196395302E+02  0.67957424595E+02  0.00000000000E+00 0.  1.
         11    1    1    2    0    0 -0.59457086301E+02 -0.23876550243E+01  0.62423685868E+02  0.86241304288E+02  0.00000000000E+00 0. -1.
</event>
<event>
 7    1  0.6473813E-006  0.2144255E+03  0.7561462E-02  0.1138109E+00
          1   -1    0    0  501    0  0.00000000000E+00  0.00000000000E+00  0.18350163644E+03  0.18350163644E+03  0.00000000000E+00 0. -1.
         -1   -1    0    0    0  501 -0.00000000000E+00 -0.00000000000E+00 -0.35949650334E+03  0.35949650334E+03  0.00000000000E+00 0.  1.
         23    2    1    2    0    0 -0.70004070204E+01  0.20576111846E+03 -0.21040639218E+03  0.31518095967E+03  0.11261236125E+03 0.  0.
          5    1    3    3  502    0 -0.40587445437E+02  0.56707698679E+02 -0.11634848154E+03  0.13571125736E+03  0.41800000000E+01 0. -1.
         -5    1    3    3    0  502  0.33587038417E+02  0.14905341978E+03 -0.94057910638E+02  0.17946970232E+03  0.41800000000E+01 0.  1.
        -11    1    1    2    0    0 -0.21769297133E+01 -0.14670007399E+02  0.33354363406E+02  0.36502899861E+02  0.00000000000E+00 0.  1.
         11    1    1    2    0    0  0.91773367337E+01 -0.19109111106E+03  0.10571618689E+01  0.19131428025E+03  0.00000000000E+00 0. -1.
</event>
<event>
 7    1  0.6473813E-006  0.1252415E+03  0.7561462E-02  0.1234692E+00
          1   -1    0    0  501    0  0.00000000000E+00  0.00000000000E+00  0.97868320512E+02  0.97868320512E+02  0.00000000000E+00 0. -1.
         -1   -1    0    0    0  501 -0.00000000000E+00 -0.00000000000E+00 -0.24479566629E+03  0.24479566629E+03  0.00000000000E+00 0.  1.
         23    2    1    2    0    0 -0.50033979133E+02  0.87150954173E+02 -0.13023080957E+03  0.20665449602E+03  0.12508928445E+03 0.  0.
          5    1    3    3  502    0  0.50311124703E+01  0.81740119856E+02 -0.21798354312E+02  0.84849277767E+02  0.41800000000E+01 0. -1.
         -5    1    3    3    0  502 -0.55065091603E+02  0.54108343171E+01 -0.10843245526E+03  0.12180521825E+03  0.41800000000E+01 0. -1.
        -11    1    1    2    0    0  0.64717607086E+01 -0.62710545929E+02 -0.46051804680E+02  0.78072177961E+02  0.00000000000E+00 0.  1.
         11    1    1    2    0    0  0.43562218424E+02 -0.24440408244E+02  0.29355268473E+02  0.57937312816E+02  0.00000000000E+00 0. -1.
</event>
<event>
 7    1  0.6473813E-006  0.1601674E+03  0.7561462E-02  0.1188508E+00
          1   -1    0    0  501    0  0.00000000000E+00  0.00000000000E+00  0.60633219700E+03  0.60633219700E+03  0.00000000000E+00 0. -1.
         -1   -1    0    0    0  501 -0.00000000000E+00 -0.00000000000E+00 -0.46790101383E+02  0.46790101383E+02  0.00000000000E+00 0.  1.
         23    2    1    2    0    0  0.11045635904E+03  0.65759710916E+02  0.27798491439E+03  0.33082890250E+03  0.12508878154E+03 0.  0.
          5    1    3    3  502    0  0.14453721906E+02 -0.30338826085E+02  0.20244745781E+02  0.39454740867E+02  0.41800000000E+01 0.  1.
         -5    1    3    3    0  502  0.96002637137E+02  0.96098537001E+02  0.25774016861E+03  0.29137416163E+03  0.41800000000E+01 0.  1.
        -11    1    1    2    0    0 -0.45352562959E+02  0.14138538344E+02  0.13508551295E+03  0.14319514323E+03  0.00000000000E+00 0.  1.
         11    1    1    2    0    0 -0.65103796084E+02 -0.79898249260E+02  0.14647166827E+03  0.17909825266E+03  0.00000000000E+00 0. -1.
</event>
<event>
 7    1  0.6473813E-006  0.1112673E+03  0.7561462E-02  0.1258241E+00
          2   -1    0    0  501    0  0.00000000000E+00  0.00000000000E+00  0.25466656651E+03  0.25466656651E+03  0.00000000000E+00 0. -1.
         -2   -1    0    0    0  501 -0.00000000000E+00 -0.00000000000E+00 -0.54842242263E+02  0.54842242263E+02  0.00000000000E+00 0.  1.
         23    2    1    2    0    0  0.40962472727E+02  0.20567023653E+02  0.97662854022E+02  0.16518623452E+03  0.12509009707E+03 0.  0.
          5    1    3    3  502    0  0.45635124607E+02 -0.46779286284E+02  0.44837146850E+02  0.79364402352E+02  0.41800000000E+01 0. -1.
         -5    1    3    3    0  502 -0.46726518802E+01  0.67346309937E+02  0.52825707173E+02  0.85821832164E+02  0.41800000000E+01 0. -1.
        -11    1    1    2    0    0 -0.34155791871E+02  0.25638341583E+02  0.14689966397E+02  0.45163456357E+02  0.00000000000E+00 0.  1.
         11    1    1    2    0    0 -0.68066808559E+01 -0.46205365235E+02  0.87471503831E+02  0.99159117903E+02  0.00000000000E+00 0. -1.
</event>
<event>
 7    1  0.6473813E-006  0.1153483E+03  0.7561462E-02  0.1250974E+00
          3   -1    0    0  501    0  0.00000000000E+00  0.00000000000E+00  0.47636179213E+03  0.47636179213E+03  0.00000000000E+00 0. -1.
         -3   -1    0    0    0  501 -0.00000000000E+00 -0.00000000000E+00 -0.46063134495E+02  0.46063134495E+02  0.00000000000E+00 0.  1.
         23    2    1    2    0    0 -0.91974840806E+02  0.40281742657E+02  0.21376765999E+03  0.26725699064E+03  0.12509075287E+03 0.  0.
          5    1    3    3  502    0 -0.70819301594E+02  0.33721995182E+02  0.22762563846E+03  0.24079752931E+03  0.41800000000E+01 0. -1.
         -5    1    3    3    0  502 -0.21155539212E+02  0.65597474742E+01 -0.13857978472E+02  0.26459461325E+02  0.41800000000E+01 0. -1.
        -11    1    1    2    0    0  0.10316438594E+01  0.20304360221E+02  0.12926854149E+02  0.24092216403E+02  0.00000000000E+00 0.  1.
         11    1    1    2    0    0  0.90943196947E+02 -0.60586102878E+02  0.20360414349E+03  0.23107571958E+03  0.00000000000E+00 0. -1.
</event>
<event>
 7    1  0.6473813E-006  0.2371579E+03  0.7561462E-02  0.1121701E+00
         -2   -1    0    0    0  501 -0.00000000000E+00  0.00000000000E+00  0.68014965912E+02  0.68014965912E+02  0.00000000000E+00 0.  1.
          2   -1    0    0  501    0  0.00000000000E+00 -0.00000000000E+00 -0.94755686451E+03  0.94755686451E+03  0.00000000000E+00 0. -1.
         23    2    1    2    0    0  0.10830771535E+03 -0.19297042208E+03 -0.33524774817E+03  0.42072206402E+03  0.12509139659E+03 0.  0.
          5    1    3    3  502    0  0.45911951128E+02  0.35397242992E+01 -0.43761527776E+02  0.63663023944E+02  0.41800000000E+01 0.  1.
         -5    1    3    3    0  502  0.62395764219E+02 -0.19651014638E+03 -0.29148622040E+03  0.35705904008E+03  0.41800000000E+01 0.  1.
        -11    1    1    2    0    0 -0.32431195561E+02  0.73383968908E+02 -0.31738844736E+03  0.32737198392E+03  0.00000000000E+00 0.  1.
         11    1    1    2    0    0 -0.75876519786E+02  0.11958645317E+03 -0.22690570307E+03  0.26747778248E+03  0.00000000000E+00 0. -1.
</event>
<event>
 7    1  0.6473813E-006  0.1503574E+03  0.7561462E-02  0.1200034E+00
         -1   -1    0    0    0  501 -0.00000000000E+00  0.00000000000E+00  0.91142070259E+02  0.91142070259E+02  0.00000000000E+00 0.  1.
          1   -1    0    0  501    0  0.00000000000E+00 -0.00000000000E+00 -0.36876742196E+03  0.36876742196E+03  0.00000000000E+00 0. -1.
         23    2    1    2    0    0  0.67064668976E+02  0.10301807182E+03 -0.43965370054E+02  0.18080593078E+03  0.12508971939E+03 0.  0.
          5    1    3    3  502    0  0.76991164865E+02  0.11849611379E+03 -0.97138071064E+01  0.14170673554E+03  0.41800000000E+01 0. -1.
         -5    1    3    3    0  502 -0.99264958883E+01 -0.15478041971E+02 -0.34251562948E+02  0.39099195238E+02  0.41800000000E+01 0. -1.
        -11    1    1    2    0    0 -0.75261848217E+01 -0.73764837582E+02 -0.67811924780E+02  0.10048060442E+03  0.00000000000E+00 0.  1.
         11    1    1    2    0    0 -0.59538484155E+02 -0.29253234233E+02 -0.16584805686E+03  0.17862295702E+03  0.00000000000E+00 0. -1.
</event>
<event>
 7    1  0.6473813E-006  0.1053422E+03  0.7561462E-02  0.1269447E+00
          2   -1    0    0  501    0  0.00000000000E+00  0.00000000000E+00  0.43820377960E+03  0.43820377960E+03  0.00000000000E+00 0. -1.
         -2   -1    0    0    0  501 -0.00000000000E+00 -0.00000000000E+00 -0.37683034068E+02  0.37683034068E+02  0.00000000000E+00 0.  1.
         23    2    1    2    0    0 -0.41255460775E+02  0.45959867980E+02  0.16676838164E+03  0.21742513691E+03  0.12509066526E+03 0.  0.
          5    1    3    3  502    0 -0.43319858429E+02  0.85808411395E+02  0.13725408557E+03  0.16761816729E+03  0.41800000000E+01 0.  1.
         -5    1    3    3    0  502  0.20643976534E+01 -0.39848543415E+02  0.29514296073E+02  0.49806969619E+02  0.41800000000E+01 0.  1.
        -11    1    1    2    0    0  0.37716668224E+02 -0.11107380136E+02  0.24564776857E+02  0.46361074377E+02  0.00000000000E+00 0.  1.
         11    1    1    2    0    0  0.35387925510E+01 -0.34852487844E+02  0.20918758703E+03  0.21210060237E+03  0.00000000000E+00 0. -1.
</event>
<event>
 7    1  0.6473813E-006  0.9250979E+02  0.7561462E-02  0.1296885E+00
          2   -1    0    0  501    0  0.00000000000E+00  0.00000000000E+00  0.11204257932E+03  0.11204257932E+03  0.00000000000E+00 0. -1.
         -2   -1    0    0    0  501 -0.00000000000E+00 -0.00000000000E+00 -0.14960820418E+03  0.14960820418E+03  0.00000000000E+00 0.  1.
         23    2    1    2    0    0  0.89082674103E+01  0.68607813795E+02 -0.34663001641E+02  0.14707625674E+03  0.12507402717E+03 0.  0.
          5    1    3    3  502    0  0.78415783957E+01 -0.41862209525E+01  0.40901215962E+02  0.42064196946E+02  0.41800000000E+01 0. -1.
         -5    1    3    3    0  502  0.10666890146E+01  0.72794034747E+02 -0.75564217603E+02  0.10501205979E+03  0.41800000000E+01 0. -1.
        -11    1    1    2    0    0 -0.41149323209E+02 -0.51028623810E+02 -0.26736754270E+02  0.70795771607E+02  0.00000000000E+00 0.  1.
         11    1    1    2    0    0  0.32241055798E+02 -0.17579189985E+02  0.23834131050E+02  0.43778755149E+02  0.00000000000E+00 0. -1.
</event>
<event>
 7    1  0.6473813E-006  0.1045198E+03  0.7561462E-02  0.1271069E+00
          1   -1    0    0  501    0  0.00000000000E+00  0.00000000000E+00  0.73870671214E+03  0.73870671214E+03  0.00000000000E+00 0. -1.
         -1   -1    0    0    0  501 -0.00000000000E+00 -0.00000000000E+00 -0.20019899553E+02  0.20019899553E+02  0.00000000000E+00 0.  1.
         23    2    1    2    0    0  0.26776387006E+02  0.35925851265E+02  0.31101589173E+03  0.33820994555E+03  0.12508973048E+03 0.  0.
          5    1    3    3  502    0 -0.29169456331E+02  0.43047933509E+02  0.24847437639E+03  0.25389164989E+03  0.41800000000E+01 0. -1.
         -5    1    3    3    0  502  0.55945843336E+02 -0.71220822439E+01  0.62541515337E+02  0.84318295658E+02  0.41800000000E+01 0. -1.
        -11    1    1    2    0    0 -0.43403628633E+02  0.15643227843E+02  0.23708392138E+03  0.24153130508E+03  0.00000000000E+00 0. -1.
         11    1    1    2    0    0  0.16627241627E+02 -0.51569079108E+02  0.17058699948E+03  0.17898536106E+03  0.00000000000E+00 0.  1.
</event>
<event>
 7    1  0.6473813E-006  0.1398229E+03  0.7561462E-02  0.1213567E+00
          1   -1    0    0  501    0  0.00000000000E+00  0.00000000000E+00  0.33122912020E+03  0.33122912020E+03  0.00000000000E+00 0. -1.
         -1   -1    0    0    0  501 -0.00000000000E+00 -0.00000000000E+00 -0.62582422731E+02  0.62582422731E+02  0.00000000000E+00 0.  1.
         23    2    1    2    0    0  0.60874735769E+02 -0.67431288075E+02  0.11295885990E+03  0.19146918529E+03  0.12509209735E+03 0.  0.
          5    1    3    3  502    0  0.47712095991E+02  0.28299584847E+02  0.57360127266E+02  0.79905989802E+02  0.41800000000E+01 0. -1.
         -5    1    3    3    0  502  0.13162639778E+02 -0.95730872922E+02  0.55598732635E+02  0.11156319549E+03  0.41800000000E+01 0. -1.
        -11    1    1    2    0    0 -0.42907461641E+02 -0.13036184828E+02  0.38786026839E+02  0.59290372383E+02  0.00000000000E+00 0.  1.
         11    1    1    2    0    0 -0.17967274128E+02  0.80467472903E+02  0.11690181073E+03  0.14305198526E+03  0.00000000000E+00 0. -1.
</event>
<event>
 7    1  0.6473813E-006  0.1070660E+03  0.7561462E-02  0.1266102E+00
          1   -1    0    0  501    0  0.00000000000E+00  0.00000000000E+00  0.33257385943E+02  0.33257385943E+02  0.00000000000E+00 0.  1.
         -1   -1    0    0    0  501 -0.00000000000E+00 -0.00000000000E+00 -0.51502212911E+03  0.51502212911E+03  0.00000000000E+00 0. -1.
         23    2    1    2    0    0 -0.30942833396E+02  0.24702702636E+02 -0.39441677873E+03  0.41566844023E+03  0.12509186385E+03 0.  0.
          5    1    3    3  502    0 -0.38836809416E+02 -0.45720252900E+02 -0.18845482643E+03  0.19781641311E+03  0.41800000000E+01 0.  1.
         -5    1    3    3    0  502  0.78939760194E+01  0.70422955536E+02 -0.20596195230E+03  0.21785202711E+03  0.41800000000E+01 0.  1.
        -11    1    1    2    0    0  0.27708538553E+02 -0.50183835028E+02 -0.90087457995E+02  0.10677982251E+03  0.00000000000E+00 0.  1.
         11    1    1    2    0    0  0.32342948428E+01  0.25481132392E+02  0.27394935624E+01  0.25831252314E+02  0.00000000000E+00 0. -1.
</event>
<event>
 7    1  0.1106082E-005  0.1804376E+03  0.7561462E-02  0.1167380E+00
          1   -1    0    0  501    0  0.00000000000E+00  0.00000000000E+00  0.53654884269E+03  0.53654884269E+03  0.00000000000E+00 0. -1.
         -1   -1    0    0    0  501 -0.00000000000E+00 -0.00000000000E+00 -0.76071728586E+02  0.76071728586E+02  0.00000000000E+00 0.  1.
         23    2    1    2    0    0  0.12816439781E+03 -0.11036745930E+03  0.20733877471E+03  0.29537064548E+03  0.12508941514E+03 0.  0.
          5    1    3    3  502    0 -0.10182769583E+02 -0.16330059722E+02 -0.91792372526E+01  0.21727642381E+02  0.41800000000E+01 0.  1.
         -5    1    3    3    0  502  0.13834716739E+03 -0.94037399579E+02  0.21651801196E+03  0.27364300310E+03  0.41800000000E+01 0.  1.
        -11    1    1    2    0    0 -0.50396129636E+02  0.18983684282E+02  0.24772928575E+02  0.59277720447E+02  0.00000000000E+00 0.  1.
         11    1    1    2    0    0 -0.77768268170E+02  0.91383775019E+02  0.22836541083E+03  0.25797220535E+03  0.00000000000E+00 0. -1.
</event>
<event>
 7    1  0.6473813E-006  0.1453757E+03  0.7561462E-02  0.1206273E+00
         -2   -1    0    0    0  501 -0.00000000000E+00  0.00000000000E+00  0.63566948600E+02  0.63566948600E+02  0.00000000000E+00 0.  1.
          2   -1    0    0  501    0  0.00000000000E+00 -0.00000000000E+00 -0.46864855673E+03  0.46864855673E+03  0.00000000000E+00 0. -1.
         23    2    1    2    0    0 -0.90266148880E+02  0.58388135971E+02 -0.85240500159E+02  0.18566458933E+03  0.12509294467E+03 0.  0.
          5    1    3    3  502    0 -0.77706661257E+02 -0.24044336863E+02 -0.41516641616E+02  0.91419687540E+02  0.41800000000E+01 0.  1.
         -5    1    3    3    0  502 -0.12559487624E+02  0.82432472834E+02 -0.43723858544E+02  0.94244901787E+02  0.41800000000E+01 0.  1.
        -11    1    1    2    0    0  0.76726080606E+02 -0.72991628988E+02 -0.21304077411E+03  0.23790973242E+03  0.00000000000E+00 0.  1.
         11    1    1    2    0    0  0.13540068275E+02  0.14603493017E+02 -0.10680033387E+03  0.10864118359E+03  0.00000000000E+00 0. -1.
</event>
<event>
 7    1  0.6473813E-006  0.9620904E+02  0.7561462E-02  0.1288476E+00
         -2   -1    0    0    0  501 -0.00000000000E+00  0.00000000000E+00  0.99910885615E+02  0.99910885615E+02  0.00000000000E+00 0.  1.
          2   -1    0    0  501    0  0.00000000000E+00 -0.00000000000E+00 -0.12064321461E+03  0.12064321461E+03  0.00000000000E+00 0. -1.
         23    2    1    2    0    0  0.97164819553E+01 -0.90550108175E+01  0.51371423685E+01  0.12471679854E+03  0.12390111526E+03 0.  0.
          5    1    3    3  502    0  0.60060219704E+02 -0.14905596452E+02  0.29086778170E+02  0.68504889320E+02  0.41800000000E+01 0. -1.
         -5    1    3    3    0  502 -0.50343737748E+02  0.58505856343E+01 -0.23949635802E+02  0.56211909217E+02  0.41800000000E+01 0.  1.
        -11    1    1    2    0    0 -0.40224921069E+02  0.22623602232E+02  0.95848487783E+01  0.47135347448E+02  0.00000000000E+00 0.  1.
         11    1    1    2    0    0  0.30508439114E+02 -0.13568591415E+02 -0.35454320146E+02  0.48701954243E+02  0.00000000000E+00 0. -1.
</event>
<event>
 7    1  0.6473813E-006  0.1228135E+03  0.7561462E-02  0.1238527E+00
         -1   -1    0    0    0  501 -0.00000000000E+00  0.00000000000E+00  0.46843150956E+02  0.46843150956E+02  0.00000000000E+00 0.  1.
          1   -1    0    0  501    0  0.00000000000E+00 -0.00000000000E+00 -0.33757032456E+03  0.33757032456E+03  0.00000000000E+00 0. -1.
         23    2    1    2    0    0 -0.19286251267E+01  0.59958617077E+02 -0.18703422083E+03  0.23286762960E+03  0.12508708086E+03 0.  0.
          5    1    3    3  502    0 -0.51007876046E+01 -0.39023639036E+02 -0.55576433048E+02  0.68228108197E+02  0.41800000000E+01 0. -1.
         -5    1    3    3    0  502  0.31721624779E+01  0.98982256113E+02 -0.13145778778E+03  0.16463952140E+03  0.41800000000E+01 0. -1.
        -11    1    1    2    0    0 -0.33053179929E+02 -0.63682462090E+02 -0.50374048346E+02  0.87667060108E+02  0.00000000000E+00 0.  1.
         11    1    1    2    0    0  0.34981805056E+02  0.37238450125E+01 -0.53318904430E+02  0.63878785807E+02  0.00000000000E+00 0. -1.
</event>
<event>
 7    1  0.6473813E-006  0.1016086E+03  0.7561462E-02  0.1276949E+00
          4   -1    0    0  501    0  0.00000000000E+00  0.00000000000E+00  0.25136129620E+03  0.25136129620E+03  0.00000000000E+00 0. -1.
         -4   -1    0    0    0  501 -0.00000000000E+00 -0.00000000000E+00 -0.48014285997E+02  0.48014285997E+02  0.00000000000E+00 0.  1.
         23    2    1    2    0    0  0.27398769896E+01 -0.33974245584E+01  0.90716280205E+02  0.15458301547E+03  0.12508963089E+03 0.  0.
          5    1    3    3  502    0  0.62389972759E+02 -0.10311997515E+02  0.34194192954E+02  0.72010841026E+02  0.41800000000E+01 0. -1.
         -5    1    3    3    0  502 -0.59650095769E+02  0.69145729567E+01  0.56522087252E+02  0.82572174440E+02  0.41800000000E+01 0. -1.
        -11    1    1    2    0    0 -0.41136533620E+02  0.46031135269E+00  0.22751720079E+02  0.47011350240E+02  0.00000000000E+00 0.  1.
         11    1    1    2    0    0  0.38396656631E+02  0.29371132057E+01  0.89879009916E+02  0.97781216488E+02  0.00000000000E+00 0. -1.
</event>
<event>
 7    1  0.6473813E-006  0.1034170E+03  0.7561462E-02  0.1273270E+00
          2   -1    0    0  501    0  0.00000000000E+00  0.00000000000E+00  0.25985183206E+03  0.25985183206E+03  0.00000000000E+00 0. -1.
         -2   -1    0    0    0  501 -0.00000000000E+00 -0.00000000000E+00 -0.52079326865E+02  0.52079326865E+02  0.00000000000E+00 0.  1.
         23    2    1    2    0    0 -0.21859237152E+02  0.37226459768E+02  0.11297251861E+03  0.17399447713E+03  0.12509057741E+03 0.  0.
          5    1    3    3  502    0 -0.47716437661E+02  0.56903979007E+02  0.11933903929E+03  0.14062076642E+03  0.41800000000E+01 0. -1.
         -5    1    3    3    0  502  0.25857200509E+02 -0.19677519239E+02 -0.63665206732E+01  0.33373710717E+02  0.41800000000E+01 0. -1.
        -11    1    1    2    0    0  0.46090307398E+02  0.94984964347E+01  0.51674641616E+02  0.69891390433E+02  0.00000000000E+00 0. -1.
         11    1    1    2    0    0 -0.24231070246E+02 -0.46724956203E+02  0.43125344963E+02  0.68045291355E+02  0.00000000000E+00 0.  1.
</event>
<event>
 7    1  0.6473813E-006  0.7727666E+02  0.7561462E-02  0.1336962E+00
         -1   -1    0    0    0  501 -0.00000000000E+00  0.00000000000E+00  0.93640735194E+02  0.93640735194E+02  0.00000000000E+00 0.  1.
          1   -1    0    0  501    0  0.00000000000E+00 -0.00000000000E+00 -0.15278185469E+03  0.15278185469E+03  0.00000000000E+00 0. -1.
         23    2    1    2    0    0 -0.33828780007E+02 -0.10430462413E+02  0.58020539330E+01  0.13014040931E+03  0.12509868665E+03 0.  0.
          5    1    3    3  502    0 -0.57267046052E+02  0.23597843066E+02 -0.35546670117E+02  0.71536081227E+02  0.41800000000E+01 0. -1.
         -5    1    3    3    0  502  0.23438266045E+02 -0.34028305480E+02  0.41348724050E+02  0.58604328079E+02  0.41800000000E+01 0. -1.
        -11    1    1    2    0    0  0.19953332776E+02  0.24220701490E+02  0.14425620022E+02  0.34538042540E+02  0.00000000000E+00 0.  1.
         11    1    1    2    0    0  0.13875447232E+02 -0.13790239077E+02 -0.79368793449E+02  0.81744138035E+02  0.00000000000E+00 0. -1.
</event>
<event>
 7    1  0.6473813E-006  0.1052495E+03  0.7561462E-02  0.1269629E+00
          1   -1    0    0  501    0  0.00000000000E+00  0.00000000000E+00  0.12803564639E+03  0.12803564639E+03  0.00000000000E+00 0. -1.
         -1   -1    0    0    0  501 -0.00000000000E+00 -0.00000000000E+00 -0.19115692369E+03  0.19115692369E+03  0.00000000000E+00 0.  1.
         23    2    1    2    0    0 -0.18608449563E+02  0.43762239998E+02 -0.14254935664E+03  0.19002889575E+03  0.11631532185E+03 0.  0.
          5    1    3    3  502    0  0.26638954403E+02  0.61154465199E+02 -0.11780438701E+03  0.13544315599E+03  0.41800000000E+01 0.  1.
         -5    1    3    3    0  502 -0.45247403967E+02 -0.17392225200E+02 -0.24744969625E+02  0.54585739757E+02  0.41800000000E+01 0. -1.
        -11    1    1    2    0    0  0.11509123929E+02 -0.68403675553E+02  0.34591817221E+02  0.77512041525E+02  0.00000000000E+00 0. -1.
         11    1    1    2    0    0  0.70993256342E+01  0.24641435555E+02  0.44836262116E+02  0.51651632803E+02  0.00000000000E+00 0.  1.
</event>
<event>
 7    1  0.6473813E-006  0.9793581E+02  0.7561462E-02  0.1284698E+00
          2   -1    0    0  501    0  0.00000000000E+00  0.00000000000E+00  0.21426025870E+02  0.21426025870E+02  0.00000000000E+00 0. -1.
         -2   -1    0    0    0  501 -0.00000000000E+00 -0.00000000000E+00 -0.74409381753E+03  0.74409381753E+03  0.00000000000E+00 0.  1.
         23    2    1    2    0    0  0.11031908708E+02  0.59527095697E+02 -0.37371351696E+03  0.39871559130E+03  0.12508857601E+03 0.  0.
          5    1    3    3  502    0 -0.22858738235E+02  0.40315606486E+02 -0.34965533960E+03  0.35273814502E+03  0.41800000000E+01 0.  1.
         -5    1    3    3    0  502  0.33890646943E+02  0.19211489212E+02 -0.24058177360E+02  0.45977446273E+02  0.41800000000E+01 0.  1.
        -11    1    1    2    0    0 -0.50444610237E+02 -0.46611868418E+02 -0.17551756257E+03  0.18847742504E+03  0.00000000000E+00 0. -1.
         11    1    1    2    0    0  0.39412701529E+02 -0.12915227280E+02 -0.17343671213E+03  0.17832682707E+03  0.00000000000E+00 0.  1.
</event>
<event>
 7    1  0.6473813E-006  0.1567835E+03  0.7561462E-02  0.1192377E+00
         -2   -1    0    0    0  501 -0.00000000000E+00  0.00000000000E+00  0.55308027308E+03  0.55308027308E+03  0.00000000000E+00 0.  1.
          2   -1    0    0  501    0  0.00000000000E+00 -0.00000000000E+00 -0.54074314576E+02  0.54074314576E+02  0.00000000000E+00 0. -1.
         23    2    1    2    0    0  0.69610970665E+01 -0.13320560039E+03  0.27666022625E+03  0.33163412085E+03  0.12509244771E+03 0.  0.
          5    1    3    3  502    0  0.23454047321E+02  0.16285127649E+02  0.23838782836E+02  0.37430705115E+02  0.41800000000E+01 0. -1.
         -5    1    3    3    0  502 -0.16492950255E+02 -0.14949072804E+03  0.25282144341E+03  0.29420341573E+03  0.41800000000E+01 0. -1.
        -11    1    1    2    0    0 -0.15817439267E+01  0.11977489483E+03  0.22987371479E+03  0.25921121136E+03  0.00000000000E+00 0.  1.
         11    1    1    2    0    0 -0.53793531398E+01  0.13430705563E+02 -0.75279825342E+01  0.16309255445E+02  0.00000000000E+00 0. -1.
</event>
<event>
 6    1  0.6473813E-006  0.1616882E+03  0.7561462E-02  0.1186804E+00
          2   -1    0    0  501    0  0.00000000000E+00  0.00000000000E+00  0.13845014376E+03  0.13845014376E+03  0.00000000000E+00 0. -1.
         -2   -1    0    0    0  501 -0.00000000000E+00 -0.00000000000E+00 -0.73975456128E+03  0.73975456128E+03  0.00000000000E+00 0.  1.
          5    1    1    2  502    0 -0.58360334374E+02  0.11138825306E+03 -0.16198762343E+03  0.20511151624E+03  0.41800000000E+01 0. -1.
         -5    1    1    2    0  502 -0.31450772316E+02 -0.34593429772E+02 -0.50584722910E+03  0.50802042090E+03  0.41800000000E+01 0.  1.
        -11    1    1    2    0    0  0.19370417884E+02  0.21979894195E+02  0.79843165273E+01  0.30365739711E+02  0.00000000000E+00 0.  1.
         11    1    1    2    0    0  0.70440688807E+02 -0.98774717487E+02  0.58546118477E+02  0.13470702819E+03  0.00000000000E+00 0. -1.
</event>
<event>
 7    1  0.6473813E-006  0.1306921E+03  0.7561462E-02  0.1226432E+00
          3   -1    0    0  501    0  0.00000000000E+00  0.00000000000E+00  0.27674443251E+03  0.27674443251E+03  0.00000000000E+00 0. -1.
         -3   -1    0    0    0  501 -0.00000000000E+00 -0.00000000000E+00 -0.70901514608E+02  0.70901514608E+02  0.00000000000E+00 0.  1.
         23    2    1    2    0    0  0.79266223791E+02 -0.35341375164E+02  0.12976508287E+03  0.20004680790E+03  0.12509037368E+03 0.  0.
          5    1    3    3  502    0 -0.25269168403E+02 -0.16066313172E+02 -0.24673611417E+01  0.30335087964E+02  0.41800000000E+01 0.  1.
         -5    1    3    3    0  502  0.10453539219E+03 -0.19275061992E+02  0.13223244401E+03  0.16971171994E+03  0.41800000000E+01 0.  1.
        -11    1    1    2    0    0 -0.41656494668E+02 -0.28640763668E+02  0.42906072604E+02  0.66306017508E+02  0.00000000000E+00 0. -1.
         11    1    1    2    0    0 -0.37609729124E+02  0.63982138832E+02  0.33171762430E+02  0.81293121708E+02  0.00000000000E+00 0.  1.
</event>
<event>
 7    1  0.6473813E-006  0.1628507E+03  0.7561462E-02  0.1185515E+00
          2   -1    0    0  501    0  0.00000000000E+00  0.00000000000E+00  0.27355820334E+02  0.27355820334E+02  0.00000000000E+00 0. -1.
         -2   -1    0    0    0  501 -0.00000000000E+00 -0.00000000000E+00 -0.11030484886E+04  0.11030484886E+04  0.00000000000E+00 0.  1.
         23    2    1    2    0    0  0.12905684347E+03 -0.88649766650E+01 -0.72579168757E+03  0.74776731163E+03  0.12509245354E+03 0.  0.
          5    1    3    3  502    0  0.66424582814E+02  0.53550279050E+02 -0.26108724753E+03  0.27470689982E+03  0.41800000000E+01 0.  1.
         -5    1    3    3    0  502  0.62632260655E+02 -0.62415255715E+02 -0.46470444005E+03  0.47306041181E+03  0.41800000000E+01 0.  1.
        -11    1    1    2    0    0 -0.14009483964E+03  0.54453820743E+01 -0.29617741545E+03  0.32768472302E+03  0.00000000000E+00 0. -1.
         11    1    1    2    0    0  0.11037996168E+02  0.34195945907E+01 -0.53723565201E+02  0.54952274242E+02  0.00000000000E+00 0.  1.
</event>
<event>
 7    1  0.6473813E-006  0.9421472E+02  0.7561462E-02  0.1292955E+00
          2   -1    0    0  501    0  0.00000000000E+00  0.00000000000E+00  0.11959125224E+03  0.11959125224E+03  0.00000000000E+00 0. -1.
         -2   -1    0    0    0  501 -0.00000000000E+00 -0.00000000000E+00 -0.11482120812E+03  0.11482120812E+03  0.00000000000E+00 0.  1.
         23    2    1    2    0    0 -0.38382741003E+02  0.10353630574E+02  0.23250259308E+02  0.13330150201E+03  0.12509309896E+03 0.  0.
          5    1    3    3  502    0 -0.61534413614E+02 -0.26766631674E+02 -0.21492304651E+02  0.70585608938E+02  0.41800000000E+01 0. -1.
         -5    1    3    3    0  502  0.23151672611E+02  0.37120262249E+02  0.44742563959E+02  0.62715893072E+02  0.41800000000E+01 0. -1.
        -11    1    1    2    0    0  0.15565212987E+02  0.28336799667E+02 -0.39894447262E+02  0.51349946378E+02  0.00000000000E+00 0.  1.
         11    1    1    2    0    0  0.22817528016E+02 -0.38690430242E+02  0.21414232072E+02  0.49761011970E+02  0.00000000000E+00 0. -1.
</event>
<event>
 6    1  0.6473813E-006  0.9393107E+02  0.7561462E-02  0.1293602E+00
         -1   -1    0    0    0  501 -0.00000000000E+00  0.00000000000E+00  0.68032708280E+03  0.68032708280E+03  0.00000000000E+00 0.  1.
          1   -1    0    0  501    0  0.00000000000E+00 -0.00000000000E+00 -0.19865272279E+02  0.19865272279E+02  0.00000000000E+00 0. -1.
          5    1    1    2  502    0 -0.31370432636E+02 -0.48220144358E+02  0.73301928209E+02  0.93273423036E+02  0.41800000000E+01 0. -1.
         -5    1    1    2    0  502  0.35098995958E+02  0.15477231454E+02  0.33670072627E+03  0.33890461148E+03  0.41800000000E+01 0.  1.
        -11    1    1    2    0    0  0.37591654819E+02 -0.19522772351E+01  0.14159651521E+03  0.14651456248E+03  0.00000000000E+00 0.  1.
         11    1    1    2    0    0 -0.41320218141E+02  0.34695190139E+02  0.10886264083E+03  0.12149975808E+03  0.00000000000E+00 0. -1.
</event>
<event>
 7    1  0.6473813E-006  0.1089179E+03  0.7561462E-02  0.1262587E+00
          1   -1    0    0  501    0  0.00000000000E+00  0.00000000000E+00  0.53835122064E+02  0.53835122064E+02  0.00000000000E+00 0. -1.
         -1   -1    0    0    0  501 -0.00000000000E+00 -0.00000000000E+00 -0.28334240433E+03  0.28334240433E+03  0.00000000000E+00 0.  1.
         23    2    1    2    0    0  0.56447255693E+02 -0.15369732784E+02 -0.14406125182E+03  0.19956013236E+03  0.12509228910E+03 0.  0.
          5    1    3    3  502    0  0.89700987329E+02 -0.11544647152E+02 -0.13835865266E+03  0.16534852637E+03  0.41800000000E+01 0. -1.
         -5    1    3    3    0  502 -0.33253731636E+02 -0.38250856319E+01 -0.57025991593E+01  0.34211605998E+02  0.41800000000E+01 0. -1.
        -11    1    1    2    0    0  0.71650897012E+01 -0.19674575795E+02  0.50925166885E+01  0.21549041031E+02  0.00000000000E+00 0.  1.
         11    1    1    2    0    0 -0.63612345395E+02  0.35044308579E+02 -0.90538547139E+02  0.11606835300E+03  0.00000000000E+00 0. -1.
</event>
<event>
 7    1  0.6473813E-006  0.1181804E+03  0.7561462E-02  0.1246129E+00
          1   -1    0    0  501    0  0.00000000000E+00  0.00000000000E+00  0.52157608749E+03  0.52157608749E+03  0.00000000000E+00 0. -1.
         -1   -1    0    0    0  501 -0.00000000000E+00 -0.00000000000E+00 -0.43543092127E+02  0.43543092127E+02  0.00000000000E+00 0.  1.
         23    2    1    2    0    0  0.68370932214E+02  0.46109809969E+02  0.13693723267E+03  0.20297437369E+03  0.12508433848E+03 0.  0.
          5    1    3    3  502    0  0.74106330753E+01  0.52860603364E+02  0.13062981264E+03  0.14117641878E+03  0.41800000000E+01 0. -1.
         -5    1    3    3    0  502  0.60960299139E+02 -0.67507933946E+01  0.63074200335E+01  0.61797954902E+02  0.41800000000E+01 0. -1.
        -11    1    1    2    0    0  0.20665179517E+02 -0.19510324911E+02  0.69219109401E+02  0.74826382573E+02  0.00000000000E+00 0.  1.
         11    1    1    2    0    0 -0.89036111731E+02 -0.26599485058E+02  0.27187665329E+03  0.28731842336E+03  0.00000000000E+00 0. -1.
</event>
<event>
 7    1  0.6473813E-006  0.1490440E+03  0.7561462E-02  0.1201653E+00
         -1   -1    0    0    0  501 -0.00000000000E+00  0.00000000000E+00  0.20689896505E+02  0.20689896505E+02  0.00000000000E+00 0.  1.
          1   -1    0    0  501    0  0.00000000000E+00 -0.00000000000E+00 -0.12216089697E+04  0.12216089697E+04  0.00000000000E+00 0. -1.
         23    2    1    2    0    0  0.10962387691E+03 -0.37521032922E+02 -0.69180611718E+03  0.71250598580E+03  0.12507539222E+03 0.  0.
          5    1    3    3  502    0  0.85750887082E+02  0.23897728478E+02 -0.53490675900E+03  0.54227947526E+03  0.41800000000E+01 0. -1.
         -5    1    3    3    0  502  0.23872989825E+02 -0.61418761401E+02 -0.15689935818E+03  0.17022651054E+03  0.41800000000E+01 0. -1.
        -11    1    1    2    0    0 -0.20743875042E+02 -0.26319792558E+02 -0.75842080804E+02  0.82915987920E+02  0.00000000000E+00 0.  1.
         11    1    1    2    0    0 -0.88880001865E+02  0.63840825481E+02 -0.43327087526E+03  0.44687689253E+03  0.00000000000E+00 0. -1.
</event>
<event>
 7    1  0.6473813E-006  0.1196363E+03  0.7561462E-02  0.1243698E+00
          1   -1    0    0  501    0  0.00000000000E+00  0.00000000000E+00  0.39411049199E+03  0.39411049199E+03  0.00000000000E+00 0. -1.
         -1   -1    0    0    0  501 -0.00000000000E+00 -0.00000000000E+00 -0.51041240914E+02  0.51041240914E+02  0.00000000000E+00 0.  1.
         23    2    1    2    0    0 -0.67814588460E+02  0.55422425876E+02  0.18766678054E+03  0.24194385973E+03  0.12509015567E+03 0.  0.
          5    1    3    3  502    0  0.34119272067E+02  0.31401219950E+02  0.73106681172E+02  0.86673067170E+02  0.41800000000E+01 0. -1.
         -5    1    3    3    0  502 -0.10193386053E+03  0.24021205926E+02  0.11456009937E+03  0.15527079256E+03  0.41800000000E+01 0. -1.
        -11    1    1    2    0    0  0.31202563816E+02 -0.20684982502E+02  0.14743516491E+03  0.15211376118E+03  0.00000000000E+00 0. -1.
         11    1    1    2    0    0  0.36612024643E+02 -0.34737443374E+02  0.79673056266E+01  0.51094111985E+02  0.00000000000E+00 0.  1.
</event>
<event>
 7    1  0.6473813E-006  0.1352323E+03  0.7561462E-02  0.1219892E+00
         -2   -1    0    0    0  501 -0.00000000000E+00  0.00000000000E+00  0.29394283557E+02  0.29394283557E+02  0.00000000000E+00 0.  1.
          2   -1    0    0  501    0  0.00000000000E+00 -0.00000000000E+00 -0.84651400875E+03  0.84651400875E+03  0.00000000000E+00 0. -1.
         23    2    1    2    0    0 -0.19801332408E+02 -0.11248921332E+03 -0.43711217115E+03  0.46878650865E+03  0.12509126529E+03 0.  0.
          5    1    3    3  502    0 -0.62456965853E+02 -0.79770566999E+02 -0.18493587934E+03  0.21090985707E+03  0.41800000000E+01 0. -1.
         -5    1    3    3    0  502  0.42655633446E+02 -0.32718646326E+02 -0.25217629181E+03  0.25787665158E+03  0.41800000000E+01 0. -1.
        -11    1    1    2    0    0  0.10174871481E+02  0.91373783379E+02 -0.37101090009E+03  0.38223263111E+03  0.00000000000E+00 0. -1.
         11    1    1    2    0    0  0.96264609269E+01  0.21115429946E+02 -0.89966539516E+01  0.24889152539E+02  0.00000000000E+00 0.  1.
</event>
<event>
 7    1  0.6473813E-006  0.1136788E+03  0.7561462E-02  0.1253905E+00
          4   -1    0    0  501    0  0.00000000000E+00  0.00000000000E+00  0.10961432244E+04  0.10961432244E+04  0.00000000000E+00 0. -1.
         -4   -1    0    0    0  501 -0.00000000000E+00 -0.00000000000E+00 -0.12772800298E+02  0.12772800298E+02  0.00000000000E+00 0.  1.
         23    2    1    2    0    0 -0.17877303085E+02 -0.42275947706E+02  0.68656007430E+03  0.69937124441E+03  0.12509415715E+03 0.  0.
          5    1    3    3  502    0  0.18192825134E+02 -0.77364861725E+02  0.34245566157E+03  0.35158164522E+03  0.41800000000E+01 0.  1.
         -5    1    3    3    0  502 -0.36070128219E+02  0.35088914020E+02  0.34410441274E+03  0.34778959919E+03  0.41800000000E+01 0.  1.
        -11    1    1    2    0    0  0.52644605968E+02  0.28648280359E+02  0.29677956103E+03  0.30277101306E+03  0.00000000000E+00 0.  1.
         11    1    1    2    0    0 -0.34767302883E+02  0.13627667347E+02  0.10003078877E+03  0.10677376723E+03  0.00000000000E+00 0. -1.
</event>
<event>
 7    1  0.6473813E-006  0.1342177E+03  0.7561462E-02  0.1221328E+00
          2   -1    0    0  501    0  0.00000000000E+00  0.00000000000E+00  0.63943978610E+03  0.63943978610E+03  0.00000000000E+00 0. -1.
         -2   -1    0    0    0  501 -0.00000000000E+00 -0.00000000000E+00 -0.40172133043E+02  0.40172133043E+02  0.00000000000E+00 0.  1.
         23    2    1    2    0    0 -0.11225363286E+03 -0.46092670971E+01  0.24650331145E+03  0.29838416741E+03  0.12508839022E+03 0.  0.
          5    1    3    3  502    0  0.29567897076E+00 -0.37216409378E+02  0.17997312698E+02  0.41551464684E+02  0.41800000000E+01 0.  1.
         -5    1    3    3    0  502 -0.11254931183E+03  0.32607142281E+02  0.22850599875E+03  0.25683270272E+03  0.41800000000E+01 0.  1.
        -11    1    1    2    0    0  0.32607977866E+02  0.94190120157E+01  0.20797095832E+02  0.39805994560E+02  0.00000000000E+00 0.  1.
         11    1    1    2    0    0  0.79645654997E+02 -0.48097449186E+01  0.33196724577E+03  0.34142175717E+03  0.00000000000E+00 0. -1.
</event>
<event>
 7    1  0.6473813E-006  0.1693966E+03  0.7561462E-02  0.1178479E+00
          4   -1    0    0  501    0  0.00000000000E+00  0.00000000000E+00  0.16719851861E+03  0.16719851861E+03  0.00000000000E+00 0.  1.
         -4   -1    0    0    0  501 -0.00000000000E+00 -0.00000000000E+00 -0.48000522996E+03  0.48000522996E+03  0.00000000000E+00 0. -1.
         23    2    1    2    0    0 -0.71447876833E+02  0.12579953330E+03 -0.40969177807E+03  0.45213854732E+03  0.12510631987E+03 0.  0.
          5    1    3    3  502    0 -0.10568524007E+03  0.77489943603E+02 -0.30039128273E+03  0.32775975419E+03  0.41800000000E+01 0. -1.
         -5    1    3    3    0  502  0.34237363235E+02  0.48309589693E+02 -0.10930049534E+03  0.12437879313E+03  0.41800000000E+01 0. -1.
        -11    1    1    2    0    0  0.17360378888E+02 -0.63427107574E+02  0.91032859862E+02  0.11230032193E+03  0.00000000000E+00 0.  1.
         11    1    1    2    0    0  0.54087497945E+02 -0.62372425722E+02  0.58522068627E+01  0.82764879324E+02  0.00000000000E+00 0. -1.
</event>
<event>
 7    1  0.6473813E-006  0.1348929E+03  0.7561462E-02  0.1220371E+00
         -3   -1    0    0    0  501 -0.00000000000E+00  0.00000000000E+00  0.37359803978E+02  0.37359803978E+02  0.00000000000E+00 0. -1.
          3   -1    0    0  501    0  0.00000000000E+00 -0.00000000000E+00 -0.73070992977E+03  0.73070992977E+03  0.00000000000E+00 0.  1.
         23    2    1    2    0    0 -0.29755282137E+02 -0.97730399242E+02 -0.20998764220E+03  0.26490981280E+03  0.12508313750E+03 0.  0.
          5    1    3    3  502    0 -0.53080751218E+02 -0.92638878989E+02 -0.21506515588E+03  0.24014583429E+03  0.41800000000E+01 0. -1.
         -5    1    3    3    0  502  0.23325469081E+02 -0.50915202531E+01  0.50775136813E+01  0.24763978508E+02  0.41800000000E+01 0. -1.
        -11    1    1    2    0    0  0.14131210729E+02  0.11473677634E+03 -0.42357650921E+03  0.43906864852E+03  0.00000000000E+00 0. -1.
         11    1    1    2    0    0  0.15624071408E+02 -0.17006377095E+02 -0.59785974373E+02  0.64091272425E+02  0.00000000000E+00 0.  1.
</event>
<event>
 7    1  0.6473813E-006  0.8330276E+02  0.7561462E-02  0.1319932E+00
          1   -1    0    0  501    0  0.00000000000E+00  0.00000000000E+00  0.69986000825E+02  0.69986000825E+02  0.00000000000E+00 0. -1.
         -1   -1    0    0    0  501 -0.00000000000E+00 -0.00000000000E+00 -0.36814602386E+03  0.36814602386E+03  0.00000000000E+00 0.  1.
         23    2    1    2    0    0  0.74595802634E+01 -0.20856674111E+01 -0.31675399426E+03  0.34064779450E+03  0.12509129335E+03 0.  0.
          5    1    3    3  502    0 -0.32364221757E+02 -0.46217429524E+02 -0.21875861770E+03  0.22595640920E+03  0.41800000000E+01 0.  1.
         -5    1    3    3    0  502  0.39823802020E+02  0.44131762113E+02 -0.97995376562E+02  0.11469138530E+03  0.41800000000E+01 0.  1.
        -11    1    1    2    0    0  0.20451756871E+02  0.79052875032E+01 -0.32364045967E+02  0.39092191049E+02  0.00000000000E+00 0.  1.
         11    1    1    2    0    0 -0.27911337135E+02 -0.58196200921E+01  0.50958017190E+02  0.58392039137E+02  0.00000000000E+00 0. -1.
</event>
<event>
 7    1  0.6473813E-006  0.1360150E+03  0.7561462E-02  0.1218794E+00
          1   -1    0    0  501    0  0.00000000000E+00  0.00000000000E+00  0.28319293436E+03  0.28319293436E+03  0.00000000000E+00 0. -1.
         -1   -1    0    0    0  501 -0.00000000000E+00 -0.00000000000E+00 -0.90345568919E+02  0.90345568919E+02  0.00000000000E+00 0.  1.
         23    2    1    2    0    0 -0.11802401238E+03 -0.22223488969E+02  0.65112930023E+02  0.17777552291E+03  0.11375804116E+03 0.  0.
          5    1    3    3  502    0 -0.44991215458E+02  0.31287996096E+02  0.67579342739E+02  0.87106762843E+02  0.41800000000E+01 0. -1.
         -5    1    3    3    0  502 -0.73032796919E+02 -0.53511485065E+02 -0.24664127155E+01  0.90668760063E+02  0.41800000000E+01 0.  1.
        -11    1    1    2    0    0  0.29484075750E+02  0.23783602709E+02  0.93393921098E+02  0.10078390238E+03  0.00000000000E+00 0.  1.
         11    1    1    2    0    0  0.88539936627E+02 -0.15601137407E+01  0.34340514321E+02  0.94979077994E+02  0.00000000000E+00 0. -1.
</event>
<event>
 7    1  0.6473813E-006  0.1113961E+03  0.7561462E-02  0.1258006E+00
         -2   -1    0    0    0  501 -0.00000000000E+00  0.00000000000E+00  0.10403649182E+03  0.10403649182E+03  0.00000000000E+00 0.  1.
          2   -1    0    0  501    0  0.00000000000E+00 -0.00000000000E+00 -0.14575811430E+03  0.14575811430E+03  0.00000000000E+00 0. -1.
         23    2    1    2    0    0 -0.15853958659E+02 -0.37189448243E+02  0.18645710535E+02  0.13277614883E+03  0.12508972824E+03 0.  0.
          5    1    3    3  502    0 -0.57475327406E+02  0.12990269040E+02  0.30340407013E+02  0.66409133768E+02  0.41800000000E+01 0.  1.
         -5    1    3    3    0  502  0.41621368747E+02 -0.50179717283E+02 -0.11694696477E+02  0.66367015065E+02  0.41800000000E+01 0.  1.
        -11    1    1    2    0    0  0.50841167372E+02  0.37872343631E+02 -0.27833843018E+02  0.69237717531E+02  0.00000000000E+00 0.  1.
         11    1    1    2    0    0 -0.34987208713E+02 -0.68289538751E+00 -0.32533489999E+02  0.47780739751E+02  0.00000000000E+00 0. -1.
</event>
<event>
 7    1  0.6473813E-006  0.1431378E+03  0.7561462E-02  0.1209168E+00
          1   -1    0    0  501    0  0.00000000000E+00  0.00000000000E+00  0.60091397249E+03  0.60091397249E+03  0.00000000000E+00 0. -1.
         -1   -1    0    0    0  501 -0.00000000000E+00 -0.00000000000E+00 -0.14823971273E+03  0.14823971273E+03  0.00000000000E+00 0.  1.
         23    2    1    2    0    0 -0.11694947957E+03 -0.20614336718E+02 -0.83887547375E+02  0.19182991600E+03  0.12513778173E+03 0.  0.
          5    1    3    3  502    0 -0.11066944932E+02 -0.35256255677E+02  0.20416091508E+02  0.42423696527E+02  0.41800000000E+01 0.  1.
         -5    1    3    3    0  502 -0.10588253464E+03  0.14641918960E+02 -0.10430363888E+03  0.14940621947E+03  0.41800000000E+01 0.  1.
        -11    1    1    2    0    0  0.18483858951E+02  0.37878770863E+02  0.85591427730E+02  0.95406220052E+02  0.00000000000E+00 0.  1.
         11    1    1    2    0    0  0.98465620623E+02 -0.17264434145E+02  0.45097037940E+03  0.46191754917E+03  0.00000000000E+00 0. -1.
</event>
<event>
 6    1  0.6473813E-006  0.1627500E+03  0.7561462E-02  0.1185627E+00
         -1   -1    0    0    0  501 -0.00000000000E+00  0.00000000000E+00  0.49115381133E+03  0.49115381133E+03  0.00000000000E+00 0.  1.
          1   -1    0    0  501    0  0.00000000000E+00 -0.00000000000E+00 -0.90108076526E+02  0.90108076526E+02  0.00000000000E+00 0. -1.
          5    1    1    2  502    0 -0.14672650624E+03 -0.29750632545E+02  0.16566458049E+03  0.22332933842E+03  0.41800000000E+01 0. -1.
         -5    1    1    2    0  502  0.61352608888E+01  0.17570849484E+02  0.17793533909E+03  0.17895483641E+03  0.41800000000E+01 0.  1.
        -11    1    1    2    0    0  0.13303250278E+03 -0.98181198164E+01  0.19985281779E+02  0.13488311147E+03  0.00000000000E+00 0.  1.
         11    1    1    2    0    0  0.75587425750E+01  0.21997902878E+02  0.37460533451E+02  0.44094601561E+02  0.00000000000E+00 0. -1.
</event>
<event>
 6    1  0.6473813E-006  0.1566024E+03  0.7561462E-02  0.1192587E+00
          2   -1    0    0  501    0  0.00000000000E+00  0.00000000000E+00  0.42856723109E+03  0.42856723109E+03  0.00000000000E+00 0. -1.
         -2   -1    0    0    0  501 -0.00000000000E+00 -0.00000000000E+00 -0.87485887694E+02  0.87485887694E+02  0.00000000000E+00 0.  1.
          5    1    1    2  502    0 -0.14649122802E+03  0.16098750151E+02  0.72462157504E+02  0.16427746745E+03  0.41800000000E+01 0. -1.
         -5    1    1    2    0  502 -0.73550254321E+01  0.54898573903E+01  0.11826557333E+03  0.11869478998E+03  0.41800000000E+01 0.  1.
        -11    1    1    2    0    0  0.41116171980E+02 -0.10347459630E+02 -0.29029887214E+01  0.42497492427E+02  0.00000000000E+00 0.  1.
         11    1    1    2    0    0  0.11273008147E+03 -0.11241147912E+02  0.15325660129E+03  0.19058336893E+03  0.00000000000E+00 0. -1.
</event>
<event>
 7    1  0.6473813E-006  0.8630677E+02  0.7561462E-02  0.1312050E+00
          2   -1    0    0  501    0  0.00000000000E+00  0.00000000000E+00  0.23731142413E+03  0.23731142413E+03  0.00000000000E+00 0. -1.
         -2   -1    0    0    0  501 -0.00000000000E+00 -0.00000000000E+00 -0.59274177093E+02  0.59274177093E+02  0.00000000000E+00 0.  1.
         23    2    1    2    0    0 -0.62678702912E+02  0.13695278608E-01  0.94310649811E+02  0.15822043870E+03  0.11050153197E+03 0.  0.
          5    1    3    3  502    0 -0.60736110782E+02 -0.98773749631E+01  0.11743774097E+03  0.13264815526E+03  0.41800000000E+01 0. -1.
         -5    1    3    3    0  502 -0.19425921305E+01  0.98910702417E+01 -0.23127091161E+02  0.25572283439E+02  0.41800000000E+01 0.  1.
        -11    1    1    2    0    0 -0.15951038775E+02 -0.12686445294E+02  0.45844196190E+02  0.50170428107E+02  0.00000000000E+00 0. -1.
         11    1    1    2    0    0  0.78629741687E+02  0.12672750015E+02  0.37882401035E+02  0.88194734417E+02  0.00000000000E+00 0.  1.
</event>
<event>
 7    1  0.6473813E-006  0.1254608E+03  0.7561462E-02  0.1234351E+00
         -3   -1    0    0    0  501 -0.00000000000E+00  0.00000000000E+00  0.58268531217E+03  0.58268531217E+03  0.00000000000E+00 0.  1.
          3   -1    0    0  501    0  0.00000000000E+00 -0.00000000000E+00 -0.34214630688E+02  0.34214630688E+02  0.00000000000E+00 0. -1.
         23    2    1    2    0    0  0.67281677660E+02 -0.53045228792E+02  0.35694307216E+03  0.38781005025E+03  0.12509059863E+03 0.  0.
          5    1    3    3  502    0  0.23748399838E+02 -0.73202336572E+02  0.31389554647E+03  0.32321889652E+03  0.41800000000E+01 0. -1.
         -5    1    3    3    0  502  0.43533277822E+02  0.20157107780E+02  0.43047525686E+02  0.64591153726E+02  0.41800000000E+01 0. -1.
        -11    1    1    2    0    0 -0.66611551202E+01  0.63783545363E+02  0.97314236149E+02  0.11654515092E+03  0.00000000000E+00 0.  1.
         11    1    1    2    0    0 -0.60620522540E+02 -0.10738316571E+02  0.94213373174E+02  0.11254474168E+03  0.00000000000E+00 0. -1.
</event>
<event>
 7    1  0.6473813E-006  0.1004098E+03  0.7561462E-02  0.1279437E+00
         -2   -1    0    0    0  501 -0.00000000000E+00  0.00000000000E+00  0.10105170719E+03  0.10105170719E+03  0.00000000000E+00 0. -1.
          2   -1    0    0  501    0  0.00000000000E+00 -0.00000000000E+00 -0.16594541702E+03  0.16594541702E+03  0.00000000000E+00 0.  1.
         23    2    1    2    0    0 -0.40501723407E+02  0.33216360743E+02  0.14947348826E+02  0.13530797212E+03  0.12385922599E+03 0.  0.
          5    1    3    3  502    0 -0.42536352964E+02  0.78273714514E+02  0.97588981436E+01  0.89715239509E+02  0.41800000000E+01 0. -1.
         -5    1    3    3    0  502  0.20346295565E+01 -0.45057353771E+02  0.51884506819E+01  0.45592732609E+02  0.41800000000E+01 0. -1.
        -11    1    1    2    0    0  0.48084597783E+02 -0.22189444487E+02 -0.96647507036E+02  0.11020544726E+03  0.00000000000E+00 0.  1.
         11    1    1    2    0    0 -0.75828743759E+01 -0.11026916255E+02  0.16806448382E+02  0.21483704828E+02  0.00000000000E+00 0. -1.
</event>
<event>
 7    1  0.6473813E-006  0.1719124E+03  0.7561462E-02  0.1175868E+00
         -2   -1    0    0    0  501 -0.00000000000E+00  0.00000000000E+00  0.22130061197E+03  0.22130061197E+03  0.00000000000E+00 0. -1.
          2   -1    0    0  501    0  0.00000000000E+00 -0.00000000000E+00 -0.17547902733E+03  0.17547902733E+03  0.00000000000E+00 0.  1.
         23    2    1    2    0    0 -0.15131068907E+03  0.59981397738E+02  0.34675899025E+02  0.20819008502E+03  0.12509196947E+03 0.  0.
          5    1    3    3  502    0 -0.18712423475E+02  0.16345935867E+02 -0.41919212199E+02  0.48908456969E+02  0.41800000000E+01 0. -1.
         -5    1    3    3    0  502 -0.13259826560E+03  0.43635461870E+02  0.76595111224E+02  0.15928162806E+03  0.41800000000E+01 0. -1.
        -11    1    1    2    0    0  0.82732108898E+02 -0.71605380741E+02 -0.21892913744E+02  0.11158508891E+03  0.00000000000E+00 0.  1.
         11    1    1    2    0    0  0.68578580176E+02  0.11623983003E+02  0.33038599359E+02  0.77004465373E+02  0.00000000000E+00 0. -1.
</event>
<event>
 7    1  0.6473813E-006  0.8329893E+02  0.7561462E-02  0.1319942E+00
          4   -1    0    0  501    0  0.00000000000E+00  0.00000000000E+00  0.44054165035E+02  0.44054165035E+02  0.00000000000E+00 0. -1.
         -4   -1    0    0    0  501 -0.00000000000E+00 -0.00000000000E+00 -0.37454447836E+03  0.37454447836E+03  0.00000000000E+00 0.  1.
         23    2    1    2    0    0  0.56537947533E+02  0.13141848453E+02 -0.24439164383E+03  0.28061248001E+03  0.12508733218E+03 0.  0.
          5    1    3    3  502    0  0.49111524556E+02  0.11857103862E+02 -0.17609384483E+02  0.53666521948E+02  0.41800000000E+01 0. -1.
         -5    1    3    3    0  502  0.74264229771E+01  0.12847445912E+01 -0.22678225935E+03  0.22694595807E+03  0.41800000000E+01 0. -1.
        -11    1    1    2    0    0 -0.62272295999E+02 -0.43775129825E+02 -0.54607795771E+02  0.93680906268E+02  0.00000000000E+00 0.  1.
         11    1    1    2    0    0  0.57343484667E+01  0.30633281372E+02 -0.31490873719E+02  0.44305257110E+02  0.00000000000E+00 0. -1.
</event>
<event>
 7    1  0.6473813E-006  0.1178315E+03  0.7561462E-02  0.1246718E+00
          1   -1    0    0  501    0  0.00000000000E+00  0.00000000000E+00  0.16022191501E+03  0.16022191501E+03  0.00000000000E+00 0. -1.
         -1   -1    0    0    0  501 -0.00000000000E+00 -0.00000000000E+00 -0.12954687382E+03  0.12954687382E+03  0.00000000000E+00 0.  1.
         23    2    1    2    0    0 -0.84457853491E+02  0.15262174308E+02 -0.23324088518E+02  0.15338834690E+03  0.12497163229E+03 0.  0.
          5    1    3    3  502    0 -0.95118989834E+02  0.29679537470E+01 -0.60324717190E+02  0.11275182872E+03  0.41800000000E+01 0. -1.
         -5    1    3    3    0  502  0.10661136343E+02  0.12294220561E+02  0.37000628672E+02  0.40636518175E+02  0.41800000000E+01 0. -1.
        -11    1    1    2    0    0  0.89498691229E+02 -0.40235983485E+02  0.51390624540E+02  0.11076979006E+03  0.00000000000E+00 0. -1.
         11    1    1    2    0    0 -0.50408377383E+01  0.24973809177E+02  0.26085051728E+01  0.25610651869E+02  0.00000000000E+00 0.  1.
</event>
<event>
 7    1  0.6473813E-006  0.1029167E+03  0.7561462E-02  0.1274279E+00
         -2   -1    0    0    0  501 -0.00000000000E+00  0.00000000000E+00  0.24269617633E+03  0.24269617633E+03  0.00000000000E+00 0.  1.
          2   -1    0    0  501    0  0.00000000000E+00 -0.00000000000E+00 -0.23427211446E+03  0.23427211446E+03  0.00000000000E+00 0. -1.
         23    2    1    2    0    0  0.54726817494E+01 -0.47668188273E+02  0.21280056621E+03  0.24988067098E+03  0.12187724288E+03 0.  0.
          5    1    3    3  502    0  0.40973977789E+02  0.24363374170E+02  0.55985433529E+02  0.73649725215E+02  0.41800000000E+01 0. -1.
         -5    1    3    3    0  502 -0.35501296039E+02 -0.72031562443E+02  0.15681513268E+03  0.17623094577E+03  0.41800000000E+01 0.  1.
        -11    1    1    2    0    0  0.15707731158E+01  0.61777268190E+02 -0.20187396327E+03  0.21112080721E+03  0.00000000000E+00 0. -1.
         11    1    1    2    0    0 -0.70434548652E+01 -0.14109079917E+02 -0.25025410723E+01  0.15966812592E+02  0.00000000000E+00 0.  1.
</event>
<event>
 7    1  0.6473813E-006  0.1273200E+03  0.7561462E-02  0.1231487E+00
          1   -1    0    0  501    0  0.00000000000E+00  0.00000000000E+00  0.86846079614E+03  0.86846079614E+03  0.00000000000E+00 0. -1.
         -1   -1    0    0    0  501 -0.00000000000E+00 -0.00000000000E+00 -0.29946422961E+02  0.29946422961E+02  0.00000000000E+00 0.  1.
         23    2    1    2    0    0 -0.75108639440E+02  0.95253900829E+02  0.45715470600E+03  0.48923785359E+03  0.12509451956E+03 0.  0.
          5    1    3    3  502    0 -0.51068223449E+02  0.83691781255E+02  0.14017655866E+03  0.17111171116E+03  0.41800000000E+01 0.  1.
         -5    1    3    3    0  502 -0.24040415991E+02  0.11562119573E+02  0.31697814734E+03  0.31812614244E+03  0.41800000000E+01 0.  1.
        -11    1    1    2    0    0  0.42088744100E+02 -0.85136216109E+02  0.34953188220E+03  0.36220460288E+03  0.00000000000E+00 0. -1.
         11    1    1    2    0    0  0.33019895340E+02 -0.10117684720E+02  0.31827784975E+02  0.46964762629E+02  0.00000000000E+00 0.  1.
</event>
<event>
 7    1  0.6473813E-006  0.1548409E+03  0.7561462E-02  0.1194648E+00
          1   -1    0    0  501    0  0.00000000000E+00  0.00000000000E+00  0.22560676383E+03  0.22560676383E+03  0.00000000000E+00 0. -1.
         -1   -1    0    0    0  501 -0.00000000000E+00 -0.00000000000E+00 -0.12238363927E+03  0.12238363927E+03  0.00000000000E+00 0.  1.
         23    2    1    2    0    0 -0.12409271610E+03 -0.17356419500E+02  0.39127765520E+02  0.18132093147E+03  0.12508417433E+03 0.  0.
          5    1    3    3  502    0 -0.55488125175E+02 -0.54408055610E+02  0.62501253069E+02  0.99815066928E+02  0.41800000000E+01 0.  1.
         -5    1    3    3    0  502 -0.68604590926E+02  0.37051636110E+02 -0.23373487549E+02  0.81505864542E+02  0.41800000000E+01 0.  1.
        -11    1    1    2    0    0  0.60712518988E+02  0.53406299763E+02  0.36342451853E+02  0.88651094878E+02  0.00000000000E+00 0.  1.
         11    1    1    2    0    0  0.63380197112E+02 -0.36049880263E+02  0.27752907191E+02  0.78018376749E+02  0.00000000000E+00 0. -1.
</event>
<event>
 7    1  0.6473813E-006  0.6482926E+02  0.7561462E-02  0.1378615E+00
          1   -1    0    0  501    0  0.00000000000E+00  0.00000000000E+00  0.75841505737E+02  0.75841505737E+02  0.00000000000E+00 0. -1.
         -1   -1    0    0    0  501 -0.00000000000E+00 -0.00000000000E+00 -0.17323210830E+03  0.17323210830E+03  0.00000000000E+00 0.  1.
         23    2    1    2    0    0  0.16795335761E+02 -0.22226304229E+02 -0.85080091955E+02  0.15382548271E+03  0.12509022816E+03 0.  0.
          5    1    3    3  502    0 -0.22589500803E+01  0.16152655458E+02  0.28086392355E+02  0.32746434452E+02  0.41800000000E+01 0.  1.
         -5    1    3    3    0  502  0.19054285841E+02 -0.38378959687E+02 -0.11316648431E+03  0.12107904826E+03  0.41800000000E+01 0.  1.
        -11    1    1    2    0    0 -0.41174909759E+02  0.94518685881E+01  0.24843996006E+02  0.49009541428E+02  0.00000000000E+00 0. -1.
         11    1    1    2    0    0  0.24379573998E+02  0.12774435641E+02 -0.37154506617E+02  0.46238589903E+02  0.00000000000E+00 0.  1.
</event>
<event>
 7    1  0.6473813E-006  0.9456072E+02  0.7561462E-02  0.1292169E+00
          2   -1    0    0  501    0  0.00000000000E+00  0.00000000000E+00  0.12415484589E+03  0.12415484589E+03  0.00000000000E+00 0. -1.
         -2   -1    0    0    0  501 -0.00000000000E+00 -0.00000000000E+00 -0.93656081437E+02  0.93656081437E+02  0.00000000000E+00 0.  1.
         23    2    1    2    0    0  0.56816453500E+01  0.62235170164E+00  0.12582585358E+02  0.12585431673E+03  0.12509324190E+03 0.  0.
          5    1    3    3  502    0  0.33656534756E+02  0.53168727766E+02 -0.60073811808E+01  0.63350114228E+02  0.41800000000E+01 0.  1.
         -5    1    3    3    0  502 -0.27974889406E+02 -0.52546376064E+02  0.18589966539E+02  0.62504202504E+02  0.41800000000E+01 0.  1.
        -11    1    1    2    0    0 -0.11600060967E+02  0.31578079395E+02  0.40149985004E+02  0.52380891636E+02  0.00000000000E+00 0. -1.
         11    1    1    2    0    0  0.59184156166E+01 -0.32200431097E+02 -0.22233805907E+02  0.39575718962E+02  0.00000000000E+00 0.  1.
</event>
<event>
 7    1  0.6473813E-006  0.1065773E+03  0.7561462E-02  0.1267043E+00
          1   -1    0    0  501    0  0.00000000000E+00  0.00000000000E+00  0.46457947274E+03  0.46457947274E+03  0.00000000000E+00 0. -1.
         -1   -1    0    0    0  501 -0.00000000000E+00 -0.00000000000E+00 -0.28742056366E+02  0.28742056366E+02  0.00000000000E+00 0.  1.
         23    2    1    2    0    0  0.56745935388E+01  0.47692895431E+02  0.18408831455E+03  0.22185875867E+03  0.11413145035E+03 0.  0.
          5    1    3    3  502    0  0.54457520707E+02  0.13390924928E+02  0.12832709310E+03  0.14010800711E+03  0.41800000000E+01 0. -1.
         -5    1    3    3    0  502 -0.48782927168E+02  0.34301970502E+02  0.55761221446E+02  0.81750751560E+02  0.41800000000E+01 0.  1.
        -11    1    1    2    0    0  0.18051031030E+02 -0.65199393770E+02  0.20783289070E+03  0.21856649131E+03  0.00000000000E+00 0. -1.
         11    1    1    2    0    0 -0.23725624569E+02  0.17506498340E+02  0.43916211127E+02  0.52896279123E+02  0.00000000000E+00 0.  1.
</event>
<event>
 7    1  0.6473813E-006  0.8916707E+02  0.7561462E-02  0.1304881E+00
          2   -1    0    0  501    0  0.00000000000E+00  0.00000000000E+00  0.15097410495E+03  0.15097410495E+03  0.00000000000E+00 0. -1.
         -2   -1    0    0    0  501 -0.00000000000E+00 -0.00000000000E+00 -0.89308320859E+02  0.89308320859E+02  0.00000000000E+00 0.  1.
         23    2    1    2    0    0 -0.27933995794E+02 -0.38095524416E+02  0.24290874661E+02  0.13589898559E+03  0.12508761166E+03 0.  0.
          5    1    3    3  502    0  0.35565463833E+02  0.22923416621E+02  0.21606286550E+02  0.47693702579E+02  0.41800000000E+01 0. -1.
         -5    1    3    3    0  502 -0.63499459627E+02 -0.61018941037E+02  0.26845881115E+01  0.88205283014E+02  0.41800000000E+01 0. -1.
        -11    1    1    2    0    0  0.88905812680E+01  0.17315978048E+02  0.63215860434E+02  0.66144769570E+02  0.00000000000E+00 0.  1.
         11    1    1    2    0    0  0.19043414526E+02  0.20779546368E+02 -0.25840951003E+02  0.38238670647E+02  0.00000000000E+00 0. -1.
</event>
<event>
 7    1  0.6473813E-006  0.1457583E+03  0.7561462E-02  0.1205784E+00
         -1   -1    0    0    0  501 -0.00000000000E+00  0.00000000000E+00  0.23751148056E+03  0.23751148056E+03  0.00000000000E+00 0.  1.
          1   -1    0    0  501    0  0.00000000000E+00 -0.00000000000E+00 -0.11805836823E+03  0.11805836823E+03  0.00000000000E+00 0. -1.
         23    2    1    2    0    0  0.95199882716E+02 -0.29327875583E+02  0.14677749343E+03  0.21705874545E+03  0.12509086476E+03 0.  0.
          5    1    3    3  502    0  0.52314252692E+02  0.48108786324E+02  0.61651572477E+02  0.94178687319E+02  0.41800000000E+01 0. -1.
         -5    1    3    3    0  502  0.42885630024E+02 -0.77436661907E+02  0.85125920949E+02  0.12288005814E+03  0.41800000000E+01 0. -1.
        -11    1    1    2    0    0 -0.63134046764E+02  0.60169006546E+02 -0.18278509759E+01  0.87232781962E+02  0.00000000000E+00 0.  1.
         11    1    1    2    0    0 -0.32065835952E+02 -0.30841130963E+02 -0.25496530118E+02  0.51278321369E+02  0.00000000000E+00 0. -1.
</event>
<event>
 6    1  0.6473813E-006  0.4795350E+02  0.7561462E-02  0.1456703E+00
          2   -1    0    0  501    0  0.00000000000E+00  0.00000000000E+00  0.15256260513E+03  0.15256260513E+03  0.00000000000E+00 0. -1.
         -2   -1    0    0    0  501 -0.00000000000E+00 -0.00000000000E+00 -0.57313999799E+02  0.57313999799E+02  0.00000000000E+00 0.  1.
          5    1    1    2  502    0 -0.65628289773E+01  0.40393227586E+02  0.96495678659E+02  0.10489791208E+03  0.41800000000E+01 0. -1.
         -5    1    1    2    0  502 -0.14115625474E+02 -0.12394136715E+02 -0.44783656396E+02  0.48743346085E+02  0.41800000000E+01 0.  1.
        -11    1    1    2    0    0  0.93777215105E+01 -0.18592459382E+02  0.27210887867E+02  0.34264465925E+02  0.00000000000E+00 0. -1.
         11    1    1    2    0    0  0.11300732941E+02 -0.94066314898E+01  0.16325695200E+02  0.21970880837E+02  0.00000000000E+00 0.  1.
</event>
<event>
 6    1  0.6473813E-006  0.9919106E+02  0.7561462E-02  0.1282006E+00
         -1   -1    0    0    0  501 -0.00000000000E+00  0.00000000000E+00  0.65792920758E+03  0.65792920758E+03  0.00000000000E+00 0.  1.
          1   -1    0    0  501    0  0.00000000000E+00 -0.00000000000E+00 -0.25135122186E+02  0.25135122186E+02  0.00000000000E+00 0. -1.
          5    1    1    2  502    0  0.69262842125E+02  0.13248917230E+01  0.23302195276E+03  0.24313740869E+03  0.41800000000E+01 0. -1.
         -5    1    1    2    0  502 -0.65568115529E+02 -0.23478326582E+02  0.26825315816E+03  0.27717799129E+03  0.41800000000E+01 0.  1.
        -11    1    1    2    0    0 -0.20844547681E+02 -0.97327398791E+01  0.12355421042E+03  0.12567762055E+03  0.00000000000E+00 0.  1.
         11    1    1    2    0    0  0.17149821084E+02  0.31886174738E+02  0.79647640639E+01  0.37071309246E+02  0.00000000000E+00 0. -1.
</event>
<event>
 7    1  0.6473813E-006  0.1424889E+03  0.7561462E-02  0.1210019E+00
         -2   -1    0    0    0  501 -0.00000000000E+00  0.00000000000E+00  0.59055216062E+02  0.59055216062E+02  0.00000000000E+00 0.  1.
          2   -1    0    0  501    0  0.00000000000E+00 -0.00000000000E+00 -0.47057032052E+03  0.47057032052E+03  0.00000000000E+00 0. -1.
         23    2    1    2    0    0 -0.70046905746E+02 -0.10131983975E+03 -0.17178687984E+03  0.24562253225E+03  0.12508963719E+03 0.  0.
          5    1    3    3  502    0  0.15396541642E+02 -0.52083046215E+02 -0.12507939171E+03  0.13642589134E+03  0.41800000000E+01 0. -1.
         -5    1    3    3    0  502 -0.85443447388E+02 -0.49236793534E+02 -0.46707488138E+02  0.10919664092E+03  0.41800000000E+01 0. -1.
        -11    1    1    2    0    0  0.41004080424E+02  0.20338515798E+02 -0.23847011904E+02  0.51610752882E+02  0.00000000000E+00 0.  1.
         11    1    1    2    0    0  0.29042825322E+02  0.80981323951E+02 -0.21588121271E+03  0.23239225145E+03  0.00000000000E+00 0. -1.
</event>
<event>
 6    1  0.6473813E-006  0.1226195E+03  0.7561462E-02  0.1238837E+00
          1   -1    0    0  501    0  0.00000000000E+00  0.00000000000E+00  0.48128618764E+03  0.48128618764E+03  0.00000000000E+00 0. -1.
         -1   -1    0    0    0  501 -0.00000000000E+00 -0.00000000000E+00 -0.37290146675E+02  0.37290146675E+02  0.00000000000E+00 0.  1.
          5    1    1    2  502    0  0.93974669169E+02 -0.48333730403E+01  0.88722934274E+02  0.12939795751E+03  0.41800000000E+01 0. -1.
         -5    1    1    2    0  502 -0.59183902158E+02 -0.17167196511E+02  0.14735908862E+03  0.15977991209E+03  0.41800000000E+01 0.  1.
        -11    1    1    2    0    0  0.13919221142E+01 -0.27739268153E+02  0.28768357885E+02  0.39987783887E+02  0.00000000000E+00 0. -1.
         11    1    1    2    0    0 -0.36182689125E+02  0.49739837704E+02  0.17914566019E+03  0.18941068083E+03  0.00000000000E+00 0.  1.
</event>
<event>
 7    1  0.6473813E-006  0.1408844E+03  0.7561462E-02  0.1212144E+00
         -1   -1    0    0    0  501 -0.00000000000E+00  0.00000000000E+00  0.74900436978E+03  0.74900436978E+03  0.00000000000E+00 0.  1.
          1   -1    0    0  501    0  0.00000000000E+00 -0.00000000000E+00 -0.38268055802E+02  0.38268055802E+02  0.00000000000E+00 0. -1.
         23    2    1    2    0    0 -0.12740519154E+03  0.39398911428E+02  0.35182788083E+03  0.39650324359E+03  0.12509039690E+03 0.  0.
          5    1    3    3  502    0 -0.77458923449E+02  0.33079956637E+02  0.33148452708E+03  0.34204331954E+03  0.41800000000E+01 0.  1.
         -5    1    3    3    0  502 -0.49946268086E+02  0.63189547911E+01  0.20343353758E+02  0.54459924049E+02  0.41800000000E+01 0.  1.
        -11    1    1    2    0    0  0.54058359663E+02  0.14418042264E+02  0.81745163032E+02  0.99057851134E+02  0.00000000000E+00 0.  1.
         11    1    1    2    0    0  0.73346831872E+02 -0.53816953692E+02  0.27716327011E+03  0.29171133085E+03  0.00000000000E+00 0. -1.
</event>
<event>
 7    1  0.6473813E-006  0.9844833E+02  0.7561462E-02  0.1283593E+00
         -2   -1    0    0    0  501 -0.00000000000E+00  0.00000000000E+00  0.53487340931E+02  0.53487340931E+02  0.00000000000E+00 0.  1.
          2   -1    0    0  501    0  0.00000000000E+00 -0.00000000000E+00 -0.33312363854E+03  0.33312363854E+03  0.00000000000E+00 0. -1.
         23    2    1    2    0    0 -0.66528686365E+02  0.17867367664E+02 -0.10210498239E+03  0.17555283927E+03  0.12509221802E+03 0.  0.
          5    1    3    3  502    0  0.39820791448E+01  0.11731863910E+02  0.26019072475E+02  0.29119720424E+02  0.41800000000E+01 0. -1.
         -5    1    3    3    0  502 -0.70510765510E+02  0.61355037544E+01 -0.12812405486E+03  0.14643311884E+03  0.41800000000E+01 0. -1.
        -11    1    1    2    0    0  0.88171047838E+02 -0.22030340387E+02 -0.15400651182E+03  0.17882246855E+03  0.00000000000E+00 0. -1.
         11    1    1    2    0    0 -0.21642361473E+02  0.41629727226E+01 -0.23524803394E+02  0.32235671650E+02  0.00000000000E+00 0.  1.
</event>
<event>
 7    1  0.6473813E-006  0.2096447E+03  0.7561462E-02  0.1141848E+00
         -2   -1    0    0    0  501 -0.00000000000E+00  0.00000000000E+00  0.22252925902E+03  0.22252925902E+03  0.00000000000E+00 0.  1.
          2   -1    0    0  501    0  0.00000000000E+00 -0.00000000000E+00 -0.23906090678E+03  0.23906090678E+03  0.00000000000E+00 0. -1.
         23    2    1    2    0    0 -0.16710696932E+03  0.75717708356E+02  0.78778478337E+02  0.23560938182E+03  0.12509125308E+03 0.  0.
          5    1    3    3  502    0 -0.51136353434E+02 -0.34621790261E+02  0.20418267364E+02  0.65176476167E+02  0.41800000000E+01 0. -1.
         -5    1    3    3    0  502 -0.11597061589E+03  0.11033949862E+03  0.58360210974E+02  0.17043290566E+03  0.41800000000E+01 0. -1.
        -11    1    1    2    0    0  0.10158030254E+03 -0.83210101798E+02 -0.91248203984E+02  0.15990220022E+03  0.00000000000E+00 0.  1.
         11    1    1    2    0    0  0.65526666786E+02  0.74923934419E+01 -0.40619221150E+01  0.66078583753E+02  0.00000000000E+00 0. -1.
</event>
<event>
 7    1  0.6473813E-006  0.1299976E+03  0.7561462E-02  0.1227459E+00
         -1   -1    0    0    0  501 -0.00000000000E+00  0.00000000000E+00  0.68611636314E+02  0.68611636314E+02  0.00000000000E+00 0.  1.
          1   -1    0    0  501    0  0.00000000000E+00 -0.00000000000E+00 -0.37308766069E+03  0.37308766069E+03  0.00000000000E+00 0. -1.
         23    2    1    2    0    0  0.70777682863E+02 -0.84075349282E+02 -0.10759315742E+03  0.19824922406E+03  0.12509325548E+03 0.  0.
          5    1    3    3  502    0 -0.75295432053E+01  0.11064943605E+02 -0.66991274841E+02  0.68442898117E+02  0.41800000000E+01 0. -1.
         -5    1    3    3    0  502  0.78307226068E+02 -0.95140292887E+02 -0.40601882581E+02  0.12980632594E+03  0.41800000000E+01 0. -1.
        -11    1    1    2    0    0 -0.41142079348E+02  0.83447576431E+02 -0.19207281860E+03  0.21342009360E+03  0.00000000000E+00 0. -1.
         11    1    1    2    0    0 -0.29635603515E+02  0.62777285069E+00 -0.48100483502E+01  0.30029979347E+02  0.00000000000E+00 0.  1.
</event>
<event>
 7    1  0.6473813E-006  0.1576869E+03  0.7561462E-02  0.1191333E+00
         -2   -1    0    0    0  501 -0.00000000000E+00  0.00000000000E+00  0.21900320734E+02  0.21900320734E+02  0.00000000000E+00 0.  1.
          2   -1    0    0  501    0  0.00000000000E+00 -0.00000000000E+00 -0.12541469365E+04  0.12541469365E+04  0.00000000000E+00 0. -1.
         23    2    1    2    0    0  0.10657732830E+03  0.60768685109E+02 -0.56259354987E+03  0.58924747398E+03  0.12509805453E+03 0.  0.
          5    1    3    3  502    0 -0.82562801101E+01  0.56782757808E+02 -0.14176186252E+03  0.15299132594E+03  0.41800000000E+01 0. -1.
         -5    1    3    3    0  502  0.11483360841E+03  0.39859273004E+01 -0.42083168734E+03  0.43625614804E+03  0.41800000000E+01 0. -1.
        -11    1    1    2    0    0  0.31991942670E+01 -0.28166563236E+02 -0.58450808734E+02  0.64962198009E+02  0.00000000000E+00 0.  1.
         11    1    1    2    0    0 -0.10977652256E+03 -0.32602121873E+02 -0.61120225719E+03  0.62183758526E+03  0.00000000000E+00 0. -1.
</event>
<event>
 7    1  0.6473813E-006  0.8960739E+02  0.7561462E-02  0.1303805E+00
         -2   -1    0    0    0  501 -0.00000000000E+00  0.00000000000E+00  0.53716471541E+02  0.53716471541E+02  0.00000000000E+00 0.  1.
          2   -1    0    0  501    0  0.00000000000E+00 -0.00000000000E+00 -0.33650338379E+03  0.33650338379E+03  0.00000000000E+00 0. -1.
         23    2    1    2    0    0  0.30817713982E+02  0.72368928194E+02 -0.16756686158E+03  0.22341395221E+03  0.12509255645E+03 0.  0.
          5    1    3    3  502    0  0.40835914610E+02  0.57003662011E+02 -0.17794305060E+02  0.72464467826E+02  0.41800000000E+01 0. -1.
         -5    1    3    3    0  502 -0.10018200628E+02  0.15365266183E+02 -0.14977255652E+03  0.15094948438E+03  0.41800000000E+01 0. -1.
        -11    1    1    2    0    0 -0.21905087756E+02 -0.53524270281E+01  0.98702353199E+01  0.24615094758E+02  0.00000000000E+00 0.  1.
         11    1    1    2    0    0 -0.89126262256E+01 -0.67016501166E+02 -0.12509028599E+03  0.14219080837E+03  0.00000000000E+00 0. -1.
</event>
<event>
 7    1  0.6473813E-006  0.9126469E+02  0.7561462E-02  0.1299818E+00
          2   -1    0    0  501    0  0.00000000000E+00  0.00000000000E+00  0.36539997958E+03  0.36539997958E+03  0.00000000000E+00 0. -1.
         -2   -1    0    0    0  501 -0.00000000000E+00 -0.00000000000E+00 -0.38669663659E+02  0.38669663659E+02  0.00000000000E+00 0.  1.
         23    2    1    2    0    0 -0.35139121708E+02 -0.18934440616E+02  0.13909009955E+03  0.19127046937E+03  0.12508023722E+03 0.  0.
          5    1    3    3  502    0  0.21021212261E+02 -0.20823218415E+02  0.13097628743E+03  0.13434194453E+03  0.41800000000E+01 0. -1.
         -5    1    3    3    0  502 -0.56160333969E+02  0.18887777994E+01  0.81138121185E+01  0.56928524838E+02  0.41800000000E+01 0. -1.
        -11    1    1    2    0    0  0.61614202993E+02 -0.33341498260E+01  0.89243949294E+02  0.10849842880E+03  0.00000000000E+00 0.  1.
         11    1    1    2    0    0 -0.26475081285E+02  0.22268590442E+02  0.98396267077E+02  0.10430074508E+03  0.00000000000E+00 0. -1.
</event>
<event>
 7    1  0.6473813E-006  0.1041857E+03  0.7561462E-02  0.1271732E+00
          1   -1    0    0  501    0  0.00000000000E+00  0.00000000000E+00  0.80345471661E+02  0.80345471661E+02  0.00000000000E+00 0. -1.
         -1   -1    0    0    0  501 -0.00000000000E+00 -0.00000000000E+00 -0.22286229164E+03  0.22286229164E+03  0.00000000000E+00 0.  1.
         23    2    1    2    0    0  0.39606848287E+02  0.58697837503E+02 -0.12227102963E+03  0.18871194893E+03  0.12509139228E+03 0.  0.
          5    1    3    3  502    0 -0.42030762892E+02  0.17843438132E+02 -0.16027400368E+02  0.48572865638E+02  0.41800000000E+01 0. -1.
         -5    1    3    3    0  502  0.81637611180E+02  0.40854399371E+02 -0.10624362926E+03  0.14013908329E+03  0.41800000000E+01 0. -1.
        -11    1    1    2    0    0 -0.28525769310E+02 -0.36507445242E+02 -0.54927318047E+02  0.71857660278E+02  0.00000000000E+00 0.  1.
         11    1    1    2    0    0 -0.11081078978E+02 -0.22190392261E+02  0.34681527706E+02  0.42638154088E+02  0.00000000000E+00 0. -1.
</event>
<event>
 7    1  0.6473813E-006  0.1303290E+03  0.7561462E-02  0.1226968E+00
         -2   -1    0    0    0  501 -0.00000000000E+00  0.00000000000E+00  0.41434519730E+02  0.41434519730E+02  0.00000000000E+00 0.  1.
          2   -1    0    0  501    0  0.00000000000E+00 -0.00000000000E+00 -0.43922731092E+03  0.43922731092E+03  0.00000000000E+00 0. -1.
         23    2    1    2    0    0 -0.75300806094E+02  0.84756059685E+01 -0.16921110099E+03  0.22365555030E+03  0.12508941278E+03 0.  0.
          5    1    3    3  502    0 -0.22430671392E+01  0.57433420124E+02 -0.57364702784E+02  0.81313040915E+02  0.41800000000E+01 0.  1.
         -5    1    3    3    0  502 -0.73057738955E+02 -0.48957814155E+02 -0.11184639820E+03  0.14234250939E+03  0.41800000000E+01 0.  1.
        -11    1    1    2    0    0  0.50481754145E+02 -0.47120807034E+02 -0.11046022346E+03  0.13026986959E+03  0.00000000000E+00 0.  1.
         11    1    1    2    0    0  0.24819051949E+02  0.38645201065E+02 -0.11812146675E+03  0.12673641076E+03  0.00000000000E+00 0. -1.
</event>
<event>
 7    1  0.6473813E-006  0.9683865E+02  0.7561462E-02  0.1287088E+00
         -2   -1    0    0    0  501 -0.00000000000E+00  0.00000000000E+00  0.83295306455E+02  0.83295306455E+02  0.00000000000E+00 0.  1.
          2   -1    0    0  501    0  0.00000000000E+00 -0.00000000000E+00 -0.15991274612E+03  0.15991274612E+03  0.00000000000E+00 0. -1.
         23    2    1    2    0    0  0.39613303059E+01 -0.13433658771E+02 -0.39685842345E+01  0.12593331573E+03  0.12508914831E+03 0.  0.
          5    1    3    3  502    0 -0.53315053789E+02 -0.26686358989E+02  0.18944752645E+02  0.62697948686E+02  0.41800000000E+01 0.  1.
         -5    1    3    3    0  502  0.57276384095E+02  0.13252700218E+02 -0.22913336879E+02  0.63235367043E+02  0.41800000000E+01 0.  1.
        -11    1    1    2    0    0 -0.10940922607E+02 -0.29505803431E+02 -0.66196541332E+02  0.73295827357E+02  0.00000000000E+00 0.  1.
         11    1    1    2    0    0  0.69795923013E+01  0.42939462202E+02 -0.64523141012E+01  0.43978909493E+02  0.00000000000E+00 0. -1.
</event>
<event>
 7    1  0.6473813E-006  0.1081771E+03  0.7561462E-02  0.1263983E+00
          3   -1    0    0  501    0  0.00000000000E+00  0.00000000000E+00  0.50989595485E+02  0.50989595485E+02  0.00000000000E+00 0. -1.
         -3   -1    0    0    0  501 -0.00000000000E+00 -0.00000000000E+00 -0.37506785270E+03  0.37506785270E+03  0.00000000000E+00 0.  1.
         23    2    1    2    0    0  0.82091119790E+02 -0.23603418304E+02 -0.18968433535E+03  0.24274116740E+03  0.12508818477E+03 0.  0.
          5    1    3    3  502    0  0.12815580776E+02 -0.52660069055E+02 -0.14588319575E+03  0.15568140925E+03  0.41800000000E+01 0.  1.
         -5    1    3    3    0  502  0.69275539014E+02  0.29056650751E+02 -0.43801139601E+02  0.87059758148E+02  0.41800000000E+01 0.  1.
        -11    1    1    2    0    0 -0.66370470769E+02  0.25117259372E+02 -0.14691862602E+03  0.16315942749E+03  0.00000000000E+00 0.  1.
         11    1    1    2    0    0 -0.15720649021E+02 -0.15138410677E+01  0.12524704157E+02  0.20156853292E+02  0.00000000000E+00 0. -1.
</event>
<event>
 7    1  0.6473813E-006  0.1220311E+03  0.7561462E-02  0.1239783E+00
         -2   -1    0    0    0  501 -0.00000000000E+00  0.00000000000E+00  0.25341544727E+02  0.25341544727E+02  0.00000000000E+00 0.  1.
          2   -1    0    0  501    0  0.00000000000E+00 -0.00000000000E+00 -0.76925064824E+03  0.76925064824E+03  0.00000000000E+00 0. -1.
         23    2    1    2    0    0 -0.77920564187E+02  0.34336066515E+02 -0.34897908909E+03  0.38037298229E+03  0.12508645507E+03 0.  0.
          5    1    3    3  502    0  0.29512226627E+02 -0.33268821397E+01 -0.33543131517E+02  0.44996152472E+02  0.41800000000E+01 0. -1.
         -5    1    3    3    0  502 -0.10743279081E+03  0.37662948655E+02 -0.31543595758E+03  0.33537682981E+03  0.41800000000E+01 0. -1.
        -11    1    1    2    0    0  0.58561592652E+02 -0.48602102819E+02 -0.37597340281E+03  0.38359825879E+03  0.00000000000E+00 0. -1.
         11    1    1    2    0    0  0.19358971535E+02  0.14266036304E+02 -0.18956611616E+02  0.30620951891E+02  0.00000000000E+00 0.  1.
</event>
<event>
 7    1  0.6473813E-006  0.9696387E+02  0.7561462E-02  0.1286813E+00
         -2   -1    0    0    0  501 -0.00000000000E+00  0.00000000000E+00  0.36881149098E+02  0.36881149098E+02  0.00000000000E+00 0. -1.
          2   -1    0    0  501    0  0.00000000000E+00 -0.00000000000E+00 -0.39603897570E+03  0.39603897570E+03  0.00000000000E+00 0.  1.
         23    2    1    2    0    0 -0.29181052997E+02 -0.39062131824E+02 -0.16452686248E+03  0.21235311255E+03  0.12508945574E+03 0.  0.
          5    1    3    3  502    0  0.39661937850E+02  0.33217333904E+01 -0.15806630830E+02  0.43028190816E+02  0.41800000000E+01 0.  1.
         -5    1    3    3    0  502 -0.68842990846E+02 -0.42383865215E+02 -0.14872023165E+03  0.16932492174E+03  0.41800000000E+01 0.  1.
        -11    1    1    2    0    0  0.32113074149E+02 -0.16338453017E+01 -0.13459524113E+02  0.34857965677E+02  0.00000000000E+00 0. -1.
         11    1    1    2    0    0 -0.29320211525E+01  0.40695977126E+02 -0.18117144001E+03  0.18570904657E+03  0.00000000000E+00 0.  1.
</event>
<event>
 7    1  0.6473813E-006  0.1027985E+03  0.7561462E-02  0.1274519E+00
          2   -1    0    0  501    0  0.00000000000E+00  0.00000000000E+00  0.10866022334E+03  0.10866022334E+03  0.00000000000E+00 0. -1.
         -2   -1    0    0    0  501 -0.00000000000E+00 -0.00000000000E+00 -0.12696352509E+03  0.12696352509E+03  0.00000000000E+00 0.  1.
         23    2    1    2    0    0 -0.19383914046E+02 -0.34302109777E+02 -0.36750602337E+02  0.13620283210E+03  0.12509290084E+03 0.  0.
          5    1    3    3  502    0 -0.48908976764E+02  0.30488257160E+02 -0.28417629185E+02  0.64394533007E+02  0.41800000000E+01 0. -1.
         -5    1    3    3    0  502  0.29525062719E+02 -0.64790366937E+02 -0.83329731524E+01  0.71808299088E+02  0.41800000000E+01 0. -1.
        -11    1    1    2    0    0 -0.23845233418E+02  0.19475713782E+02  0.38683574873E+02  0.49440039937E+02  0.00000000000E+00 0.  1.
         11    1    1    2    0    0  0.43229147463E+02  0.14826395995E+02 -0.20236274281E+02  0.49980876397E+02  0.00000000000E+00 0. -1.
</event>
<event>
 7    1  0.6473813E-006  0.1191776E+03  0.7561462E-02  0.1244460E+00
         -1   -1    0    0    0  501 -0.00000000000E+00  0.00000000000E+00  0.89041854212E+03  0.89041854212E+03  0.00000000000E+00 0.  1.
          1   -1    0    0  501    0  0.00000000000E+00 -0.00000000000E+00 -0.23383226014E+02  0.23383226014E+02  0.00000000000E+00 0. -1.
         23    2    1    2    0    0  0.78188547026E+02  0.57922519116E+02  0.45188824152E+03  0.47887231025E+03  0.12508892675E+03 0.  0.
          5    1    3    3  502    0  0.34708856992E+02 -0.12534696043E+02  0.26857083750E+02  0.45832288903E+02  0.41800000000E+01 0. -1.
         -5    1    3    3    0  502  0.43479690034E+02  0.70457215159E+02  0.42503115777E+03  0.43304002135E+03  0.41800000000E+01 0. -1.
        -11    1    1    2    0    0  0.79378841919E+01 -0.24804028474E+02  0.34319372126E+02  0.43082120852E+02  0.00000000000E+00 0.  1.
         11    1    1    2    0    0 -0.86126431217E+02 -0.33118490642E+02  0.38082770246E+03  0.39184733703E+03  0.00000000000E+00 0. -1.
</event>
<event>
 7    1  0.6473813E-006  0.8404808E+02  0.7561462E-02  0.1317941E+00
         -1   -1    0    0    0  501 -0.00000000000E+00  0.00000000000E+00  0.79145486896E+02  0.79145486896E+02  0.00000000000E+00 0.  1.
          1   -1    0    0  501    0  0.00000000000E+00 -0.00000000000E+00 -0.22390560806E+03  0.22390560806E+03  0.00000000000E+00 0. -1.
         23    2    1    2    0    0  0.15914436708E+02 -0.32792423769E+02 -0.28119471083E+01  0.13032098739E+03  0.12508813035E+03 0.  0.
          5    1    3    3  502    0  0.13968860058E+02  0.23000622179E+02  0.47694614567E+02  0.54921820169E+02  0.41800000000E+01 0.  1.
         -5    1    3    3    0  502  0.19455766496E+01 -0.55793045949E+02 -0.50506561675E+02  0.75399167217E+02  0.41800000000E+01 0.  1.
        -11    1    1    2    0    0 -0.45228692536E+02  0.32270837208E+02 -0.45161795420E+02  0.71600484134E+02  0.00000000000E+00 0.  1.
         11    1    1    2    0    0  0.29314255828E+02  0.52158656157E+00 -0.96786378639E+02  0.10112962344E+03  0.00000000000E+00 0. -1.
</event>
<event>
 7    1  0.6473813E-006  0.1678507E+03  0.7561462E-02  0.1180108E+00
         -2   -1    0    0    0  501 -0.00000000000E+00  0.00000000000E+00  0.79255827191E+02  0.79255827191E+02  0.00000000000E+00 0.  1.
          2   -1    0    0  501    0  0.00000000000E+00 -0.00000000000E+00 -0.79921641758E+03  0.79921641758E+03  0.00000000000E+00 0. -1.
         23    2    1    2    0    0  0.31582946046E+02  0.12908020417E+03 -0.49640494083E+02  0.18913502629E+03  0.12509475580E+03 0.  0.
          5    1    3    3  502    0  0.53214989852E+02  0.14514020666E+03 -0.36620947607E+02  0.15892161885E+03  0.41800000000E+01 0. -1.
         -5    1    3    3    0  502 -0.21632043806E+02 -0.16060002489E+02 -0.13019546475E+02  0.30213407448E+02  0.41800000000E+01 0. -1.
        -11    1    1    2    0    0  0.14074152649E+02 -0.96942324074E+02 -0.51626365677E+03  0.52547507959E+03  0.00000000000E+00 0. -1.
         11    1    1    2    0    0 -0.45657098694E+02 -0.32137880092E+02 -0.15405643954E+03  0.16386213889E+03  0.00000000000E+00 0.  1.
</event>
<event>
 7    1  0.6473813E-006  0.8631381E+02  0.7561462E-02  0.1312032E+00
         -2   -1    0    0    0  501 -0.00000000000E+00  0.00000000000E+00  0.36434822882E+02  0.36434822882E+02  0.00000000000E+00 0.  1.
          2   -1    0    0  501    0  0.00000000000E+00 -0.00000000000E+00 -0.38651634488E+03  0.38651634488E+03  0.00000000000E+00 0. -1.
         23    2    1    2    0    0 -0.18889762421E+02 -0.12338386449E+02 -0.12017209044E+03  0.17492344968E+03  0.12509125878E+03 0.  0.
          5    1    3    3  502    0 -0.33307303409E+02  0.30365795270E+02 -0.12147963541E+03  0.12963885298E+03  0.41800000000E+01 0.  1.
         -5    1    3    3    0  502  0.14417540988E+02 -0.42704181719E+02  0.13075449672E+01  0.45284596700E+02  0.41800000000E+01 0.  1.
        -11    1    1    2    0    0 -0.31122089833E+02  0.58262935592E+01 -0.15168446193E+03  0.15495388399E+03  0.00000000000E+00 0. -1.
         11    1    1    2    0    0  0.50011852254E+02  0.65120928899E+01 -0.78224969623E+02  0.93073834090E+02  0.00000000000E+00 0.  1.
</event>
<event>
 7    1  0.6473813E-006  0.1282734E+03  0.7561462E-02  0.1230040E+00
         -3   -1    0    0    0  501 -0.00000000000E+00  0.00000000000E+00  0.19364384117E+03  0.19364384117E+03  0.00000000000E+00 0.  1.
          3   -1    0    0  501    0  0.00000000000E+00 -0.00000000000E+00 -0.17293861648E+03  0.17293861648E+03  0.00000000000E+00 0. -1.
         23    2    1    2    0    0  0.65315896986E+02 -0.10669102183E+03  0.88203169090E+02  0.19767857850E+03  0.12509148980E+03 0.  0.
          5    1    3    3  502    0  0.63346710285E+02 -0.99276458743E+02  0.11791829103E+03  0.16670577892E+03  0.41800000000E+01 0. -1.
         -5    1    3    3    0  502  0.19691867011E+01 -0.74145630896E+01 -0.29715121941E+02  0.30972799583E+02  0.41800000000E+01 0. -1.
        -11    1    1    2    0    0 -0.54064654599E+02  0.55203339039E+02  0.70704310821E+01  0.77591149712E+02  0.00000000000E+00 0. -1.
         11    1    1    2    0    0 -0.11251242387E+02  0.51487682794E+02 -0.74568375482E+02  0.91312729434E+02  0.00000000000E+00 0.  1.
</event>
<event>
 7    1  0.6473813E-006  0.8820091E+02  0.7561462E-02  0.1307268E+00
         -3   -1    0    0    0  501 -0.00000000000E+00  0.00000000000E+00  0.39964374158E+03  0.39964374158E+03  0.00000000000E+00 0.  1.
          3   -1    0    0  501    0  0.00000000000E+00 -0.00000000000E+00 -0.33463735868E+02  0.33463735868E+02  0.00000000000E+00 0. -1.
         23    2    1    2    0    0 -0.25162636963E+02 -0.34491467837E+02  0.20205325807E+03  0.24144475711E+03  0.12508889634E+03 0.  0.
          5    1    3    3  502    0  0.89655975175E+01  0.18782498194E+02 -0.74959678957E+01  0.22512798847E+02  0.41800000000E+01 0. -1.
         -5    1    3    3    0  502 -0.34128234481E+02 -0.53273966030E+02  0.20954922597E+03  0.21893195827E+03  0.41800000000E+01 0. -1.
        -11    1    1    2    0    0 -0.27239627582E+02  0.27832162957E+02  0.10695025850E+03  0.11381996485E+03  0.00000000000E+00 0.  1.
         11    1    1    2    0    0  0.52402264545E+02  0.66593048798E+01  0.57176489133E+02  0.77842755479E+02  0.00000000000E+00 0. -1.
</event>
<event>
 7    1  0.6473813E-006  0.1501570E+03  0.7561462E-02  0.1200280E+00
         -2   -1    0    0    0  501 -0.00000000000E+00  0.00000000000E+00  0.51162870890E+03  0.51162870890E+03  0.00000000000E+00 0.  1.
          2   -1    0    0  501    0  0.00000000000E+00 -0.00000000000E+00 -0.51649835723E+02  0.51649835723E+02  0.00000000000E+00 0. -1.
         23    2    1    2    0    0  0.15439284195E+02 -0.11277104314E+03  0.31580129732E+03  0.35823664904E+03  0.12508939867E+03 0.  0.
          5    1    3    3  502    0 -0.33140887190E+02  0.88303219812E-01  0.22676170387E+02  0.40373348940E+02  0.41800000000E+01 0.  1.
         -5    1    3    3    0  502  0.48580171384E+02 -0.11285934636E+03  0.29312512693E+03  0.31786330010E+03  0.41800000000E+01 0.  1.
        -11    1    1    2    0    0 -0.49782774925E+02  0.89720879249E+02  0.11665860953E+03  0.15536213190E+03  0.00000000000E+00 0.  1.
         11    1    1    2    0    0  0.34343490730E+02  0.23050163895E+02  0.27518966327E+02  0.49679763675E+02  0.00000000000E+00 0. -1.
</event>
<event>
 7    1  0.6473813E-006  0.1106583E+03  0.7561462E-02  0.1259356E+00
          2   -1    0    0  501    0  0.00000000000E+00  0.00000000000E+00  0.41767597788E+03  0.41767597788E+03  0.00000000000E+00 0. -1.
         -2   -1    0    0    0  501 -0.00000000000E+00 -0.00000000000E+00 -0.36818260737E+02  0.36818260737E+02  0.00000000000E+00 0.  1.
         23    2    1    2    0    0 -0.45919948061E+02  0.23128575536E+02  0.15529359986E+03  0.20592995733E+03  0.12508985783E+03 0.  0.
          5    1    3    3  502    0 -0.88245326937E+02  0.26870356179E+02  0.11142189280E+03  0.14471200490E+03  0.41800000000E+01 0.  1.
         -5    1    3    3    0  502  0.42325378875E+02 -0.37417806425E+01  0.43871707059E+02  0.61217952429E+02  0.41800000000E+01 0.  1.
        -11    1    1    2    0    0 -0.15261293379E+02  0.84351983642E+01  0.59687941406E+01  0.18430576511E+02  0.00000000000E+00 0.  1.
         11    1    1    2    0    0  0.61181241440E+02 -0.31563773901E+02  0.21959532315E+03  0.23013370478E+03  0.00000000000E+00 0. -1.
</event>
<event>
 7    1  0.6473813E-006  0.1237023E+03  0.7561462E-02  0.1237111E+00
          1   -1    0    0  501    0  0.00000000000E+00  0.00000000000E+00  0.70609557766E+03  0.70609557766E+03  0.00000000000E+00 0. -1.
         -1   -1    0    0    0  501 -0.00000000000E+00 -0.00000000000E+00 -0.25313529376E+02  0.25313529376E+02  0.00000000000E+00 0.  1.
         23    2    1    2    0    0  0.13514993202E+02  0.68550505005E+02  0.27347547283E+03  0.30873763880E+03  0.12509303974E+03 0.  0.
          5    1    3    3  502    0 -0.38184806109E+02  0.77786822498E+02  0.20287879264E+03  0.22064937361E+03  0.41800000000E+01 0.  1.
         -5    1    3    3    0  502  0.51699799311E+02 -0.92363174929E+01  0.70596680195E+02  0.88088265190E+02  0.41800000000E+01 0.  1.
        -11    1    1    2    0    0 -0.41193008220E+02 -0.88094846130E+01  0.10218942345E+03  0.11053121374E+03  0.00000000000E+00 0. -1.
         11    1    1    2    0    0  0.27678015018E+02 -0.59741020392E+02  0.30511715199E+03  0.31214025449E+03  0.00000000000E+00 0.  1.
</event>
<event>
 7    1  0.6473813E-006  0.7301590E+02  0.7561462E-02  0.1350128E+00
          1   -1    0    0  501    0  0.00000000000E+00  0.00000000000E+00  0.54259378926E+02  0.54259378926E+02  0.00000000000E+00 0. -1.
         -1   -1    0    0    0  501 -0.00000000000E+00 -0.00000000000E+00 -0.26224458277E+03  0.26224458277E+03  0.00000000000E+00 0.  1.
         23    2    1    2    0    0  0.40419211163E+02 -0.14027695288E+02 -0.17466123399E+03  0.21906689170E+03  0.12511301895E+03 0.  0.
          5    1    3    3  502    0  0.56906154724E+02 -0.40403461960E+02 -0.39484629806E+02  0.80294822839E+02  0.41800000000E+01 0. -1.
         -5    1    3    3    0  502 -0.16486943561E+02  0.26375766672E+02 -0.13517660419E+03  0.13877206886E+03  0.41800000000E+01 0. -1.
        -11    1    1    2    0    0 -0.29671677842E+02  0.38331374393E+01  0.23921588538E+02  0.38305923913E+02  0.00000000000E+00 0. -1.
         11    1    1    2    0    0 -0.10747533321E+02  0.10194557849E+02 -0.57245558394E+02  0.59131146091E+02  0.00000000000E+00 0.  1.
</event>
<event>
 7    1  0.6473813E-006  0.1359992E+03  0.7561462E-02  0.1218816E+00
         -1   -1    0    0    0  501 -0.00000000000E+00  0.00000000000E+00  0.30667690010E+02  0.30667690010E+02  0.00000000000E+00 0.  1.
          1   -1    0    0  501    0  0.00000000000E+00 -0.00000000000E+00 -0.77298422265E+03  0.77298422265E+03  0.00000000000E+00 0. -1.
         23    2    1    2    0    0  0.98902520939E+02  0.30379907580E+02 -0.42846283856E+03  0.45818354028E+03  0.12508838927E+03 0.  0.
          5    1    3    3  502    0  0.76801153257E+02 -0.28765880128E+02 -0.33769226293E+03  0.34753335069E+03  0.41800000000E+01 0. -1.
         -5    1    3    3    0  502  0.22101367683E+02  0.59145787707E+02 -0.90770575628E+02  0.11065018959E+03  0.41800000000E+01 0. -1.
        -11    1    1    2    0    0 -0.28090806449E+02 -0.46176495122E+02 -0.56945559291E+02  0.78512157222E+02  0.00000000000E+00 0.  1.
         11    1    1    2    0    0 -0.70811714490E+02  0.15796587542E+02 -0.25690813479E+03  0.26695621515E+03  0.00000000000E+00 0. -1.
</event>
<event>
 7    1  0.6473813E-006  0.1701974E+03  0.7561462E-02  0.1177642E+00
         -2   -1    0    0    0  501 -0.00000000000E+00  0.00000000000E+00  0.41268775199E+02  0.41268775199E+02  0.00000000000E+00 0.  1.
          2   -1    0    0  501    0  0.00000000000E+00 -0.00000000000E+00 -0.82205263812E+03  0.82205263812E+03  0.00000000000E+00 0. -1.
         23    2    1    2    0    0  0.25749840623E+01  0.13331987562E+03 -0.26230781628E+03  0.31973829850E+03  0.12508544786E+03 0.  0.
          5    1    3    3  502    0 -0.53077106547E+02  0.98568570187E+02 -0.19956623452E+03  0.22886043046E+03  0.41800000000E+01 0.  1.
         -5    1    3    3    0  502  0.55652090609E+02  0.34751305432E+02 -0.62741581764E+02  0.90877868046E+02  0.41800000000E+01 0.  1.
        -11    1    1    2    0    0  0.26441956443E+02 -0.13085586675E+03 -0.40530900585E+03  0.42672921759E+03  0.00000000000E+00 0.  1.
         11    1    1    2    0    0 -0.29016940505E+02 -0.24640088669E+01 -0.11316704079E+03  0.11685389722E+03  0.00000000000E+00 0. -1.
</event>
<event>
 7    1  0.6473813E-006  0.2043141E+03  0.7561462E-02  0.1146149E+00
         -1   -1    0    0    0  501 -0.00000000000E+00  0.00000000000E+00  0.13256746616E+03  0.13256746616E+03  0.00000000000E+00 0.  1.
          1   -1    0    0  501    0  0.00000000000E+00 -0.00000000000E+00 -0.48937415934E+03  0.48937415934E+03  0.00000000000E+00 0. -1.
         23    2    1    2    0    0  0.46292859624E+01  0.19321586293E+03 -0.30355807816E+02  0.23221162891E+03  0.12508783136E+03 0.  0.
          5    1    3    3  502    0 -0.26257820653E+02  0.79713477839E+02 -0.68572074231E+02  0.10845880997E+03  0.41800000000E+01 0.  1.
         -5    1    3    3    0  502  0.30887106616E+02  0.11350238509E+03  0.38216266415E+02  0.12375281894E+03  0.41800000000E+01 0.  1.
        -11    1    1    2    0    0  0.34649962502E+02 -0.86914788007E+02 -0.10279900449E+03  0.13900516393E+03  0.00000000000E+00 0.  1.
         11    1    1    2    0    0 -0.39279248464E+02 -0.10630107492E+03 -0.22365188088E+03  0.25072483266E+03  0.00000000000E+00 0. -1.
</event>
<event>
 6    1  0.6473813E-006  0.2276880E+03  0.7561462E-02  0.1128278E+00
          1   -1    0    0  501    0  0.00000000000E+00  0.00000000000E+00  0.58082562322E+03  0.58082562322E+03  0.00000000000E+00 0. -1.
         -1   -1    0    0    0  501 -0.00000000000E+00 -0.00000000000E+00 -0.12529845818E+03  0.12529845818E+03  0.00000000000E+00 0.  1.
          5    1    1    2  502    0 -0.90049374628E+02  0.17963631128E+03  0.90388242208E+02  0.22037604437E+03  0.41800000000E+01 0. -1.
         -5    1    1    2    0  502  0.46551206495E+02 -0.13973159287E+03  0.55203716664E+02  0.15734311426E+03  0.41800000000E+01 0.  1.
        -11    1    1    2    0    0 -0.23780867417E+02  0.72826229502E+01  0.97690557531E+02  0.10080680177E+03  0.00000000000E+00 0. -1.
         11    1    1    2    0    0  0.67279035551E+02 -0.47187341357E+02  0.21224464864E+03  0.22759812100E+03  0.00000000000E+00 0.  1.
</event>
<event>
 7    1  0.6473813E-006  0.6896300E+02  0.7561462E-02  0.1363655E+00
         -4   -1    0    0    0  501 -0.00000000000E+00  0.00000000000E+00  0.12840089386E+03  0.12840089386E+03  0.00000000000E+00 0.  1.
          4   -1    0    0  501    0  0.00000000000E+00 -0.00000000000E+00 -0.14010868537E+03  0.14010868537E+03  0.00000000000E+00 0. -1.
         23    2    1    2    0    0  0.29526025046E+02  0.87783239296E+01  0.65811207905E+02  0.14466508862E+03  0.12509207670E+03 0.  0.
          5    1    3    3  502    0  0.16064352131E+02 -0.10694900104E+02  0.10052174758E+03  0.10244285448E+03  0.41800000000E+01 0. -1.
         -5    1    3    3    0  502  0.13461672916E+02  0.19473224034E+02 -0.34710539671E+02  0.42222234145E+02  0.41800000000E+01 0. -1.
        -11    1    1    2    0    0  0.25714006198E+02 -0.25711313346E+02 -0.16889414641E+02  0.40094065342E+02  0.00000000000E+00 0. -1.
         11    1    1    2    0    0 -0.55240031245E+02  0.16932989417E+02 -0.60629584780E+02  0.83750425271E+02  0.00000000000E+00 0.  1.
</event>
<event>
 7    1  0.6473813E-006  0.1126317E+03  0.7561462E-02  0.1255773E+00
          1   -1    0    0  501    0  0.00000000000E+00  0.00000000000E+00  0.50858451674E+03  0.50858451674E+03  0.00000000000E+00 0. -1.
         -1   -1    0    0    0  501 -0.00000000000E+00 -0.00000000000E+00 -0.27844739312E+02  0.27844739312E+02  0.00000000000E+00 0.  1.
         23    2    1    2    0    0 -0.18883740005E+02 -0.93483701197E+01  0.20365116503E+03  0.23993155154E+03  0.12509742101E+03 0.  0.
          5    1    3    3  502    0 -0.22738962174E+02  0.53489305778E+02  0.63228556927E+02  0.85985400181E+02  0.41800000000E+01 0.  1.
         -5    1    3    3    0  502  0.38552221692E+01 -0.62837675897E+02  0.14042260811E+03  0.15394615136E+03  0.41800000000E+01 0.  1.
        -11    1    1    2    0    0  0.60965422653E+02  0.10166409377E+02  0.18942325587E+03  0.19925187202E+03  0.00000000000E+00 0. -1.
         11    1    1    2    0    0 -0.42081682648E+02 -0.81803925760E+00  0.87665356522E+02  0.97245832491E+02  0.00000000000E+00 0.  1.
</event>
<event>
 7    1  0.6473813E-006  0.1091670E+03  0.7561462E-02  0.1262120E+00
         -2   -1    0    0    0  501 -0.00000000000E+00  0.00000000000E+00  0.76005995589E+02  0.76005995589E+02  0.00000000000E+00 0.  1.
          2   -1    0    0  501    0  0.00000000000E+00 -0.00000000000E+00 -0.20260867563E+03  0.20260867563E+03  0.00000000000E+00 0. -1.
         23    2    1    2    0    0  0.28080448264E+02 -0.46145018755E+02 -0.36941053968E+02  0.14117550577E+03  0.12509199667E+03 0.  0.
          5    1    3    3  502    0 -0.26264731129E+02  0.31543580459E+02 -0.87728672172E+01  0.42181384148E+02  0.41800000000E+01 0. -1.
         -5    1    3    3    0  502  0.54345179394E+02 -0.77688599214E+02 -0.28168186751E+02  0.98994121623E+02  0.41800000000E+01 0. -1.
        -11    1    1    2    0    0  0.19597329246E+02  0.19067509753E+02  0.52366612291E+01  0.27839681438E+02  0.00000000000E+00 0. -1.
         11    1    1    2    0    0 -0.47677777510E+02  0.27077509002E+02 -0.94898287305E+02  0.10959948401E+03  0.00000000000E+00 0.  1.
</event>
<event>
 7    1  0.6473813E-006  0.1103738E+03  0.7561462E-02  0.1259879E+00
          2   -1    0    0  501    0  0.00000000000E+00  0.00000000000E+00  0.21296322923E+02  0.21296322923E+02  0.00000000000E+00 0. -1.
         -2   -1    0    0    0  501 -0.00000000000E+00 -0.00000000000E+00 -0.68490673463E+03  0.68490673463E+03  0.00000000000E+00 0.  1.
         23    2    1    2    0    0 -0.48683928994E+02 -0.54438301980E+01 -0.44481610699E+03  0.46465962513E+03  0.12508971960E+03 0.  0.
          5    1    3    3  502    0  0.32340275333E+02 -0.34338066342E+02 -0.13348278634E+03  0.14163376313E+03  0.41800000000E+01 0.  1.
         -5    1    3    3    0  502 -0.81024204327E+02  0.28894236144E+02 -0.31133332065E+03  0.32302586200E+03  0.41800000000E+01 0.  1.
        -11    1    1    2    0    0 -0.45616834749E+01 -0.25352140560E+02 -0.17705358117E+02  0.31257314235E+02  0.00000000000E+00 0. -1.
         11    1    1    2    0    0  0.53245612469E+02  0.30795970758E+02 -0.20108894660E+03  0.21028611820E+03  0.00000000000E+00 0.  1.
</event>
<event>
 7    1  0.6473813E-006  0.1090217E+03  0.7561462E-02  0.1262392E+00
          1   -1    0    0  501    0  0.00000000000E+00  0.00000000000E+00  0.14860083105E+02  0.14860083105E+02  0.00000000000E+00 0. -1.
         -1   -1    0    0    0  501 -0.00000000000E+00 -0.00000000000E+00 -0.84433454685E+03  0.84433454685E+03  0.00000000000E+00 0.  1.
         23    2    1    2    0    0 -0.27196760354E+02  0.92977715310E+01 -0.48413194472E+03  0.50085765146E+03  0.12509410378E+03 0.  0.
          5    1    3    3  502    0 -0.52799337771E+02 -0.43194728865E+02 -0.29782638368E+03  0.30556763881E+03  0.41800000000E+01 0.  1.
         -5    1    3    3    0  502  0.25602577417E+02  0.52492500396E+02 -0.18630556104E+03  0.19529001265E+03  0.41800000000E+01 0.  1.
        -11    1    1    2    0    0 -0.27762937798E+00 -0.45610000100E+02 -0.22699002726E+03  0.23152715102E+03  0.00000000000E+00 0.  1.
         11    1    1    2    0    0  0.27474389732E+02  0.36312228569E+02 -0.11835249177E+03  0.12680982747E+03  0.00000000000E+00 0. -1.
</event>
<event>
 7    1  0.6473813E-006  0.9189498E+02  0.7561462E-02  0.1298327E+00
          1   -1    0    0  501    0  0.00000000000E+00  0.00000000000E+00  0.50090452369E+03  0.50090452369E+03  0.00000000000E+00 0. -1.
         -1   -1    0    0    0  501 -0.00000000000E+00 -0.00000000000E+00 -0.38230388199E+02  0.38230388199E+02  0.00000000000E+00 0.  1.
         23    2    1    2    0    0  0.70507286143E+02  0.60541062886E-01  0.15762151237E+03  0.21322175549E+03  0.12509074621E+03 0.  0.
          5    1    3    3  502    0  0.12689786527E+02  0.92027557943E+01  0.15354043364E+03  0.15439513775E+03  0.41800000000E+01 0.  1.
         -5    1    3    3    0  502  0.57817499616E+02 -0.91422147314E+01  0.40810787304E+01  0.58826617747E+02  0.41800000000E+01 0.  1.
        -11    1    1    2    0    0  0.14919504985E+01 -0.30626714818E+02  0.45791773735E+02  0.55109963878E+02  0.00000000000E+00 0. -1.
         11    1    1    2    0    0 -0.71999236641E+02  0.30566173755E+02  0.25926084939E+03  0.27080319252E+03  0.00000000000E+00 0.  1.
</event>
<event>
 7    1  0.6473813E-006  0.9856447E+02  0.7561462E-02  0.1283344E+00
          4   -1    0    0  501    0  0.00000000000E+00  0.00000000000E+00  0.10875816052E+03  0.10875816052E+03  0.00000000000E+00 0. -1.
         -4   -1    0    0    0  501 -0.00000000000E+00 -0.00000000000E+00 -0.11468927272E+03  0.11468927272E+03  0.00000000000E+00 0.  1.
         23    2    1    2    0    0  0.18917712166E+02  0.16610684929E+02 -0.63685032225E+01  0.12776065761E+03  0.12509369733E+03 0.  0.
          5    1    3    3  502    0 -0.16380184487E+02  0.55199601272E+02  0.28883808144E+02  0.64552716421E+02  0.41800000000E+01 0.  1.
         -5    1    3    3    0  502  0.35297896652E+02 -0.38588916343E+02 -0.35252311367E+02  0.63207941189E+02  0.41800000000E+01 0.  1.
        -11    1    1    2    0    0  0.32324234354E+02  0.20772673827E+01 -0.19273214649E+02  0.37691218728E+02  0.00000000000E+00 0.  1.
         11    1    1    2    0    0 -0.51241946519E+02 -0.18687952312E+02  0.19710605670E+02  0.57995556903E+02  0.00000000000E+00 0. -1.
</event>
<event>
 7    1  0.6473813E-006  0.7617752E+02  0.7561462E-02  0.1340263E+00
          1   -1    0    0  501    0  0.00000000000E+00  0.00000000000E+00  0.45496216498E+03  0.45496216498E+03  0.00000000000E+00 0. -1.
         -1   -1    0    0    0  501 -0.00000000000E+00 -0.00000000000E+00 -0.40520786921E+02  0.40520786921E+02  0.00000000000E+00 0.  1.
         23    2    1    2    0    0 -0.11811204020E+02 -0.74597417630E+02  0.17172149424E+03  0.22547610192E+03  0.12508765604E+03 0.  0.
          5    1    3    3  502    0 -0.18114272096E+01 -0.12762039000E+02  0.16126484333E+03  0.16183316410E+03  0.41800000000E+01 0. -1.
         -5    1    3    3    0  502 -0.99997768109E+01 -0.61835378630E+02  0.10456650916E+02  0.63642937825E+02  0.41800000000E+01 0. -1.
        -11    1    1    2    0    0  0.10159042819E+02  0.36343826196E+02  0.22441735727E+03  0.22756807794E+03  0.00000000000E+00 0. -1.
         11    1    1    2    0    0  0.16521612014E+01  0.38253591433E+02  0.18302526543E+02  0.42438772037E+02  0.00000000000E+00 0.  1.
</event>
<event>
 7    1  0.6473813E-006  0.7915386E+02  0.7561462E-02  0.1331470E+00
         -1   -1    0    0    0  501 -0.00000000000E+00  0.00000000000E+00  0.40840292804E+02  0.40840292804E+02  0.00000000000E+00 0.  1.
          1   -1    0    0  501    0  0.00000000000E+00 -0.00000000000E+00 -0.36191043870E+03  0.36191043870E+03  0.00000000000E+00 0. -1.
         23    2    1    2    0    0  0.22855842741E+02 -0.23632400669E+02 -0.11150827113E+03  0.17077360720E+03  0.12509456613E+03 0.  0.
          5    1    3    3  502    0 -0.15117620011E+02 -0.12673261944E+02 -0.12664850056E+03  0.12824378775E+03  0.41800000000E+01 0.  1.
         -5    1    3    3    0  502  0.37973462752E+02 -0.10959138725E+02  0.15140229426E+02  0.42529819446E+02  0.41800000000E+01 0.  1.
        -11    1    1    2    0    0  0.28646742883E+02 -0.16542743865E+02 -0.55030085696E+02  0.64207543047E+02  0.00000000000E+00 0.  1.
         11    1    1    2    0    0 -0.51502585624E+02  0.40175144534E+02 -0.15453178907E+03  0.16776958126E+03  0.00000000000E+00 0. -1.
</event>
<event>
 7    1  0.6473813E-006  0.1228440E+03  0.7561462E-02  0.1238478E+00
         -1   -1    0    0    0  501 -0.00000000000E+00  0.00000000000E+00  0.15191845373E+03  0.15191845373E+03  0.00000000000E+00 0.  1.
          1   -1    0    0  501    0  0.00000000000E+00 -0.00000000000E+00 -0.16464435291E+03  0.16464435291E+03  0.00000000000E+00 0. -1.
         23    2    1    2    0    0 -0.96141990737E+02 -0.28718469932E+02  0.46349216703E+02  0.16691862768E+03  0.12508215492E+03 0.  0.
          5    1    3    3  502    0 -0.29750525207E+02  0.36438422352E+02  0.56055241192E+02  0.73297440874E+02  0.41800000000E+01 0. -1.
         -5    1    3    3    0  502 -0.66391465530E+02 -0.65156892285E+02 -0.97060244890E+01  0.93621186805E+02  0.41800000000E+01 0. -1.
        -11    1    1    2    0    0  0.71275701170E+02  0.57721377145E+01 -0.81979436366E+02  0.10878497662E+03  0.00000000000E+00 0. -1.
         11    1    1    2    0    0  0.24866289567E+02  0.22946332218E+02  0.22904320481E+02  0.40859202339E+02  0.00000000000E+00 0.  1.
</event>
<event>
 6    1  0.6473813E-006  0.1274991E+03  0.7561462E-02  0.1231214E+00
         -3   -1    0    0    0  501 -0.00000000000E+00  0.00000000000E+00  0.11715030936E+04  0.11715030936E+04  0.00000000000E+00 0.  1.
          3   -1    0    0  501    0  0.00000000000E+00 -0.00000000000E+00 -0.17721360329E+02  0.17721360329E+02  0.00000000000E+00 0. -1.
          5    1    1    2  502    0 -0.10754162792E+03 -0.84120617852E+01  0.39401998691E+03  0.40854031258E+03  0.41800000000E+01 0. -1.
         -5    1    1    2    0  502  0.25814092944E+02  0.31522803679E+02  0.37220507520E+03  0.37445179256E+03  0.41800000000E+01 0.  1.
        -11    1    1    2    0    0  0.92611612491E+02 -0.19701732708E+02  0.38197333375E+03  0.39353360305E+03  0.00000000000E+00 0.  1.
         11    1    1    2    0    0 -0.10884077516E+02 -0.34090091858E+01  0.55833374479E+01  0.12698745767E+02  0.00000000000E+00 0. -1.
</event>
<event>
 7    1  0.7448168E-006  0.4534836E+03  0.7561462E-02  0.1026688E+00
          3   -1    0    0  501    0  0.00000000000E+00  0.00000000000E+00  0.10346874701E+04  0.10346874701E+04  0.00000000000E+00 0. -1.
         -3   -1    0    0    0  501 -0.00000000000E+00 -0.00000000000E+00 -0.23366986351E+03  0.23366986351E+03  0.00000000000E+00 0.  1.
         23    2    1    2    0    0  0.43888368980E+03 -0.86348202623E+02  0.17945543397E+03  0.49792225788E+03  0.12508963523E+03 0.  0.
          5    1    3    3  502    0  0.39358233985E+03 -0.10733987987E+03  0.18412289526E+03  0.44760207887E+03  0.41800000000E+01 0. -1.
         -5    1    3    3    0  502  0.45301349952E+02  0.20991677242E+02 -0.46674612874E+01  0.50320179012E+02  0.41800000000E+01 0. -1.
        -11    1    1    2    0    0 -0.13631524508E+03  0.44739888692E+02  0.26163878714E+03  0.29839296007E+03  0.00000000000E+00 0. -1.
         11    1    1    2    0    0 -0.30256844472E+03  0.41608313931E+02  0.35992338547E+03  0.47204211564E+03  0.00000000000E+00 0.  1.
</event>
<event>
 7    1  0.6473813E-006  0.1297578E+03  0.7561462E-02  0.1227816E+00
         -2   -1    0    0    0  501 -0.00000000000E+00  0.00000000000E+00  0.17638938563E+02  0.17638938563E+02  0.00000000000E+00 0.  1.
          2   -1    0    0  501    0  0.00000000000E+00 -0.00000000000E+00 -0.10130526850E+04  0.10130526850E+04  0.00000000000E+00 0. -1.
         23    2    1    2    0    0 -0.30980848955E+02  0.69654264984E+02 -0.48218421445E+03  0.50394586518E+03  0.12509312024E+03 0.  0.
          5    1    3    3  502    0  0.26944881132E+02  0.81256263148E+02 -0.24816387234E+03  0.26254787535E+03  0.41800000000E+01 0. -1.
         -5    1    3    3    0  502 -0.57925730087E+02 -0.11601998163E+02 -0.23402034211E+03  0.24139798982E+03  0.41800000000E+01 0. -1.
        -11    1    1    2    0    0  0.27394757216E+02 -0.89920763549E+02 -0.46331215593E+03  0.47275191197E+03  0.00000000000E+00 0. -1.
         11    1    1    2    0    0  0.35860917384E+01  0.20266498564E+02 -0.49917376019E+02  0.53993846378E+02  0.00000000000E+00 0.  1.
</event>
<event>
 7    1  0.6473813E-006  0.3711458E+03  0.7561462E-02  0.1054256E+00
         -2   -1    0    0    0  501 -0.00000000000E+00  0.00000000000E+00  0.25230797643E+03  0.25230797643E+03  0.00000000000E+00 0.  1.
          2   -1    0    0  501    0  0.00000000000E+00 -0.00000000000E+00 -0.57193124110E+03  0.57193124110E+03  0.00000000000E+00 0. -1.
         23    2    1    2    0    0  0.32976722862E+03 -0.14806722294E+03 -0.20612302887E+03  0.43450586040E+03  0.12505323712E+03 0.  0.
          5    1    3    3  502    0  0.13933548754E+03 -0.12271518104E+03 -0.13503789073E+03  0.22962164114E+03  0.41800000000E+01 0. -1.
         -5    1    3    3    0  502  0.19043174108E+03 -0.25352041899E+02 -0.71085138132E+02  0.20488421926E+03  0.41800000000E+01 0. -1.
        -11    1    1    2    0    0 -0.80692254957E+02  0.15172151546E+02  0.77798911850E+01  0.82474001355E+02  0.00000000000E+00 0.  1.
         11    1    1    2    0    0 -0.24907497367E+03  0.13289507140E+03 -0.12128012698E+03  0.30725935577E+03  0.00000000000E+00 0. -1.
</event>
<event>
 7    1  0.6473813E-006  0.9055113E+02  0.7561462E-02  0.1301523E+00
          2   -1    0    0  501    0  0.00000000000E+00  0.00000000000E+00  0.70859040640E+03  0.70859040640E+03  0.00000000000E+00 0. -1.
         -2   -1    0    0    0  501 -0.00000000000E+00 -0.00000000000E+00 -0.20255134039E+02  0.20255134039E+02  0.00000000000E+00 0.  1.
         23    2    1    2    0    0 -0.37286052928E+01 -0.50027275941E+02  0.35963089633E+03  0.38405391532E+03  0.12508556051E+03 0.  0.
          5    1    3    3  502    0  0.24862080903E+02 -0.21225641912E+01  0.30436590647E+03  0.30541562790E+03  0.41800000000E+01 0. -1.
         -5    1    3    3    0  502 -0.28590686196E+02 -0.47904711750E+02  0.55264989860E+02  0.78638287425E+02  0.41800000000E+01 0. -1.
        -11    1    1    2    0    0  0.39668973907E+02  0.50117789213E+02  0.25359758009E+03  0.26152849350E+03  0.00000000000E+00 0. -1.
         11    1    1    2    0    0 -0.35940368614E+02 -0.90513272132E-01  0.75106795948E+02  0.83263131615E+02  0.00000000000E+00 0.  1.
</event>
<event>
 7    1  0.6473813E-006  0.1416664E+03  0.7561462E-02  0.1211104E+00
         -1   -1    0    0    0  501 -0.00000000000E+00  0.00000000000E+00  0.26831541761E+02  0.26831541761E+02  0.00000000000E+00 0.  1.
          1   -1    0    0  501    0  0.00000000000E+00 -0.00000000000E+00 -0.90665681262E+03  0.90665681262E+03  0.00000000000E+00 0. -1.
         23    2    1    2    0    0 -0.10118964529E+03 -0.38103393477E+02 -0.39153810394E+03  0.42501938460E+03  0.12509267580E+03 0.  0.
          5    1    3    3  502    0 -0.49661487611E+02  0.31646369973E+02 -0.26542439343E+03  0.27191053145E+03  0.41800000000E+01 0.  1.
         -5    1    3    3    0  502 -0.51528157678E+02 -0.69749763450E+02 -0.12611371051E+03  0.15310885315E+03  0.41800000000E+01 0.  1.
        -11    1    1    2    0    0  0.27736292165E+02 -0.27452156571E+02 -0.88224830407E+02  0.96470428131E+02  0.00000000000E+00 0.  1.
         11    1    1    2    0    0  0.73453353123E+02  0.65555550048E+02 -0.40006233652E+03  0.41199854166E+03  0.00000000000E+00 0. -1.
</event>
<event>
 7    1  0.6473813E-006  0.1385790E+03  0.7561462E-02  0.1215254E+00
         -2   -1    0    0    0  501 -0.00000000000E+00  0.00000000000E+00  0.42152712086E+02  0.42152712086E+02  0.00000000000E+00 0. -1.
          2   -1    0    0  501    0  0.00000000000E+00 -0.00000000000E+00 -0.50029413954E+03  0.50029413954E+03  0.00000000000E+00 0.  1.
         23    2    1    2    0    0  0.33116912114E+02 -0.89913528955E+02 -0.25385612782E+03  0.29878852988E+03  0.12510187609E+03 0.  0.
          5    1    3    3  502    0 -0.12848626096E+02 -0.10651533592E+03 -0.15673637303E+03  0.18998517576E+03  0.41800000000E+01 0.  1.
         -5    1    3    3    0  502  0.45965538210E+02  0.16601806966E+02 -0.97119754789E+02  0.10880335412E+03  0.41800000000E+01 0.  1.
        -11    1    1    2    0    0 -0.52527856994E+02  0.36653645226E+02 -0.56633167716E+02  0.85498427788E+02  0.00000000000E+00 0. -1.
         11    1    1    2    0    0  0.19410944880E+02  0.53259883729E+02 -0.14765213192E+03  0.15815989396E+03  0.00000000000E+00 0.  1.
</event>
<event>
 7    1  0.6473813E-006  0.5966495E+02  0.7561462E-02  0.1399243E+00
          2   -1    0    0  501    0  0.00000000000E+00  0.00000000000E+00  0.10266103839E+03  0.10266103839E+03  0.00000000000E+00 0. -1.
         -2   -1    0    0    0  501 -0.00000000000E+00 -0.00000000000E+00 -0.18518803158E+03  0.18518803158E+03  0.00000000000E+00 0.  1.
         23    2    1    2    0    0  0.19170899205E+02  0.30859263549E+02 -0.12692911225E+03  0.18187443268E+03  0.12508993645E+03 0.  0.
          5    1    3    3  502    0 -0.14593464808E+02  0.12194197363E+02 -0.13967756206E+03  0.14102822911E+03  0.41800000000E+01 0. -1.
         -5    1    3    3    0  502  0.33764364014E+02  0.18665066187E+02  0.12748449804E+02  0.40846203562E+02  0.41800000000E+01 0. -1.
        -11    1    1    2    0    0  0.16326851933E+02 -0.15007145220E+02 -0.20577974565E+02  0.30252826958E+02  0.00000000000E+00 0.  1.
         11    1    1    2    0    0 -0.35497751138E+02 -0.15852118329E+02  0.64980093629E+02  0.75721810329E+02  0.00000000000E+00 0. -1.
</event>
<event>
 7    1  0.6473813E-006  0.7081450E+02  0.7561462E-02  0.1357345E+00
          1   -1    0    0  501    0  0.00000000000E+00  0.00000000000E+00  0.17349611947E+03  0.17349611947E+03  0.00000000000E+00 0. -1.
         -1   -1    0    0    0  501 -0.00000000000E+00 -0.00000000000E+00 -0.94322107385E+02  0.94322107385E+02  0.00000000000E+00 0.  1.
         23    2    1    2    0    0 -0.56280563587E+02 -0.33822524734E+01  0.30204442596E-01  0.13721007822E+03  0.12509061989E+03 0.  0.
          5    1    3    3  502    0 -0.46030342039E+02 -0.22982716634E+02 -0.56400216474E+02  0.76455571873E+02  0.41800000000E+01 0. -1.
         -5    1    3    3    0  502 -0.10250221548E+02  0.19600464161E+02  0.56430420916E+02  0.60754506351E+02  0.41800000000E+01 0. -1.
        -11    1    1    2    0    0  0.13143883527E+02 -0.15576434397E+02  0.80928380077E+02  0.83455315496E+02  0.00000000000E+00 0. -1.
         11    1    1    2    0    0  0.43136680059E+02  0.18958686870E+02 -0.17845724299E+01  0.47152833140E+02  0.00000000000E+00 0.  1.
</event>
<event>
 7    1  0.6473813E-006  0.1004218E+03  0.7561462E-02  0.1279411E+00
          1   -1    0    0  501    0  0.00000000000E+00  0.00000000000E+00  0.27699709592E+02  0.27699709592E+02  0.00000000000E+00 0. -1.
         -1   -1    0    0    0  501 -0.00000000000E+00 -0.00000000000E+00 -0.54118277290E+03  0.54118277290E+03  0.00000000000E+00 0.  1.
         23    2    1    2    0    0  0.46896525754E+02 -0.32762436407E+02 -0.35225375397E+03  0.37815704407E+03  0.12508949367E+03 0.  0.
          5    1    3    3  502    0  0.53186275213E+02  0.26536078598E+02 -0.81950191659E+02  0.10132250318E+03  0.41800000000E+01 0.  1.
         -5    1    3    3    0  502 -0.62897494592E+01 -0.59298515005E+02 -0.27030356231E+03  0.27683454089E+03  0.41800000000E+01 0.  1.
        -11    1    1    2    0    0 -0.25706510052E+01  0.36875055220E+02 -0.18738730565E+02  0.41442948341E+02  0.00000000000E+00 0. -1.
         11    1    1    2    0    0 -0.44325874749E+02 -0.41126188130E+01 -0.14249057877E+03  0.14928249008E+03  0.00000000000E+00 0.  1.
</event>
<event>
 7    1  0.6473813E-006  0.1061070E+03  0.7561462E-02  0.1267954E+00
          2   -1    0    0  501    0  0.00000000000E+00  0.00000000000E+00  0.53606570454E+03  0.53606570454E+03  0.00000000000E+00 0. -1.
         -2   -1    0    0    0  501 -0.00000000000E+00 -0.00000000000E+00 -0.43886005467E+02  0.43886005467E+02  0.00000000000E+00 0.  1.
         23    2    1    2    0    0 -0.76845558592E+02 -0.30668587660E+02  0.14348626277E+03  0.20755963196E+03  0.12508753363E+03 0.  0.
          5    1    3    3  502    0 -0.38585575438E+02 -0.23297725576E+02 -0.12309718695E+02  0.46910896636E+02  0.41800000000E+01 0. -1.
         -5    1    3    3    0  502 -0.38259983155E+02 -0.73708620845E+01  0.15579598147E+03  0.16064873532E+03  0.41800000000E+01 0. -1.
        -11    1    1    2    0    0 -0.14282213811E+02 -0.19160896215E+02  0.10130671741E+03  0.10408733145E+03  0.00000000000E+00 0. -1.
         11    1    1    2    0    0  0.91127772404E+02  0.49829483875E+02  0.24738671888E+03  0.26830474660E+03  0.00000000000E+00 0.  1.
</event>
<event>
 7    1  0.6473813E-006  0.1920704E+03  0.7561462E-02  0.1156607E+00
          2   -1    0    0  501    0  0.00000000000E+00  0.00000000000E+00  0.68550501155E+03  0.68550501155E+03  0.00000000000E+00 0. -1.
         -2   -1    0    0    0  501 -0.00000000000E+00 -0.00000000000E+00 -0.67757350865E+02  0.67757350865E+02  0.00000000000E+00 0.  1.
         23    2    1    2    0    0  0.14063641122E+03  0.11255514373E+03  0.24940557338E+03  0.33211143487E+03  0.12509038573E+03 0.  0.
          5    1    3    3  502    0  0.12603628894E+03  0.86785097993E+02  0.10742566327E+03  0.18701482533E+03  0.41800000000E+01 0.  1.
         -5    1    3    3    0  502  0.14600122276E+02  0.25770045740E+02  0.14197991011E+03  0.14509660955E+03  0.41800000000E+01 0.  1.
        -11    1    1    2    0    0 -0.76070377736E+02 -0.56802513678E+01  0.17616886842E+03  0.19197509688E+03  0.00000000000E+00 0. -1.
         11    1    1    2    0    0 -0.64566033481E+02 -0.10687489236E+03  0.19217321889E+03  0.22917583065E+03  0.00000000000E+00 0.  1.
</event>
<event>
 7    1  0.6473813E-006  0.1024282E+03  0.7561462E-02  0.1275271E+00
         -2   -1    0    0    0  501 -0.00000000000E+00  0.00000000000E+00  0.59645610486E+02  0.59645610486E+02  0.00000000000E+00 0.  1.
          2   -1    0    0  501    0  0.00000000000E+00 -0.00000000000E+00 -0.31899807547E+03  0.31899807547E+03  0.00000000000E+00 0. -1.
         23    2    1    2    0    0 -0.58147530143E+02  0.28399714574E+02 -0.43686076725E+02  0.13509180888E+03  0.11024356887E+03 0.  0.
          5    1    3    3  502    0 -0.85156686915E+01  0.62500592844E+02 -0.50385382445E+01  0.63416874622E+02  0.41800000000E+01 0. -1.
         -5    1    3    3    0  502 -0.49631861451E+02 -0.34100878271E+02 -0.38647538480E+02  0.71674934255E+02  0.41800000000E+01 0.  1.
        -11    1    1    2    0    0 -0.69404778548E+01 -0.12465028168E+02  0.32302290946E+01  0.14628107878E+02  0.00000000000E+00 0.  1.
         11    1    1    2    0    0  0.65088007998E+02 -0.15934686406E+02 -0.21889661736E+03  0.22892376920E+03  0.00000000000E+00 0. -1.
</event>
<event>
 6    1  0.6473813E-006  0.1324397E+03  0.7561462E-02  0.1223880E+00
         -2   -1    0    0    0  501 -0.00000000000E+00  0.00000000000E+00  0.54347424270E+02  0.54347424270E+02  0.00000000000E+00 0.  1.
          2   -1    0    0  501    0  0.00000000000E+00 -0.00000000000E+00 -0.51831235189E+03  0.51831235189E+03  0.00000000000E+00 0. -1.
          5    1    1    2  502    0 -0.97261238703E+02 -0.55533711271E+01 -0.13784696246E+03  0.16884858881E+03  0.41800000000E+01 0. -1.
         -5    1    1    2    0  502  0.69290220344E+02  0.23595939369E+02 -0.11002208183E+02  0.74137871395E+02  0.41800000000E+01 0.  1.
        -11    1    1    2    0    0  0.27697861707E+02 -0.52625331712E+02 -0.23507508019E+03  0.24248070110E+03  0.00000000000E+00 0.  1.
         11    1    1    2    0    0  0.27315665156E+00  0.34582763470E+02 -0.80040676787E+02  0.87192614850E+02  0.00000000000E+00 0. -1.
</event>
<event>
 7    1  0.6473813E-006  0.1066271E+03  0.7561462E-02  0.1266947E+00
          1   -1    0    0  501    0  0.00000000000E+00  0.00000000000E+00  0.14916797418E+03  0.14916797418E+03  0.00000000000E+00 0. -1.
         -1   -1    0    0    0  501 -0.00000000000E+00 -0.00000000000E+00 -0.17665934474E+03  0.17665934474E+03  0.00000000000E+00 0.  1.
         23    2    1    2    0    0 -0.26537617533E+02  0.11276040298E+02 -0.12443985994E+03  0.17476300020E+03  0.11927042077E+03 0.  0.
          5    1    3    3  502    0 -0.57744912764E+02  0.34124805232E+02 -0.31926006914E+02  0.74402416626E+02  0.41800000000E+01 0. -1.
         -5    1    3    3    0  502  0.31207295232E+02 -0.22848764934E+02 -0.92513853024E+02  0.10036058358E+03  0.41800000000E+01 0.  1.
        -11    1    1    2    0    0 -0.23715858605E+02  0.32682318563E+02  0.66232343177E+02  0.77571252271E+02  0.00000000000E+00 0.  1.
         11    1    1    2    0    0  0.50253476138E+02 -0.43958358861E+02  0.30716146203E+02  0.73493066443E+02  0.00000000000E+00 0. -1.
</event>
<event>
 7    1  0.6473813E-006  0.9552302E+02  0.7561462E-02  0.1290002E+00
         -2   -1    0    0    0  501 -0.00000000000E+00  0.00000000000E+00  0.15138900086E+02  0.15138900086E+02  0.00000000000E+00 0.  1.
          2   -1    0    0  501    0  0.00000000000E+00 -0.00000000000E+00 -0.69751470440E+03  0.69751470440E+03  0.00000000000E+00 0. -1.
         23    2    1    2    0    0 -0.49246260211E+02 -0.25030015622E+02 -0.45771744326E+03  0.47771065102E+03  0.12510200802E+03 0.  0.
          5    1    3    3  502    0 -0.82077144401E+02  0.13894805953E+02 -0.32443978781E+03  0.33497518054E+03  0.41800000000E+01 0. -1.
         -5    1    3    3    0  502  0.32830884190E+02 -0.38924821575E+02 -0.13327765545E+03  0.14273547048E+03  0.41800000000E+01 0. -1.
        -11    1    1    2    0    0  0.17780622665E+02  0.15866368803E+02 -0.34189238716E+02  0.41674887466E+02  0.00000000000E+00 0.  1.
         11    1    1    2    0    0  0.31465637546E+02  0.91636468191E+01 -0.19046912234E+03  0.19326806600E+03  0.00000000000E+00 0. -1.
</event>
<event>
 7    1  0.6473813E-006  0.7079594E+02  0.7561462E-02  0.1357407E+00
         -2   -1    0    0    0  501 -0.00000000000E+00  0.00000000000E+00  0.52572699855E+03  0.52572699855E+03  0.00000000000E+00 0.  1.
          2   -1    0    0  501    0  0.00000000000E+00 -0.00000000000E+00 -0.35023512335E+02  0.35023512335E+02  0.00000000000E+00 0. -1.
         23    2    1    2    0    0 -0.21915945510E+01 -0.20343039834E+01  0.43879664087E+03  0.45628761624E+03  0.12508779002E+03 0.  0.
          5    1    3    3  502    0 -0.24627854026E+02  0.29905114250E+02  0.39714748363E+03  0.39905443639E+03  0.41800000000E+01 0. -1.
         -5    1    3    3    0  502  0.22436259475E+02 -0.31939418234E+02  0.41649157249E+02  0.57233179851E+02  0.41800000000E+01 0. -1.
        -11    1    1    2    0    0  0.18340045581E+02  0.27596640867E+02  0.63864328186E+02  0.71948483471E+02  0.00000000000E+00 0.  1.
         11    1    1    2    0    0 -0.16148451030E+02 -0.25562336884E+02 -0.11957482849E+02  0.32514411170E+02  0.00000000000E+00 0. -1.
</event>
<event>
 7    1  0.6473813E-006  0.1831467E+03  0.7561462E-02  0.1164792E+00
          2   -1    0    0  501    0  0.00000000000E+00  0.00000000000E+00  0.88942069004E+02  0.88942069004E+02  0.00000000000E+00 0. -1.
         -2   -1    0    0    0  501 -0.00000000000E+00 -0.00000000000E+00 -0.51810685088E+03  0.51810685088E+03  0.00000000000E+00 0.  1.
         23    2    1    2    0    0  0.10852756438E+02 -0.17242594844E+03 -0.32008915255E+03  0.38464736269E+03  0.12509211815E+03 0.  0.
          5    1    3    3  502    0  0.25755797089E+02 -0.30744186004E+02 -0.18123040004E+03  0.18566231809E+03  0.41800000000E+01 0.  1.
         -5    1    3    3    0  502 -0.14903040651E+02 -0.14168176243E+03 -0.13885875251E+03  0.19898504460E+03  0.41800000000E+01 0.  1.
        -11    1    1    2    0    0  0.17845139329E+02  0.14674142495E+02 -0.43330704095E+02  0.49105288646E+02  0.00000000000E+00 0.  1.
         11    1    1    2    0    0 -0.28697895767E+02  0.15775180594E+03 -0.65744925227E+02  0.17329626855E+03  0.00000000000E+00 0. -1.
</event>
<event>
 7    1  0.6473813E-006  0.1205176E+03  0.7561462E-02  0.1242246E+00
         -1   -1    0    0    0  501 -0.00000000000E+00  0.00000000000E+00  0.12471425152E+03  0.12471425152E+03  0.00000000000E+00 0.  1.
          1   -1    0    0  501    0  0.00000000000E+00 -0.00000000000E+00 -0.17197491967E+03  0.17197491967E+03  0.00000000000E+00 0. -1.
         23    2    1    2    0    0 -0.90977552802E+02  0.20482377616E+02  0.11105590538E+02  0.15641904516E+03  0.12508853121E+03 0.  0.
          5    1    3    3  502    0 -0.57260399649E+02  0.64420155289E+02 -0.25403416453E+02  0.89952852889E+02  0.41800000000E+01 0. -1.
         -5    1    3    3    0  502 -0.33717153153E+02 -0.43937777672E+02  0.36509006990E+02  0.66466192270E+02  0.41800000000E+01 0. -1.
        -11    1    1    2    0    0  0.53743009651E+02 -0.28911118036E+02  0.10122634777E+02  0.61859773418E+02  0.00000000000E+00 0.  1.
         11    1    1    2    0    0  0.37234543151E+02  0.84287404199E+01 -0.68488893466E+02  0.78410352613E+02  0.00000000000E+00 0. -1.
</event>
<event>
 7    1  0.6473813E-006  0.1157739E+03  0.7561462E-02  0.1250236E+00
         -1   -1    0    0    0  501 -0.00000000000E+00  0.00000000000E+00  0.34078374242E+03  0.34078374242E+03  0.00000000000E+00 0. -1.
          1   -1    0    0  501    0  0.00000000000E+00 -0.00000000000E+00 -0.43736160585E+02  0.43736160585E+02  0.00000000000E+00 0.  1.
         23    2    1    2    0    0 -0.18845210721E+02  0.55828206476E+02  0.20493423362E+03  0.24721950829E+03  0.12509002584E+03 0.  0.
          5    1    3    3  502    0  0.40262350289E+02  0.66637650975E+02  0.11166389362E+03  0.13619078867E+03  0.41800000000E+01 0. -1.
         -5    1    3    3    0  502 -0.59107561010E+02 -0.10809444498E+02  0.93270339994E+02  0.11102871963E+03  0.41800000000E+01 0. -1.
        -11    1    1    2    0    0  0.18729190878E+02 -0.73411250790E+02  0.92682020244E+02  0.11970777423E+03  0.00000000000E+00 0.  1.
         11    1    1    2    0    0  0.11601984264E+00  0.17583044314E+02 -0.56867202269E+00  0.17592620493E+02  0.00000000000E+00 0. -1.
</event>
<event>
 7    1  0.6473813E-006  0.1100795E+03  0.7561462E-02  0.1260423E+00
         -1   -1    0    0    0  501 -0.00000000000E+00  0.00000000000E+00  0.78934323169E+03  0.78934323169E+03  0.00000000000E+00 0.  1.
          1   -1    0    0  501    0  0.00000000000E+00 -0.00000000000E+00 -0.19591544591E+02  0.19591544591E+02  0.00000000000E+00 0. -1.
         23    2    1    2    0    0 -0.18712611770E+02  0.50992960612E+02  0.51675373226E+03  0.53444592438E+03  0.12509029702E+03 0.  0.
          5    1    3    3  502    0 -0.61156107550E+02  0.66936958804E+02  0.35260071328E+03  0.36409526411E+03  0.41800000000E+01 0. -1.
         -5    1    3    3    0  502  0.42443495780E+02 -0.15943998191E+02  0.16415301899E+03  0.17035066027E+03  0.41800000000E+01 0. -1.
        -11    1    1    2    0    0  0.20750272275E+02  0.98618097075E+01  0.12003293098E+02  0.25921190856E+02  0.00000000000E+00 0. -1.
         11    1    1    2    0    0 -0.20376605043E+01 -0.60854770320E+02  0.24099466174E+03  0.24856766105E+03  0.00000000000E+00 0.  1.
</event>
<event>
 7    1  0.6473813E-006  0.9928250E+02  0.7561462E-02  0.1281812E+00
          2   -1    0    0  501    0  0.00000000000E+00  0.00000000000E+00  0.42336810214E+03  0.42336810214E+03  0.00000000000E+00 0.  1.
         -2   -1    0    0    0  501 -0.00000000000E+00 -0.00000000000E+00 -0.37070422104E+02  0.37070422104E+02  0.00000000000E+00 0. -1.
         23    2    1    2    0    0 -0.50884625949E+02 -0.26319721379E+02  0.21683993901E+03  0.25680712562E+03  0.12509343598E+03 0.  0.
          5    1    3    3  502    0  0.29962736117E+02 -0.22285844896E+02  0.14058487294E+03  0.14551976957E+03  0.41800000000E+01 0.  1.
         -5    1    3    3    0  502 -0.80847362066E+02 -0.40338764824E+01  0.76255066075E+02  0.11128735604E+03  0.41800000000E+01 0.  1.
        -11    1    1    2    0    0  0.18413799619E+02 -0.17494442426E+02  0.13872938130E+03  0.14103533163E+03  0.00000000000E+00 0.  1.
         11    1    1    2    0    0  0.32470826330E+02  0.43814163805E+02  0.30728359728E+02  0.62596067001E+02  0.00000000000E+00 0. -1.
</event>
<event>
 7    1  0.6473813E-006  0.1483948E+03  0.7561462E-02  0.1202459E+00
          4   -1    0    0  501    0  0.00000000000E+00  0.00000000000E+00  0.13637577677E+03  0.13637577677E+03  0.00000000000E+00 0. -1.
         -4   -1    0    0    0  501 -0.00000000000E+00 -0.00000000000E+00 -0.29053649394E+03  0.29053649394E+03  0.00000000000E+00 0.  1.
         23    2    1    2    0    0  0.13700826951E+03 -0.43841425489E+01 -0.18488856393E+03  0.26195671136E+03  0.12508817262E+03 0.  0.
          5    1    3    3  502    0  0.17392796278E+02  0.11973208087E+01 -0.12812360804E+03  0.12937184500E+03  0.41800000000E+01 0.  1.
         -5    1    3    3    0  502  0.11961547324E+03 -0.55814633576E+01 -0.56764955887E+02  0.13258486636E+03  0.41800000000E+01 0.  1.
        -11    1    1    2    0    0 -0.12339780105E+03  0.32673217688E+02  0.11557779568E+02  0.12817230093E+03  0.00000000000E+00 0.  1.
         11    1    1    2    0    0 -0.13610468464E+02 -0.28289075139E+02  0.19170067190E+02  0.36783258421E+02  0.00000000000E+00 0. -1.
</event>
<event>
 7    1  0.6473813E-006  0.9560633E+02  0.7561462E-02  0.1289816E+00
         -2   -1    0    0    0  501 -0.00000000000E+00  0.00000000000E+00  0.78513506655E+03  0.78513506655E+03  0.00000000000E+00 0.  1.
          2   -1    0    0  501    0  0.00000000000E+00 -0.00000000000E+00 -0.16379052771E+02  0.16379052771E+02  0.00000000000E+00 0. -1.
         23    2    1    2    0    0 -0.88155590653E+01  0.64707369607E+01  0.59254945518E+03  0.60334809460E+03  0.11311269558E+03 0.  0.
          5    1    3    3  502    0 -0.28393033456E+02  0.47173253172E+02  0.17911942913E+03  0.18743724939E+03  0.41800000000E+01 0. -1.
         -5    1    3    3    0  502  0.19577474391E+02 -0.40702516211E+02  0.41343002604E+03  0.41591084521E+03  0.41800000000E+01 0.  1.
        -11    1    1    2    0    0 -0.37584066170E+02  0.13752308494E+02  0.75135206847E+02  0.85129238965E+02  0.00000000000E+00 0.  1.
         11    1    1    2    0    0  0.46399625235E+02 -0.20223045455E+02  0.10107135175E+03  0.11303678576E+03  0.00000000000E+00 0. -1.
</event>
<event>
 7    1  0.6473813E-006  0.1060965E+03  0.7561462E-02  0.1267974E+00
         -3   -1    0    0    0  501 -0.00000000000E+00  0.00000000000E+00  0.31184614003E+02  0.31184614003E+02  0.00000000000E+00 0.  1.
          3   -1    0    0  501    0  0.00000000000E+00 -0.00000000000E+00 -0.49182999428E+03  0.49182999428E+03  0.00000000000E+00 0. -1.
         23    2    1    2    0    0 -0.62571767082E+02 -0.91327105165E+01 -0.24394261193E+03  0.28135492108E+03  0.12511579143E+03 0.  0.
          5    1    3    3  502    0 -0.13907714394E+02 -0.48775427222E+02 -0.19533901673E+03  0.20185953205E+03  0.41800000000E+01 0. -1.
         -5    1    3    3    0  502 -0.48664052688E+02  0.39642716706E+02 -0.48603595193E+02  0.79495389033E+02  0.41800000000E+01 0. -1.
        -11    1    1    2    0    0  0.66537410581E+02  0.32950679579E+02 -0.11320194629E+03  0.13537966958E+03  0.00000000000E+00 0.  1.
         11    1    1    2    0    0 -0.39656434986E+01 -0.23817969063E+02 -0.10350082207E+03  0.10628001763E+03  0.00000000000E+00 0. -1.
</event>
<event>
 7    1  0.6473813E-006  0.1907996E+03  0.7561462E-02  0.1157742E+00
         -2   -1    0    0    0  501 -0.00000000000E+00  0.00000000000E+00  0.14424413265E+03  0.14424413265E+03  0.00000000000E+00 0.  1.
          2   -1    0    0  501    0  0.00000000000E+00 -0.00000000000E+00 -0.27852763259E+03  0.27852763259E+03  0.00000000000E+00 0. -1.
         23    2    1    2    0    0  0.74754389870E+02  0.14251389924E+03 -0.16924427652E+02  0.20452886699E+03  0.12508873210E+03 0.  0.
          5    1    3    3  502    0  0.10284918911E+03  0.73162500465E+02 -0.26319435545E+02  0.12899958241E+03  0.41800000000E+01 0.  1.
         -5    1    3    3    0  502 -0.28094799235E+02  0.69351398774E+02  0.93950078930E+01  0.75529284581E+02  0.41800000000E+01 0.  1.
        -11    1    1    2    0    0  0.70339342800E+01 -0.72113718520E+02 -0.68764136234E+02  0.99891796771E+02  0.00000000000E+00 0. -1.
         11    1    1    2    0    0 -0.81788324150E+02 -0.70400180719E+02 -0.48594936048E+02  0.11835110148E+03  0.00000000000E+00 0.  1.
</event>
<event>
 7    1  0.6473813E-006  0.1033862E+03  0.7561462E-02  0.1273332E+00
          1   -1    0    0  501    0  0.00000000000E+00  0.00000000000E+00  0.27135817773E+03  0.27135817773E+03  0.00000000000E+00 0. -1.
         -1   -1    0    0    0  501 -0.00000000000E+00 -0.00000000000E+00 -0.78134009265E+02  0.78134009265E+02  0.00000000000E+00 0.  1.
         23    2    1    2    0    0 -0.88985087053E+02  0.33779863164E+02  0.80981498900E+02  0.17682134497E+03  0.12509340511E+03 0.  0.
          5    1    3    3  502    0 -0.88816527780E+02  0.44614581077E+02  0.46261184648E+01  0.99587699159E+02  0.41800000000E+01 0.  1.
         -5    1    3    3    0  502 -0.16855927283E+00 -0.10834717913E+02  0.76355380435E+02  0.77233645815E+02  0.41800000000E+01 0.  1.
        -11    1    1    2    0    0  0.28494233896E+02 -0.15749487927E+02  0.10404507655E+03  0.10901993254E+03  0.00000000000E+00 0. -1.
         11    1    1    2    0    0  0.60490853157E+02 -0.18030375237E+02  0.81975930095E+01  0.63650909483E+02  0.00000000000E+00 0.  1.
</event>
<event>
 7    1  0.6473813E-006  0.8160848E+02  0.7561462E-02  0.1324548E+00
         -2   -1    0    0    0  501 -0.00000000000E+00  0.00000000000E+00  0.13528064117E+03  0.13528064117E+03  0.00000000000E+00 0.  1.
          2   -1    0    0  501    0  0.00000000000E+00 -0.00000000000E+00 -0.10142639767E+03  0.10142639767E+03  0.00000000000E+00 0. -1.
         23    2    1    2    0    0  0.41249632630E+02  0.85922034828E+01  0.36147726593E+02  0.13685576464E+03  0.12508990376E+03 0.  0.
          5    1    3    3  502    0 -0.18753617524E+02  0.40322225075E+01  0.66493738487E+02  0.69331426111E+02  0.41800000000E+01 0. -1.
         -5    1    3    3    0  502  0.60003250154E+02  0.45599809754E+01 -0.30346011894E+02  0.67524338526E+02  0.41800000000E+01 0. -1.
        -11    1    1    2    0    0 -0.26401738039E+02 -0.40341918515E+02  0.26026783270E+02  0.54789739992E+02  0.00000000000E+00 0.  1.
         11    1    1    2    0    0 -0.14847894591E+02  0.31749715033E+02 -0.28320266368E+02  0.45061534212E+02  0.00000000000E+00 0. -1.
</event>
<event>
 7    1  0.6473813E-006  0.1127552E+03  0.7561462E-02  0.1255551E+00
          1   -1    0    0  501    0  0.00000000000E+00  0.00000000000E+00  0.73731148845E+03  0.73731148845E+03  0.00000000000E+00 0. -1.
         -1   -1    0    0    0  501 -0.00000000000E+00 -0.00000000000E+00 -0.25834833211E+02  0.25834833211E+02  0.00000000000E+00 0.  1.
         23    2    1    2    0    0  0.20553331157E+02  0.70052986902E+02  0.26719283662E+03  0.30392347068E+03  0.12509038210E+03 0.  0.
          5    1    3    3  502    0  0.64603350413E+02  0.49800796745E+02  0.22552287436E+03  0.23985777349E+03  0.41800000000E+01 0. -1.
         -5    1    3    3    0  502 -0.44050019257E+02  0.20252190156E+02  0.41669962256E+02  0.64065697195E+02  0.41800000000E+01 0. -1.
        -11    1    1    2    0    0  0.85123842007E+01  0.81230193194E+01  0.62574243572E+01  0.13326645761E+02  0.00000000000E+00 0.  1.
         11    1    1    2    0    0 -0.29065715357E+02 -0.78176006221E+02  0.43802639427E+03  0.44589620523E+03  0.00000000000E+00 0. -1.
</event>
<event>
 7    1  0.9234393E-006  0.8924274E+02  0.7561462E-02  0.1304696E+00
         -1   -1    0    0    0  501 -0.00000000000E+00  0.00000000000E+00  0.18791701792E+03  0.18791701792E+03  0.00000000000E+00 0.  1.
          1   -1    0    0  501    0  0.00000000000E+00 -0.00000000000E+00 -0.88664038076E+02  0.88664038076E+02  0.00000000000E+00 0. -1.
         23    2    1    2    0    0 -0.70012460027E+02  0.17549396365E+01  0.67770622434E+02  0.15857083288E+03  0.12508807858E+03 0.  0.
          5    1    3    3  502    0 -0.26725237556E+02  0.11473215200E+02  0.99577783354E+02  0.10382234984E+03  0.41800000000E+01 0.  1.
         -5    1    3    3    0  502 -0.43287222472E+02 -0.97182755634E+01 -0.31807160920E+02  0.54748483039E+02  0.41800000000E+01 0.  1.
        -11    1    1    2    0    0  0.47049221430E+02 -0.38781437977E+02  0.40919826450E+02  0.73430656850E+02  0.00000000000E+00 0.  1.
         11    1    1    2    0    0  0.22963238598E+02  0.37026498340E+02 -0.94374690416E+01  0.44579566262E+02  0.00000000000E+00 0. -1.
</event>
<event>
 7    1  0.6473813E-006  0.1373763E+03  0.7561462E-02  0.1216904E+00
         -2   -1    0    0    0  501 -0.00000000000E+00  0.00000000000E+00  0.25483654454E+03  0.25483654454E+03  0.00000000000E+00 0.  1.
          2   -1    0    0  501    0  0.00000000000E+00 -0.00000000000E+00 -0.10830647751E+03  0.10830647751E+03  0.00000000000E+00 0. -1.
         23    2    1    2    0    0 -0.91054044286E+02  0.14463935946E+02  0.17233898567E+03  0.23205469319E+03  0.12509440525E+03 0.  0.
          5    1    3    3  502    0 -0.45601715187E+02  0.66158845584E+02  0.12407865537E+03  0.14788338107E+03  0.41800000000E+01 0.  1.
         -5    1    3    3    0  502 -0.45452329099E+02 -0.51694909638E+02  0.48260330296E+02  0.84171312116E+02  0.41800000000E+01 0.  1.
        -11    1    1    2    0    0  0.95214957594E+02  0.14285528069E+02 -0.71131705107E+01  0.96543055973E+02  0.00000000000E+00 0.  1.
         11    1    1    2    0    0 -0.41609133081E+01 -0.28749464015E+02 -0.18695748128E+02  0.34545272885E+02  0.00000000000E+00 0. -1.
</event>
<event>
 7    1  0.6473813E-006  0.1642130E+03  0.7561462E-02  0.1184021E+00
         -3   -1    0    0    0  501 -0.00000000000E+00  0.00000000000E+00  0.39760029882E+03  0.39760029882E+03  0.00000000000E+00 0.  1.
          3   -1    0    0  501    0  0.00000000000E+00 -0.00000000000E+00 -0.80335678686E+02  0.80335678686E+02  0.00000000000E+00 0. -1.
         23    2    1    2    0    0 -0.63547119280E+02 -0.12376379825E+03  0.19897634251E+03  0.27312005447E+03  0.12508902888E+03 0.  0.
          5    1    3    3  502    0  0.45565212918E+01  0.19145314764E+02  0.17664466675E+01  0.20196477354E+02  0.41800000000E+01 0.  1.
         -5    1    3    3    0  502 -0.68103640572E+02 -0.14290911301E+03  0.19720989585E+03  0.25292357711E+03  0.41800000000E+01 0.  1.
        -11    1    1    2    0    0  0.46947281724E+02  0.32297037155E+02  0.34785097910E+01  0.57089805575E+02  0.00000000000E+00 0. -1.
         11    1    1    2    0    0  0.16599837557E+02  0.91466761092E+02  0.11480976783E+03  0.14772611747E+03  0.00000000000E+00 0.  1.
</event>
<event>
 7    1  0.6473813E-006  0.1732261E+03  0.7561462E-02  0.1174525E+00
         -1   -1    0    0    0  501 -0.00000000000E+00  0.00000000000E+00  0.22883122301E+02  0.22883122301E+02  0.00000000000E+00 0.  1.
          1   -1    0    0  501    0  0.00000000000E+00 -0.00000000000E+00 -0.16905037427E+04  0.16905037427E+04  0.00000000000E+00 0. -1.
         23    2    1    2    0    0  0.97839659620E+01  0.15832717606E+03 -0.70298465196E+03  0.73142318265E+03  0.12501692108E+03 0.  0.
          5    1    3    3  502    0 -0.19820908798E+01  0.14284848724E+03 -0.35247032237E+03  0.38034513214E+03  0.41800000000E+01 0. -1.
         -5    1    3    3    0  502  0.11766056842E+02  0.15478688818E+02 -0.35051432959E+03  0.35107805051E+03  0.41800000000E+01 0. -1.
        -11    1    1    2    0    0  0.27491145539E+02 -0.78119640723E+01 -0.14548783094E+03  0.14826833383E+03  0.00000000000E+00 0. -1.
         11    1    1    2    0    0 -0.37275111501E+02 -0.15051521199E+03 -0.81914813747E+03  0.83369534849E+03  0.00000000000E+00 0.  1.
</event>
<event>
 7    1  0.6473813E-006  0.2450701E+03  0.7561462E-02  0.1116461E+00
          1   -1    0    0  501    0  0.00000000000E+00  0.00000000000E+00  0.10112444963E+04  0.10112444963E+04  0.00000000000E+00 0. -1.
         -1   -1    0    0    0  501 -0.00000000000E+00 -0.00000000000E+00 -0.65844617273E+02  0.65844617273E+02  0.00000000000E+00 0.  1.
         23    2    1    2    0    0 -0.79311727977E+02 -0.21432991528E+03  0.38071721620E+03  0.46132639129E+03  0.12509507509E+03 0.  0.
          5    1    3    3  502    0 -0.26698007426E+00 -0.14093411375E+03  0.14595449114E+03  0.20293516596E+03  0.41800000000E+01 0. -1.
         -5    1    3    3    0  502 -0.79044747903E+02 -0.73395801524E+02  0.23476272505E+03  0.25839122533E+03  0.41800000000E+01 0. -1.
        -11    1    1    2    0    0  0.71624620246E+02  0.82955193371E+02  0.31500639656E+03  0.33352763035E+03  0.00000000000E+00 0. -1.
         11    1    1    2    0    0  0.76871077312E+01  0.13137472190E+03  0.24967626624E+03  0.28223509191E+03  0.00000000000E+00 0.  1.
</event>
<event>
 7    1  0.6473813E-006  0.1245350E+03  0.7561462E-02  0.1235798E+00
          1   -1    0    0  501    0  0.00000000000E+00  0.00000000000E+00  0.25734865021E+03  0.25734865021E+03  0.00000000000E+00 0. -1.
         -1   -1    0    0    0  501 -0.00000000000E+00 -0.00000000000E+00 -0.65527974834E+02  0.65527974834E+02  0.00000000000E+00 0.  1.
         23    2    1    2    0    0 -0.22216261920E+01  0.72379837147E+02  0.10191885636E+03  0.17685835232E+03  0.12509055543E+03 0.  0.
          5    1    3    3  502    0 -0.58464658648E+02  0.23644212403E+02  0.20434117413E+02  0.66424322694E+02  0.41800000000E+01 0. -1.
         -5    1    3    3    0  502  0.56243032456E+02  0.48735624744E+02  0.81484738947E+02  0.11043402963E+03  0.41800000000E+01 0. -1.
        -11    1    1    2    0    0 -0.25852107707E+02 -0.78455631211E+02  0.81614486725E+02  0.11612296063E+03  0.00000000000E+00 0.  1.
         11    1    1    2    0    0  0.28073733899E+02  0.60757940640E+01  0.82873322911E+01  0.29895312092E+02  0.00000000000E+00 0. -1.
</event>
<event>
 7    1  0.6473813E-006  0.1126298E+03  0.7561462E-02  0.1255776E+00
          2   -1    0    0  501    0  0.00000000000E+00  0.00000000000E+00  0.54821122016E+03  0.54821122016E+03  0.00000000000E+00 0. -1.
         -2   -1    0    0    0  501 -0.00000000000E+00 -0.00000000000E+00 -0.25226306892E+02  0.25226306892E+02  0.00000000000E+00 0.  1.
         23    2    1    2    0    0 -0.19217219569E+02 -0.25447238735E+02  0.21740706786E+03  0.25284375027E+03  0.12508902993E+03 0.  0.
          5    1    3    3  502    0 -0.71929691615E+02 -0.24816397541E+02  0.12917343523E+03  0.14997660782E+03  0.41800000000E+01 0. -1.
         -5    1    3    3    0  502  0.52712472045E+02 -0.63084119417E+00  0.88233632622E+02  0.10286714245E+03  0.41800000000E+01 0. -1.
        -11    1    1    2    0    0 -0.34795904200E+02 -0.33600893317E+01  0.13146060439E+03  0.13602917207E+03  0.00000000000E+00 0.  1.
         11    1    1    2    0    0  0.54013123770E+02  0.28807328067E+02  0.17411724103E+03  0.18456460471E+03  0.00000000000E+00 0. -1.
</event>
<event>
 7    1  0.6473813E-006  0.1099727E+03  0.7561462E-02  0.1260620E+00
         -2   -1    0    0    0  501 -0.00000000000E+00  0.00000000000E+00  0.27449150998E+03  0.27449150998E+03  0.00000000000E+00 0.  1.
          2   -1    0    0  501    0  0.00000000000E+00 -0.00000000000E+00 -0.75124876585E+02  0.75124876585E+02  0.00000000000E+00 0. -1.
         23    2    1    2    0    0  0.42183222331E+02 -0.79945955622E+02  0.14176579589E+03  0.20956079969E+03  0.12508959915E+03 0.  0.
          5    1    3    3  502    0  0.49724202590E+02 -0.83871251502E+02  0.37005743701E+02  0.10437327540E+03  0.41800000000E+01 0.  1.
         -5    1    3    3    0  502 -0.75409802590E+01  0.39252958805E+01  0.10476005218E+03  0.10518752428E+03  0.41800000000E+01 0.  1.
        -11    1    1    2    0    0 -0.31156331621E+02 -0.10128838293E+01 -0.11318541328E+02  0.33164021341E+02  0.00000000000E+00 0. -1.
         11    1    1    2    0    0 -0.11026890710E+02  0.80958839451E+02  0.68919378839E+02  0.10689156554E+03  0.00000000000E+00 0.  1.
</event>
<event>
 7    1  0.6473813E-006  0.3053331E+03  0.7561462E-02  0.1082605E+00
          1   -1    0    0  501    0  0.00000000000E+00  0.00000000000E+00  0.13113063115E+04  0.13113063115E+04  0.00000000000E+00 0. -1.
         -1   -1    0    0    0  501 -0.00000000000E+00 -0.00000000000E+00 -0.90230560227E+02  0.90230560227E+02  0.00000000000E+00 0.  1.
         23    2    1    2    0    0 -0.21356377783E+03  0.19418380181E+03  0.31093354059E+03  0.44231734306E+03  0.12509248269E+03 0.  0.
          5    1    3    3  502    0 -0.15238490823E+02 -0.14271261235E+02  0.41389534415E+01  0.21690639349E+02  0.41800000000E+01 0. -1.
         -5    1    3    3    0  502 -0.19832528700E+03  0.20845506305E+03  0.30679458715E+03  0.42062670371E+03  0.41800000000E+01 0. -1.
        -11    1    1    2    0    0  0.13051939777E+03 -0.59620310039E+02  0.47707085221E+03  0.49818319180E+03  0.00000000000E+00 0.  1.
         11    1    1    2    0    0  0.83044380061E+02 -0.13456349177E+03  0.43307135848E+03  0.46103633687E+03  0.00000000000E+00 0. -1.
</event>
<event>
 7    1  0.6473813E-006  0.1333063E+03  0.7561462E-02  0.1222631E+00
         -1   -1    0    0    0  501 -0.00000000000E+00  0.00000000000E+00  0.37169332769E+02  0.37169332769E+02  0.00000000000E+00 0.  1.
          1   -1    0    0  501    0  0.00000000000E+00 -0.00000000000E+00 -0.56569687185E+03  0.56569687185E+03  0.00000000000E+00 0. -1.
         23    2    1    2    0    0 -0.91336427981E+02 -0.21215444276E+02 -0.32335811006E+03  0.35916528492E+03  0.12508715520E+03 0.  0.
          5    1    3    3  502    0  0.14967719148E+02 -0.41382434653E+02 -0.60932100051E+02  0.75277697434E+02  0.41800000000E+01 0.  1.
         -5    1    3    3    0  502 -0.10630414713E+03  0.20166990377E+02 -0.26242601001E+03  0.28388758748E+03  0.41800000000E+01 0.  1.
        -11    1    1    2    0    0  0.20071576522E+02  0.36118610011E+02 -0.14005904321E+03  0.14602725005E+03  0.00000000000E+00 0. -1.
         11    1    1    2    0    0  0.71264851459E+02 -0.14903165735E+02 -0.65110385810E+02  0.97673669649E+02  0.00000000000E+00 0.  1.
</event>
<event>
 7    1  0.6473813E-006  0.4276038E+02  0.7561462E-02  0.1488828E+00
         -1   -1    0    0    0  501 -0.00000000000E+00  0.00000000000E+00  0.14468706412E+03  0.14468706412E+03  0.00000000000E+00 0.  1.
          1   -1    0    0  501    0  0.00000000000E+00 -0.00000000000E+00 -0.11321462744E+03  0.11321462744E+03  0.00000000000E+00 0. -1.
         23    2    1    2    0    0 -0.12576936336E+02 -0.18566688724E+02  0.81714231479E+02  0.15108885787E+03  0.12509087132E+03 0.  0.
          5    1    3    3  502    0  0.11824225181E+02 -0.44796148006E+01  0.11008431343E+03  0.11088691407E+03  0.41800000000E+01 0. -1.
         -5    1    3    3    0  502 -0.24401161517E+02 -0.14087073924E+02 -0.28370081949E+02  0.40201943795E+02  0.41800000000E+01 0. -1.
        -11    1    1    2    0    0  0.88012953225E+01 -0.10901212825E+02  0.23473047352E+02  0.27336480980E+02  0.00000000000E+00 0.  1.
         11    1    1    2    0    0  0.37756410135E+01  0.29467901549E+02 -0.73714842151E+02  0.79476352710E+02  0.00000000000E+00 0. -1.
</event>
<event>
 7    1  0.6473813E-006  0.1009226E+03  0.7561462E-02  0.1278368E+00
          2   -1    0    0  501    0  0.00000000000E+00  0.00000000000E+00  0.94680910387E+03  0.94680910387E+03  0.00000000000E+00 0. -1.
         -2   -1    0    0    0  501 -0.00000000000E+00 -0.00000000000E+00 -0.16669132188E+02  0.16669132188E+02  0.00000000000E+00 0.  1.
         23    2    1    2    0    0  0.14030694198E+02  0.56762034935E+02  0.39636950016E+03  0.41973297663E+03  0.12509277368E+03 0.  0.
          5    1    3    3  502    0 -0.51747829499E+01  0.72617113989E+02  0.10831845765E+03  0.13057712009E+03  0.41800000000E+01 0. -1.
         -5    1    3    3    0  502  0.19205477147E+02 -0.15855079053E+02  0.28805104251E+03  0.28915585654E+03  0.41800000000E+01 0. -1.
        -11    1    1    2    0    0 -0.12828579743E+02  0.21695508934E+02  0.13091877450E+03  0.13332289032E+03  0.00000000000E+00 0.  1.
         11    1    1    2    0    0 -0.12021144550E+01 -0.78457543869E+02  0.40285169702E+03  0.41042236911E+03  0.00000000000E+00 0. -1.
</event>
<event>
 7    1  0.6473813E-006  0.1071027E+03  0.7561462E-02  0.1266031E+00
          1   -1    0    0  501    0  0.00000000000E+00  0.00000000000E+00  0.20083294147E+03  0.20083294147E+03  0.00000000000E+00 0. -1.
         -1   -1    0    0    0  501 -0.00000000000E+00 -0.00000000000E+00 -0.10655335617E+03  0.10655335617E+03  0.00000000000E+00 0.  1.
         23    2    1    2    0    0 -0.56126483476E+02 -0.27749908372E+02 -0.25037969147E+02  0.14211132747E+03  0.12509392445E+03 0.  0.
          5    1    3    3  502    0 -0.22178567528E+02 -0.72238348100E+02  0.94097071678E+01  0.76264557842E+02  0.41800000000E+01 0.  1.
         -5    1    3    3    0  502 -0.33947915948E+02  0.44488439728E+02 -0.34447676315E+02  0.65846769626E+02  0.41800000000E+01 0.  1.
        -11    1    1    2    0    0  0.19642326541E+02 -0.16075609258E+02 -0.72983399825E+01  0.26410451936E+02  0.00000000000E+00 0.  1.
         11    1    1    2    0    0  0.36484156935E+02  0.43825517630E+02  0.12661589443E+03  0.13886451824E+03  0.00000000000E+00 0. -1.
</event>
<event>
 7    1  0.6473813E-006  0.1530382E+03  0.7561462E-02  0.1196789E+00
         -2   -1    0    0    0  501 -0.00000000000E+00  0.00000000000E+00  0.34982839706E+02  0.34982839706E+02  0.00000000000E+00 0.  1.
          2   -1    0    0  501    0  0.00000000000E+00 -0.00000000000E+00 -0.69028335632E+03  0.69028335632E+03  0.00000000000E+00 0. -1.
         23    2    1    2    0    0 -0.50205067730E+02  0.97493417701E+02 -0.39235613755E+03  0.42616221772E+03  0.12508150070E+03 0.  0.
          5    1    3    3  502    0 -0.88770010174E+02  0.44930516293E+02 -0.20886664407E+03  0.23139060786E+03  0.41800000000E+01 0.  1.
         -5    1    3    3    0  502  0.38564942444E+02  0.52562901409E+02 -0.18348949348E+03  0.19477160986E+03  0.41800000000E+01 0.  1.
        -11    1    1    2    0    0  0.27026490165E+02  0.11766993680E+02 -0.73420075576E+02  0.79116375097E+02  0.00000000000E+00 0. -1.
         11    1    1    2    0    0  0.23178577565E+02 -0.10926041138E+03 -0.18952430349E+03  0.21998760321E+03  0.00000000000E+00 0.  1.
</event>
<event>
 7    1  0.6473813E-006  0.9396763E+02  0.7561462E-02  0.1293518E+00
          2   -1    0    0  501    0  0.00000000000E+00  0.00000000000E+00  0.82867368614E+02  0.82867368614E+02  0.00000000000E+00 0. -1.
         -2   -1    0    0    0  501 -0.00000000000E+00 -0.00000000000E+00 -0.16779285606E+03  0.16779285606E+03  0.00000000000E+00 0.  1.
         23    2    1    2    0    0 -0.10024052363E+02  0.26281309667E+02 -0.85345757927E+02  0.15401793074E+03  0.12508571353E+03 0.  0.
          5    1    3    3  502    0 -0.16213834579E+02  0.65592639311E+02 -0.96282015489E+01  0.68377316623E+02  0.41800000000E+01 0.  1.
         -5    1    3    3    0  502  0.61897822159E+01 -0.39311329643E+02 -0.75717556378E+02  0.85640614115E+02  0.41800000000E+01 0.  1.
        -11    1    1    2    0    0 -0.29279860803E+02 -0.28497199875E+02 -0.26726586985E+02  0.48823263935E+02  0.00000000000E+00 0.  1.
         11    1    1    2    0    0  0.39303913167E+02  0.22158902078E+01  0.27146857469E+02  0.47819029999E+02  0.00000000000E+00 0. -1.
</event>
<event>
 7    1  0.6473813E-006  0.1336008E+03  0.7561462E-02  0.1222208E+00
         -1   -1    0    0    0  501 -0.00000000000E+00  0.00000000000E+00  0.27821575865E+02  0.27821575865E+02  0.00000000000E+00 0.  1.
          1   -1    0    0  501    0  0.00000000000E+00 -0.00000000000E+00 -0.72825480433E+03  0.72825480433E+03  0.00000000000E+00 0. -1.
         23    2    1    2    0    0  0.83950689705E+02  0.27364807632E+02 -0.32196755016E+03  0.35652192324E+03  0.12509287508E+03 0.  0.
          5    1    3    3  502    0  0.10982191011E+03  0.37887511968E+02 -0.20002564084E+03  0.23135264186E+03  0.41800000000E+01 0. -1.
         -5    1    3    3    0  502 -0.25871220405E+02 -0.10522704336E+02 -0.12194190932E+03  0.12516928138E+03  0.41800000000E+01 0. -1.
        -11    1    1    2    0    0 -0.10052812910E+03 -0.14163795022E+02 -0.34754343891E+03  0.36206761767E+03  0.00000000000E+00 0. -1.
         11    1    1    2    0    0  0.16577439398E+02 -0.13201012610E+02 -0.30922239391E+02  0.37486839289E+02  0.00000000000E+00 0.  1.
</event>
<event>
 7    1  0.6473813E-006  0.3236915E+03  0.7561462E-02  0.1073963E+00
         -2   -1    0    0    0  501 -0.00000000000E+00  0.00000000000E+00  0.13357866238E+03  0.13357866238E+03  0.00000000000E+00 0. -1.
          2   -1    0    0  501    0  0.00000000000E+00 -0.00000000000E+00 -0.83162995356E+03  0.83162995356E+03  0.00000000000E+00 0.  1.
         23    2    1    2    0    0 -0.29828677178E+03 -0.94894426975E+02 -0.41404192024E+03  0.53390888075E+03  0.12509208902E+03 0.  0.
          5    1    3    3  502    0 -0.21878860353E+03 -0.11819596499E+02 -0.30351807678E+03  0.37436459665E+03  0.41800000000E+01 0.  1.
         -5    1    3    3    0  502 -0.79498168247E+02 -0.83074830476E+02 -0.11052384346E+03  0.15954428409E+03  0.41800000000E+01 0.  1.
        -11    1    1    2    0    0  0.25273470592E+03  0.76611731547E+02 -0.27522565812E+03  0.38143590795E+03  0.00000000000E+00 0.  1.
         11    1    1    2    0    0  0.45552065861E+02  0.18282695429E+02 -0.87837128259E+01  0.49863827243E+02  0.00000000000E+00 0. -1.
</event>
<event>
 7    1  0.6473813E-006  0.1115460E+03  0.7561462E-02  0.1257733E+00
         -3   -1    0    0    0  501 -0.00000000000E+00  0.00000000000E+00  0.33506066101E+02  0.33506066101E+02  0.00000000000E+00 0.  1.
          3   -1    0    0  501    0  0.00000000000E+00 -0.00000000000E+00 -0.47049039509E+03  0.47049039509E+03  0.00000000000E+00 0. -1.
         23    2    1    2    0    0  0.13165474574E+02  0.62110814022E+02 -0.23393312426E+03  0.27276844734E+03  0.12508731469E+03 0.  0.
          5    1    3    3  502    0 -0.39913020831E+02  0.47001812156E+02 -0.46522581168E+02  0.77356593361E+02  0.41800000000E+01 0. -1.
         -5    1    3    3    0  502  0.53078495404E+02  0.15109001866E+02 -0.18741054309E+03  0.19541185398E+03  0.41800000000E+01 0. -1.
        -11    1    1    2    0    0 -0.49340282874E+02 -0.31345817895E+02 -0.14426086142E+03  0.15565416780E+03  0.00000000000E+00 0.  1.
         11    1    1    2    0    0  0.36174808300E+02 -0.30764996127E+02 -0.58790343304E+02  0.75573846059E+02  0.00000000000E+00 0. -1.
</event>
<event>
 7    1  0.6473813E-006  0.1759320E+03  0.7561462E-02  0.1171799E+00
         -1   -1    0    0    0  501 -0.00000000000E+00  0.00000000000E+00  0.92669993129E+02  0.92669993129E+02  0.00000000000E+00 0.  1.
          1   -1    0    0  501    0  0.00000000000E+00 -0.00000000000E+00 -0.41814610786E+03  0.41814610786E+03  0.00000000000E+00 0. -1.
         23    2    1    2    0    0  0.16046111979E+03  0.33485166886E+02 -0.16139799403E+03  0.26185364850E+03  0.12509593674E+03 0.  0.
          5    1    3    3  502    0  0.13642132725E+03 -0.26470529466E+01 -0.16936614818E+03  0.21753195160E+03  0.41800000000E+01 0.  1.
         -5    1    3    3    0  502  0.24039792541E+02  0.36132219833E+02  0.79681541460E+01  0.44321696899E+02  0.41800000000E+01 0.  1.
        -11    1    1    2    0    0 -0.63954559692E+02 -0.39312730111E+02 -0.12260012042E+03  0.14375835969E+03  0.00000000000E+00 0. -1.
         11    1    1    2    0    0 -0.96506560094E+02  0.58275632245E+01 -0.41478000272E+02  0.10520409280E+03  0.00000000000E+00 0.  1.
</event>
<event>
 7    1  0.6473813E-006  0.1270218E+03  0.7561462E-02  0.1231943E+00
          1   -1    0    0  501    0  0.00000000000E+00  0.00000000000E+00  0.69240229391E+02  0.69240229391E+02  0.00000000000E+00 0. -1.
         -1   -1    0    0    0  501 -0.00000000000E+00 -0.00000000000E+00 -0.30087737828E+03  0.30087737828E+03  0.00000000000E+00 0.  1.
         23    2    1    2    0    0  0.68918722366E+02  0.45773396682E+02 -0.15880821199E+03  0.21843147412E+03  0.12508903450E+03 0.  0.
          5    1    3    3  502    0  0.92347347101E+02  0.49700198540E+01 -0.64112676869E+02  0.11260835382E+03  0.41800000000E+01 0.  1.
         -5    1    3    3    0  502 -0.23428624735E+02  0.40803376828E+02 -0.94695535123E+02  0.10582312030E+03  0.41800000000E+01 0.  1.
        -11    1    1    2    0    0  0.43536372786E+01  0.17122276869E+02 -0.49195492146E+02  0.52271626818E+02  0.00000000000E+00 0.  1.
         11    1    1    2    0    0 -0.73272359645E+02 -0.62895673550E+02 -0.23633444751E+02  0.99414506738E+02  0.00000000000E+00 0. -1.
</event>
<event>
 7    1  0.6473813E-006  0.8229548E+02  0.7561462E-02  0.1322661E+00
         -1   -1    0    0    0  501 -0.00000000000E+00  0.00000000000E+00  0.19376847702E+02  0.19376847702E+02  0.00000000000E+00 0.  1.
          1   -1    0    0  501    0  0.00000000000E+00 -0.00000000000E+00 -0.78042182443E+03  0.78042182443E+03  0.00000000000E+00 0. -1.
         23    2    1    2    0    0  0.43434589670E+02 -0.27673992020E+02 -0.32364652007E+03  0.35078025785E+03  0.12508919189E+03 0.  0.
          5    1    3    3  502    0  0.44390363839E+02 -0.33704127929E+02 -0.33367155082E+03  0.33832033469E+03  0.41800000000E+01 0. -1.
         -5    1    3    3    0  502 -0.95577416963E+00  0.60301359091E+01  0.10025030752E+02  0.12459923151E+02  0.41800000000E+01 0. -1.
        -11    1    1    2    0    0  0.19043293585E+02  0.33516815000E+02 -0.17998262477E+03  0.18406457871E+03  0.00000000000E+00 0. -1.
         11    1    1    2    0    0 -0.62477883254E+02 -0.58428229803E+01 -0.25741583189E+03  0.26495383557E+03  0.00000000000E+00 0.  1.
</event>
<event>
 7    1  0.6473813E-006  0.1955182E+03  0.7561462E-02  0.1153576E+00
         -1   -1    0    0    0  501 -0.00000000000E+00  0.00000000000E+00  0.60844357782E+03  0.60844357782E+03  0.00000000000E+00 0.  1.
          1   -1    0    0  501    0  0.00000000000E+00 -0.00000000000E+00 -0.86163900072E+02  0.86163900072E+02  0.00000000000E+00 0. -1.
         23    2    1    2    0    0  0.91689099545E+02  0.14735287218E+03  0.42640085106E+03  0.47705890978E+03  0.12509099770E+03 0.  0.
          5    1    3    3  502    0  0.11301734214E+03  0.69183159853E+02  0.25388260344E+03  0.28641417207E+03  0.41800000000E+01 0.  1.
         -5    1    3    3    0  502 -0.21328242595E+02  0.78169712331E+02  0.17251824761E+03  0.19064473771E+03  0.41800000000E+01 0.  1.
        -11    1    1    2    0    0 -0.26506622865E+02 -0.76914792717E+02 -0.75300540515E+00  0.81357565177E+02  0.00000000000E+00 0. -1.
         11    1    1    2    0    0 -0.65182476680E+02 -0.70438079467E+02  0.96631832095E+02  0.13619100293E+03  0.00000000000E+00 0.  1.
</event>
<event>
 7    1  0.6473813E-006  0.1093853E+03  0.7561462E-02  0.1261712E+00
         -1   -1    0    0    0  501 -0.00000000000E+00  0.00000000000E+00  0.13598062041E+03  0.13598062041E+03  0.00000000000E+00 0. -1.
          1   -1    0    0  501    0  0.00000000000E+00 -0.00000000000E+00 -0.14555304519E+03  0.14555304519E+03  0.00000000000E+00 0.  1.
         23    2    1    2    0    0  0.53439854739E+02 -0.44326453403E+02  0.49590261279E+02  0.15141576295E+03  0.12508751621E+03 0.  0.
          5    1    3    3  502    0  0.60888632595E+02 -0.23203178066E+01 -0.24509717630E+02  0.65810395169E+02  0.41800000000E+01 0.  1.
         -5    1    3    3    0  502 -0.74487778559E+01 -0.42006135597E+02  0.74099978909E+02  0.85605367785E+02  0.41800000000E+01 0.  1.
        -11    1    1    2    0    0 -0.16239865094E+02  0.68543290118E+02 -0.27612302587E+02  0.75659467964E+02  0.00000000000E+00 0. -1.
         11    1    1    2    0    0 -0.37199989645E+02 -0.24216836714E+02 -0.31550383471E+02  0.54458434674E+02  0.00000000000E+00 0.  1.
</event>
<event>
 7    1  0.6473813E-006  0.1459026E+03  0.7561462E-02  0.1205600E+00
         -1   -1    0    0    0  501 -0.00000000000E+00  0.00000000000E+00  0.44727677044E+02  0.44727677044E+02  0.00000000000E+00 0.  1.
          1   -1    0    0  501    0  0.00000000000E+00 -0.00000000000E+00 -0.58712543508E+03  0.58712543508E+03  0.00000000000E+00 0. -1.
         23    2    1    2    0    0 -0.11556906834E+03 -0.33831563532E+02 -0.32173199999E+03  0.36559477282E+03  0.12508906366E+03 0.  0.
          5    1    3    3  502    0 -0.13527101665E+03 -0.11849454570E+02 -0.21126479154E+03  0.25117512230E+03  0.41800000000E+01 0.  1.
         -5    1    3    3    0  502  0.19701948310E+02 -0.21982108962E+02 -0.11046720846E+03  0.11441965052E+03  0.41800000000E+01 0.  1.
        -11    1    1    2    0    0  0.31458311960E+02  0.27509862494E+02 -0.15156077735E+03  0.15721668854E+03  0.00000000000E+00 0. -1.
         11    1    1    2    0    0  0.84110756383E+02  0.63217010376E+01 -0.69104980694E+02  0.10904165076E+03  0.00000000000E+00 0.  1.
</event>
<event>
 7    1  0.6473813E-006  0.8002231E+02  0.7561462E-02  0.1328988E+00
         -2   -1    0    0    0  501 -0.00000000000E+00  0.00000000000E+00  0.12079471161E+03  0.12079471161E+03  0.00000000000E+00 0.  1.
          2   -1    0    0  501    0  0.00000000000E+00 -0.00000000000E+00 -0.10124874555E+03  0.10124874555E+03  0.00000000000E+00 0. -1.
         23    2    1    2    0    0 -0.18350545405E+02  0.70343581156E+01  0.23964098630E+02  0.12887279619E+03  0.12509074652E+03 0.  0.
          5    1    3    3  502    0 -0.46233559912E+02  0.48744267662E+02 -0.10127944782E+02  0.68070502845E+02  0.41800000000E+01 0.  1.
         -5    1    3    3    0  502  0.27883014507E+02 -0.41709909547E+02  0.34092043411E+02  0.60802293348E+02  0.41800000000E+01 0.  1.
        -11    1    1    2    0    0 -0.73293701777E+01  0.93836441972E+01  0.38630671260E+02  0.40424017707E+02  0.00000000000E+00 0.  1.
         11    1    1    2    0    0  0.25679915583E+02 -0.16418002313E+02 -0.43048803827E+02  0.52746643261E+02  0.00000000000E+00 0. -1.
</event>
<event>
 7    1  0.6473813E-006  0.1285054E+03  0.7561462E-02  0.1229690E+00
          1   -1    0    0  501    0  0.00000000000E+00  0.00000000000E+00  0.46328114254E+02  0.46328114254E+02  0.00000000000E+00 0. -1.
         -1   -1    0    0    0  501 -0.00000000000E+00 -0.00000000000E+00 -0.54264307278E+03  0.54264307278E+03  0.00000000000E+00 0.  1.
         23    2    1    2    0    0 -0.97242900025E+02 -0.52217365451E+02 -0.32924069167E+03  0.36909395460E+03  0.12509228359E+03 0.  0.
          5    1    3    3  502    0 -0.10073336917E+03 -0.53954919818E+02 -0.14453191562E+03  0.18429675003E+03  0.41800000000E+01 0. -1.
         -5    1    3    3    0  502  0.34904691494E+01  0.17375543666E+01 -0.18470877604E+03  0.18479720457E+03  0.41800000000E+01 0. -1.
        -11    1    1    2    0    0  0.11167538611E+03  0.49943379789E+02 -0.16456220618E+03  0.20505231710E+03  0.00000000000E+00 0.  1.
         11    1    1    2    0    0 -0.14432486090E+02  0.22739856622E+01 -0.25120606810E+01  0.14824915325E+02  0.00000000000E+00 0. -1.
</event>
<event>
 7    1  0.6473813E-006  0.7845289E+02  0.7561462E-02  0.1333500E+00
          2   -1    0    0  501    0  0.00000000000E+00  0.00000000000E+00  0.51520907455E+02  0.51520907455E+02  0.00000000000E+00 0. -1.
         -2   -1    0    0    0  501 -0.00000000000E+00 -0.00000000000E+00 -0.35665887218E+03  0.35665887218E+03  0.00000000000E+00 0.  1.
         23    2    1    2    0    0 -0.56182659235E+02  0.51815502891E+02 -0.21317320217E+03  0.25870389405E+03  0.12507419052E+03 0.  0.
          5    1    3    3  502    0 -0.37546393778E+01  0.84012621213E+01  0.16372917665E+02  0.19241189021E+02  0.41800000000E+01 0.  1.
         -5    1    3    3    0  502 -0.52428019857E+02  0.43414240769E+02 -0.22954611983E+03  0.23946270503E+03  0.41800000000E+01 0.  1.
        -11    1    1    2    0    0  0.32206873629E+02 -0.17254225492E+02 -0.10016484456E+03  0.10662076295E+03  0.00000000000E+00 0.  1.
         11    1    1    2    0    0  0.23975785606E+02 -0.34561277399E+02  0.82000820111E+01  0.42855122632E+02  0.00000000000E+00 0. -1.
</event>
<event>
 7    1  0.6473813E-006  0.1065995E+03  0.7561462E-02  0.1267000E+00
         -2   -1    0    0    0  501 -0.00000000000E+00  0.00000000000E+00  0.39657779585E+02  0.39657779585E+02  0.00000000000E+00 0.  1.
          2   -1    0    0  501    0  0.00000000000E+00 -0.00000000000E+00 -0.29978653730E+03  0.29978653730E+03  0.00000000000E+00 0. -1.
         23    2    1    2    0    0  0.17915326202E+01  0.14426189360E+02 -0.14273254754E+03  0.19034496661E+03  0.12508917483E+03 0.  0.
          5    1    3    3  502    0 -0.23811180663E+02  0.63497212978E+02 -0.96983164045E+02  0.11841484235E+03  0.41800000000E+01 0.  1.
         -5    1    3    3    0  502  0.25602713283E+02 -0.49071023617E+02 -0.45749383495E+02  0.71930124263E+02  0.41800000000E+01 0.  1.
        -11    1    1    2    0    0  0.12603469210E+02  0.35562126672E+02 -0.65687527262E+02  0.75751986953E+02  0.00000000000E+00 0. -1.
         11    1    1    2    0    0 -0.14395001830E+02 -0.49988316032E+02 -0.51708682917E+02  0.73347363323E+02  0.00000000000E+00 0.  1.
</event>
<event>
 7    1  0.6473813E-006  0.1541851E+03  0.7561462E-02  0.1195423E+00
         -2   -1    0    0    0  501 -0.00000000000E+00  0.00000000000E+00  0.18982425143E+03  0.18982425143E+03  0.00000000000E+00 0.  1.
          2   -1    0    0  501    0  0.00000000000E+00 -0.00000000000E+00 -0.16078360988E+03  0.16078360988E+03  0.00000000000E+00 0. -1.
         23    2    1    2    0    0  0.64118384642E+02  0.10837377520E+03  0.70694910776E+02  0.19106406478E+03  0.12510661070E+03 0.  0.
          5    1    3    3  502    0 -0.32167871795E+02  0.97556987526E+00  0.19979248340E+02  0.38109926222E+02  0.41800000000E+01 0.  1.
         -5    1    3    3    0  502  0.96286256437E+02  0.10739820533E+03  0.50715662436E+02  0.15295413856E+03  0.41800000000E+01 0.  1.
        -11    1    1    2    0    0 -0.34401856118E+02 -0.90783980763E+02  0.97989317648E+01  0.97576830914E+02  0.00000000000E+00 0.  1.
         11    1    1    2    0    0 -0.29716528524E+02 -0.17589794438E+02 -0.51453200988E+02  0.61966965617E+02  0.00000000000E+00 0. -1.
</event>
<event>
 7    1  0.6473813E-006  0.1303290E+03  0.7561462E-02  0.1226968E+00
          2   -1    0    0  501    0  0.00000000000E+00  0.00000000000E+00  0.12087578695E+04  0.12087578695E+04  0.00000000000E+00 0. -1.
         -2   -1    0    0    0  501 -0.00000000000E+00 -0.00000000000E+00 -0.14796946414E+02  0.14796946414E+02  0.00000000000E+00 0.  1.
         23    2    1    2    0    0 -0.52651139052E+02  0.58056699021E+02  0.69999571109E+03  0.71539029477E+03  0.12508619251E+03 0.  0.
          5    1    3    3  502    0 -0.70006749387E+01  0.88227482309E+02  0.34593169616E+03  0.35709845826E+03  0.41800000000E+01 0.  1.
         -5    1    3    3    0  502 -0.45650464113E+02 -0.30170783289E+02  0.35406401493E+03  0.35829183651E+03  0.41800000000E+01 0.  1.
        -11    1    1    2    0    0  0.49351500360E+02  0.88914213613E+01  0.16552162963E+03  0.17295096946E+03  0.00000000000E+00 0. -1.
         11    1    1    2    0    0  0.32996386918E+01 -0.66948120382E+02  0.32844358235E+03  0.33521355168E+03  0.00000000000E+00 0.  1.
</event>
<event>
 7    1  0.9106137E-006  0.1848469E+03  0.7561462E-02  0.1163193E+00
         -4   -1    0    0    0  501 -0.00000000000E+00  0.00000000000E+00  0.51959366752E+02  0.51959366752E+02  0.00000000000E+00 0.  1.
          4   -1    0    0  501    0  0.00000000000E+00 -0.00000000000E+00 -0.85273419732E+03  0.85273419732E+03  0.00000000000E+00 0. -1.
         23    2    1    2    0    0  0.14069889870E+03  0.95178335036E+02 -0.28693301887E+03  0.35613669455E+03  0.12509073638E+03 0.  0.
          5    1    3    3  502    0  0.14222483128E+03  0.99701356165E+02 -0.18420819068E+03  0.25321609935E+03  0.41800000000E+01 0. -1.
         -5    1    3    3    0  502 -0.15259325754E+01 -0.45230211294E+01 -0.10272482819E+03  0.10292059520E+03  0.41800000000E+01 0. -1.
        -11    1    1    2    0    0  0.54489208609E+01 -0.28415767665E+02 -0.11459955389E+03  0.11819561896E+03  0.00000000000E+00 0. -1.
         11    1    1    2    0    0 -0.14614781956E+03 -0.66762567371E+02 -0.39924225781E+03  0.43036125056E+03  0.00000000000E+00 0.  1.
</event>
<event>
 6    1  0.6473813E-006  0.6185258E+02  0.7561462E-02  0.1390218E+00
          2   -1    0    0  501    0  0.00000000000E+00  0.00000000000E+00  0.15925000265E+03  0.15925000265E+03  0.00000000000E+00 0. -1.
         -2   -1    0    0    0  501 -0.00000000000E+00 -0.00000000000E+00 -0.14283016058E+03  0.14283016058E+03  0.00000000000E+00 0.  1.
          5    1    1    2  502    0  0.21834060641E+00 -0.43385863148E+02  0.27856097176E+02  0.51728283788E+02  0.41800000000E+01 0. -1.
         -5    1    1    2    0  502 -0.21854655799E+02 -0.76475937365E+01 -0.12294273672E+03  0.12517388139E+03  0.41800000000E+01 0.  1.
        -11    1    1    2    0    0  0.83454321956E+01  0.80389068127E+01  0.18021850939E+02  0.21425624205E+02  0.00000000000E+00 0.  1.
         11    1    1    2    0    0  0.13290882997E+02  0.42994550072E+02  0.93484630680E+02  0.10375237385E+03  0.00000000000E+00 0. -1.
</event>
<event>
 7    1  0.6473813E-006  0.1300189E+03  0.7561462E-02  0.1227428E+00
          2   -1    0    0  501    0  0.00000000000E+00  0.00000000000E+00  0.49647689078E+03  0.49647689078E+03  0.00000000000E+00 0.  1.
         -2   -1    0    0    0  501 -0.00000000000E+00 -0.00000000000E+00 -0.38773664788E+02  0.38773664788E+02  0.00000000000E+00 0. -1.
         23    2    1    2    0    0  0.40841649009E+02  0.72983469661E+02  0.29919738800E+03  0.33490523611E+03  0.12509121893E+03 0.  0.
          5    1    3    3  502    0 -0.42605106261E+02  0.34159377235E+02  0.14848321253E+03  0.15826179240E+03  0.41800000000E+01 0. -1.
         -5    1    3    3    0  502  0.83446755270E+02  0.38824092426E+02  0.15071417547E+03  0.17664344371E+03  0.41800000000E+01 0. -1.
        -11    1    1    2    0    0 -0.63499750542E+02 -0.57776128219E+02  0.80439290392E+02  0.11764683910E+03  0.00000000000E+00 0.  1.
         11    1    1    2    0    0  0.22658101533E+02 -0.15207341442E+02  0.78066547598E+02  0.82698480353E+02  0.00000000000E+00 0. -1.
</event>
<event>
 7    1  0.6473813E-006  0.9929760E+02  0.7561462E-02  0.1281780E+00
          1   -1    0    0  501    0  0.00000000000E+00  0.00000000000E+00  0.12321975492E+03  0.12321975492E+03  0.00000000000E+00 0. -1.
         -1   -1    0    0    0  501 -0.00000000000E+00 -0.00000000000E+00 -0.14599250045E+03  0.14599250045E+03  0.00000000000E+00 0.  1.
         23    2    1    2    0    0  0.36517455456E+02 -0.55536670523E+02 -0.55325566653E+02  0.15207434243E+03  0.12509133053E+03 0.  0.
          5    1    3    3  502    0  0.29530360964E+01  0.33216292882E+02 -0.45530455602E+02  0.56590965024E+02  0.41800000000E+01 0.  1.
         -5    1    3    3    0  502  0.33564419360E+02 -0.88752963405E+02 -0.97951110513E+01  0.95483377405E+02  0.41800000000E+01 0.  1.
        -11    1    1    2    0    0 -0.20205451795E+02  0.11965043072E+02  0.59084271409E+02  0.63579663933E+02  0.00000000000E+00 0. -1.
         11    1    1    2    0    0 -0.16312003661E+02  0.43571627451E+02 -0.26531450286E+02  0.53558249005E+02  0.00000000000E+00 0.  1.
</event>
<event>
 7    1  0.6473813E-006  0.1058008E+03  0.7561462E-02  0.1268550E+00
          4   -1    0    0  501    0  0.00000000000E+00  0.00000000000E+00  0.64032991770E+03  0.64032991770E+03  0.00000000000E+00 0. -1.
         -4   -1    0    0    0  501 -0.00000000000E+00 -0.00000000000E+00 -0.31176550258E+02  0.31176550258E+02  0.00000000000E+00 0.  1.
         23    2    1    2    0    0 -0.26293490773E+02  0.60680397131E+02  0.18663895279E+03  0.23421255346E+03  0.12509181927E+03 0.  0.
          5    1    3    3  502    0 -0.37380435745E+01  0.73013197471E+02  0.19382337519E+03  0.20719525368E+03  0.41800000000E+01 0.  1.
         -5    1    3    3    0  502 -0.22555447199E+02 -0.12332800340E+02 -0.71844224007E+01  0.27017299787E+02  0.41800000000E+01 0.  1.
        -11    1    1    2    0    0 -0.34102647400E+02 -0.23261020553E+02  0.17339013532E+03  0.17823637301E+03  0.00000000000E+00 0.  1.
         11    1    1    2    0    0  0.60396138173E+02 -0.37419376578E+02  0.24912427933E+03  0.25905754148E+03  0.00000000000E+00 0. -1.
</event>
<event>
 7    1  0.6473813E-006  0.9409227E+02  0.7561462E-02  0.1293234E+00
          4   -1    0    0  501    0  0.00000000000E+00  0.00000000000E+00  0.19199992949E+03  0.19199992949E+03  0.00000000000E+00 0. -1.
         -4   -1    0    0    0  501 -0.00000000000E+00 -0.00000000000E+00 -0.66065252538E+02  0.66065252538E+02  0.00000000000E+00 0.  1.
         23    2    1    2    0    0  0.38859140787E+02 -0.10486247040E+02  0.54542679133E+02  0.13604700633E+03  0.11795715275E+03 0.  0.
          5    1    3    3  502    0 -0.25137602384E+02  0.13136989879E+02  0.60995670338E+02  0.67397505567E+02  0.41800000000E+01 0. -1.
         -5    1    3    3    0  502  0.63996743171E+02 -0.23623236919E+02 -0.64529912054E+01  0.68649500760E+02  0.41800000000E+01 0.  1.
        -11    1    1    2    0    0 -0.38779918975E+02 -0.31021784609E+02  0.14769109190E+02  0.51810807968E+02  0.00000000000E+00 0.  1.
         11    1    1    2    0    0 -0.79221812724E-01  0.41508031649E+02  0.56622888632E+02  0.70207367737E+02  0.00000000000E+00 0. -1.
</event>
<event>
 7    1  0.6473813E-006  0.1143938E+03  0.7561462E-02  0.1252643E+00
         -1   -1    0    0    0  501 -0.00000000000E+00  0.00000000000E+00  0.35937191829E+02  0.35937191829E+02  0.00000000000E+00 0.  1.
          1   -1    0    0  501    0  0.00000000000E+00 -0.00000000000E+00 -0.49069722428E+03  0.49069722428E+03  0.00000000000E+00 0. -1.
         23    2    1    2    0    0  0.37610061196E+02 -0.18232615582E+02 -0.12719220233E+03  0.18322848252E+03  0.12509146853E+03 0.  0.
          5    1    3    3  502    0  0.57761873531E+02 -0.59242231154E+02 -0.61860645281E+02  0.10339384808E+03  0.41800000000E+01 0. -1.
         -5    1    3    3    0  502 -0.20151812336E+02  0.41009615572E+02 -0.65331557052E+02  0.79834634443E+02  0.41800000000E+01 0. -1.
        -11    1    1    2    0    0  0.19093510696E+02 -0.23039938160E+02 -0.63724099150E+02  0.70400012171E+02  0.00000000000E+00 0.  1.
         11    1    1    2    0    0 -0.56703571892E+02  0.41272553742E+02 -0.26384373097E+03  0.27300592142E+03  0.00000000000E+00 0. -1.
</event>
<event>
 7    1  0.6473813E-006  0.2313148E+03  0.7561462E-02  0.1125718E+00
         -2   -1    0    0    0  501 -0.00000000000E+00  0.00000000000E+00  0.42707195664E+03  0.42707195664E+03  0.00000000000E+00 0.  1.
          2   -1    0    0  501    0  0.00000000000E+00 -0.00000000000E+00 -0.13155292902E+03  0.13155292902E+03  0.00000000000E+00 0. -1.
         23    2    1    2    0    0  0.18151224127E+03  0.10596090062E+03  0.15188524990E+03  0.28790429456E+03  0.12508136350E+03 0.  0.
          5    1    3    3  502    0  0.82251996257E+02  0.11861614351E+03  0.91717860305E+02  0.17106963111E+03  0.41800000000E+01 0. -1.
         -5    1    3    3    0  502  0.99260245011E+02 -0.12655242885E+02  0.60167389599E+02  0.11683466345E+03  0.41800000000E+01 0. -1.
        -11    1    1    2    0    0 -0.10630875856E+03 -0.94036569744E+02  0.13175043565E+03  0.19365589558E+03  0.00000000000E+00 0.  1.
         11    1    1    2    0    0 -0.75203482704E+02 -0.11924330876E+02  0.11883342059E+02  0.77064695524E+02  0.00000000000E+00 0. -1.
</event>
<event>
 7    1  0.6473813E-006  0.2153802E+03  0.7561462E-02  0.1137375E+00
         -2   -1    0    0    0  501 -0.00000000000E+00  0.00000000000E+00  0.11990281590E+03  0.11990281590E+03  0.00000000000E+00 0.  1.
          2   -1    0    0  501    0  0.00000000000E+00 -0.00000000000E+00 -0.49748755673E+03  0.49748755673E+03  0.00000000000E+00 0. -1.
         23    2    1    2    0    0 -0.49053978311E+02  0.19345220120E+03 -0.82643432127E+02  0.24961596124E+03  0.12509254293E+03 0.  0.
          5    1    3    3  502    0 -0.37309022598E+02  0.19528097986E+03 -0.10430822140E+03  0.22455356091E+03  0.41800000000E+01 0.  1.
         -5    1    3    3    0  502 -0.11744955713E+02 -0.18287786662E+01  0.21664789277E+02  0.25062400335E+02  0.41800000000E+01 0.  1.
        -11    1    1    2    0    0  0.65333766538E+02 -0.73864714140E+02 -0.14365248020E+03  0.17424273905E+03  0.00000000000E+00 0.  1.
         11    1    1    2    0    0 -0.16279788227E+02 -0.11958748706E+03 -0.15128882851E+03  0.19353167234E+03  0.00000000000E+00 0. -1.
</event>
<event>
 7    1  0.6473813E-006  0.1106987E+03  0.7561462E-02  0.1259282E+00
          1   -1    0    0  501    0  0.00000000000E+00  0.00000000000E+00  0.82020853003E+03  0.82020853003E+03  0.00000000000E+00 0. -1.
         -1   -1    0    0    0  501 -0.00000000000E+00 -0.00000000000E+00 -0.22765919984E+02  0.22765919984E+02  0.00000000000E+00 0.  1.
         23    2    1    2    0    0 -0.32927977517E+02  0.51921079791E+02  0.31391067329E+03  0.34346386777E+03  0.12508983741E+03 0.  0.
          5    1    3    3  502    0 -0.58192402165E+02  0.29625214208E+02  0.29952389279E+03  0.30658774232E+03  0.41800000000E+01 0.  1.
         -5    1    3    3    0  502  0.25264424648E+02  0.22295865583E+02  0.14386780500E+02  0.36876125448E+02  0.41800000000E+01 0.  1.
        -11    1    1    2    0    0  0.63255458830E+02 -0.16225719269E+01  0.19322871323E+03  0.20332540773E+03  0.00000000000E+00 0.  1.
         11    1    1    2    0    0 -0.30327481314E+02 -0.50298507864E+02  0.29030322352E+03  0.29618517452E+03  0.00000000000E+00 0. -1.
</event>
<event>
 6    1  0.6473813E-006  0.1006703E+03  0.7561462E-02  0.1278893E+00
         -2   -1    0    0    0  501 -0.00000000000E+00  0.00000000000E+00  0.14689775544E+03  0.14689775544E+03  0.00000000000E+00 0.  1.
          2   -1    0    0  501    0  0.00000000000E+00 -0.00000000000E+00 -0.28199152065E+03  0.28199152065E+03  0.00000000000E+00 0. -1.
          5    1    1    2  502    0  0.38252348060E+02 -0.33052393260E+02 -0.16775071125E+03  0.17525260728E+03  0.41800000000E+01 0. -1.
         -5    1    1    2    0  502 -0.49213021157E+02 -0.78570604249E+01  0.11373036818E+03  0.12424058876E+03  0.41800000000E+01 0.  1.
        -11    1    1    2    0    0 -0.27011475196E+02 -0.16587985019E+02 -0.29813596353E+02  0.43515877180E+02  0.00000000000E+00 0.  1.
         11    1    1    2    0    0  0.37972148294E+02  0.57497438704E+02 -0.51259825792E+02  0.85880202863E+02  0.00000000000E+00 0. -1.
</event>
<event>
 7    1  0.6473813E-006  0.1377021E+03  0.7561462E-02  0.1216455E+00
         -1   -1    0    0    0  501 -0.00000000000E+00  0.00000000000E+00  0.56453599344E+02  0.56453599344E+02  0.00000000000E+00 0.  1.
          1   -1    0    0  501    0  0.00000000000E+00 -0.00000000000E+00 -0.43791004406E+03  0.43791004406E+03  0.00000000000E+00 0. -1.
         23    2    1    2    0    0  0.11278275615E+03 -0.12929676131E+02 -0.21096978138E+03  0.27026337061E+03  0.12508762620E+03 0.  0.
          5    1    3    3  502    0  0.21913615414E+02 -0.52283413034E+02 -0.13137826861E+03  0.14314846727E+03  0.41800000000E+01 0.  1.
         -5    1    3    3    0  502  0.90869140732E+02  0.39353736902E+02 -0.79591512771E+02  0.12711490334E+03  0.41800000000E+01 0.  1.
        -11    1    1    2    0    0 -0.52781845227E+02  0.24744404680E+02 -0.19944898531E+02  0.61611749902E+02  0.00000000000E+00 0.  1.
         11    1    1    2    0    0 -0.60000910919E+02 -0.11814728548E+02 -0.15054176481E+03  0.16248852289E+03  0.00000000000E+00 0. -1.
</event>
<event>
 7    1  0.6473813E-006  0.1728188E+03  0.7561462E-02  0.1174940E+00
         -2   -1    0    0    0  501 -0.00000000000E+00  0.00000000000E+00  0.13715171123E+03  0.13715171123E+03  0.00000000000E+00 0. -1.
          2   -1    0    0  501    0  0.00000000000E+00 -0.00000000000E+00 -0.24921485227E+03  0.24921485227E+03  0.00000000000E+00 0.  1.
         23    2    1    2    0    0  0.81983486739E+02 -0.12559099675E+03 -0.52125745898E+02  0.20214753263E+03  0.12510851689E+03 0.  0.
          5    1    3    3  502    0  0.64426505050E+02  0.29085540953E+01 -0.26666084128E+02  0.69912707590E+02  0.41800000000E+01 0.  1.
         -5    1    3    3    0  502  0.17556981689E+02 -0.12849955085E+03 -0.25459661770E+02  0.13223482503E+03  0.41800000000E+01 0.  1.
        -11    1    1    2    0    0 -0.40811534896E+02  0.44996773298E+02  0.19498684485E+02  0.63800389375E+02  0.00000000000E+00 0.  1.
         11    1    1    2    0    0 -0.41171951843E+02  0.80594223456E+02 -0.79436079625E+02  0.12041864149E+03  0.00000000000E+00 0. -1.
</event>
<event>
 7    1  0.6473813E-006  0.1136373E+03  0.7561462E-02  0.1253979E+00
          2   -1    0    0  501    0  0.00000000000E+00  0.00000000000E+00  0.48976323334E+02  0.48976323334E+02  0.00000000000E+00 0. -1.
         -2   -1    0    0    0  501 -0.00000000000E+00 -0.00000000000E+00 -0.29940981950E+03  0.29940981950E+03  0.00000000000E+00 0.  1.
         23    2    1    2    0    0 -0.29143161967E+02 -0.96234171934E+01 -0.12167182228E+03  0.16855301165E+03  0.11253511164E+03 0.  0.
          5    1    3    3  502    0 -0.42380555629E+02 -0.47934479934E+02 -0.10794893445E+03  0.12555584698E+03  0.41800000000E+01 0. -1.
         -5    1    3    3    0  502  0.13237393662E+02  0.38311062741E+02 -0.13722887824E+02  0.42997164668E+02  0.41800000000E+01 0.  1.
        -11    1    1    2    0    0  0.75566723158E+02  0.44875848028E+01 -0.98303370487E+02  0.12407264290E+03  0.00000000000E+00 0.  1.
         11    1    1    2    0    0 -0.46423561191E+02  0.51358323905E+01 -0.30458303405E+02  0.55760488290E+02  0.00000000000E+00 0. -1.
</event>
<event>
 7    1  0.6473813E-006  0.7001904E+02  0.7561462E-02  0.1360028E+00
         -1   -1    0    0    0  501 -0.00000000000E+00  0.00000000000E+00  0.35139677827E+02  0.35139677827E+02  0.00000000000E+00 0.  1.
          1   -1    0    0  501    0  0.00000000000E+00 -0.00000000000E+00 -0.35745466795E+03  0.35745466795E+03  0.00000000000E+00 0. -1.
         23    2    1    2    0    0 -0.13424813617E+02  0.56501242975E+01 -0.14639439828E+03  0.19310911490E+03  0.12509061069E+03 0.  0.
          5    1    3    3  502    0 -0.87860307576E+01 -0.18676507834E+02  0.17451060814E+02  0.27349921478E+02  0.41800000000E+01 0.  1.
         -5    1    3    3    0  502 -0.46387828591E+01  0.24326632131E+02 -0.16384545910E+03  0.16575919342E+03  0.41800000000E+01 0.  1.
        -11    1    1    2    0    0 -0.39039979347E+02  0.75515475913E+01 -0.68302461253E+02  0.79033993140E+02  0.00000000000E+00 0.  1.
         11    1    1    2    0    0  0.52464792964E+02 -0.13201671889E+02 -0.10761813058E+03  0.12045123774E+03  0.00000000000E+00 0. -1.
</event>
<event>
 7    1  0.6473813E-006  0.1151726E+03  0.7561462E-02  0.1251280E+00
          1   -1    0    0  501    0  0.00000000000E+00  0.00000000000E+00  0.43592390988E+03  0.43592390988E+03  0.00000000000E+00 0. -1.
         -1   -1    0    0    0  501 -0.00000000000E+00 -0.00000000000E+00 -0.38155799748E+02  0.38155799748E+02  0.00000000000E+00 0.  1.
         23    2    1    2    0    0 -0.41375487396E+02  0.51695354148E+02  0.18801964015E+03  0.23533806847E+03  0.12509308849E+03 0.  0.
          5    1    3    3  502    0 -0.75539644587E+02  0.85932115011E+01  0.15038953632E+03  0.16856620724E+03  0.41800000000E+01 0.  1.
         -5    1    3    3    0  502  0.34164157191E+02  0.43102142647E+02  0.37630103833E+02  0.66771861227E+02  0.41800000000E+01 0.  1.
        -11    1    1    2    0    0  0.39296353049E+02  0.73376447745E+01  0.14794065145E+03  0.15324647058E+03  0.00000000000E+00 0. -1.
         11    1    1    2    0    0  0.20791343469E+01 -0.59032998923E+02  0.61807818527E+02  0.85495170580E+02  0.00000000000E+00 0.  1.
</event>
<event>
 7    1  0.6774168E-006  0.1022295E+03  0.7561462E-02  0.1275676E+00
          1   -1    0    0  501    0  0.00000000000E+00  0.00000000000E+00  0.17833339867E+03  0.17833339867E+03  0.00000000000E+00 0. -1.
         -1   -1    0    0    0  501 -0.00000000000E+00 -0.00000000000E+00 -0.12401355433E+03  0.12401355433E+03  0.00000000000E+00 0.  1.
         23    2    1    2    0    0 -0.17573394481E+02 -0.98121479491E+02  0.22283877670E+02  0.16149607804E+03  0.12509101921E+03 0.  0.
          5    1    3    3  502    0 -0.53358618697E+01 -0.23349660786E+02 -0.50689782811E+02  0.56219254372E+02  0.41800000000E+01 0. -1.
         -5    1    3    3    0  502 -0.12237532612E+02 -0.74771818706E+02  0.72973660482E+02  0.10527682367E+03  0.41800000000E+01 0. -1.
        -11    1    1    2    0    0  0.48763853501E+01  0.87705354774E+02  0.61423314345E+02  0.10718596893E+03  0.00000000000E+00 0. -1.
         11    1    1    2    0    0  0.12697009131E+02  0.10416124717E+02 -0.29387347678E+02  0.33664906038E+02  0.00000000000E+00 0.  1.
</event>
<event>
 7    1  0.6473813E-006  0.8942301E+02  0.7561462E-02  0.1304255E+00
          1   -1    0    0  501    0  0.00000000000E+00  0.00000000000E+00  0.18586479766E+03  0.18586479766E+03  0.00000000000E+00 0. -1.
         -1   -1    0    0    0  501 -0.00000000000E+00 -0.00000000000E+00 -0.10490960341E+03  0.10490960341E+03  0.00000000000E+00 0.  1.
         23    2    1    2    0    0 -0.67501448725E+02  0.16345250196E+02 -0.11791572867E+02  0.14355894643E+03  0.12508603889E+03 0.  0.
          5    1    3    3  502    0 -0.57758900227E+02  0.18296387327E+02 -0.65182753567E+02  0.89090471472E+02  0.41800000000E+01 0.  1.
         -5    1    3    3    0  502 -0.97425484981E+01 -0.19511371304E+01  0.53391180700E+02  0.54468474954E+02  0.41800000000E+01 0.  1.
        -11    1    1    2    0    0  0.22072880589E+02 -0.47412898159E+02  0.19993466652E+02  0.55990478459E+02  0.00000000000E+00 0.  1.
         11    1    1    2    0    0  0.45428568136E+02  0.31067647963E+02  0.72753300465E+02  0.91224976193E+02  0.00000000000E+00 0. -1.
</event>
<event>
 7    1  0.6473813E-006  0.1384320E+03  0.7561462E-02  0.1215455E+00
         -1   -1    0    0    0  501 -0.00000000000E+00  0.00000000000E+00  0.61101108015E+02  0.61101108015E+02  0.00000000000E+00 0.  1.
          1   -1    0    0  501    0  0.00000000000E+00 -0.00000000000E+00 -0.32027188722E+03  0.32027188722E+03  0.00000000000E+00 0. -1.
         23    2    1    2    0    0  0.40853798062E+02  0.76762975408E+02 -0.12120891666E+03  0.19468614457E+03  0.12509798640E+03 0.  0.
          5    1    3    3  502    0 -0.42045473639E+02  0.48932966300E+02 -0.55849425725E+02  0.85433528537E+02  0.41800000000E+01 0.  1.
         -5    1    3    3    0  502  0.82899271701E+02  0.27830009108E+02 -0.65359490936E+02  0.10925261604E+03  0.41800000000E+01 0.  1.
        -11    1    1    2    0    0 -0.39978614050E+02  0.72662075776E+01 -0.33802308450E+02  0.52855306361E+02  0.00000000000E+00 0.  1.
         11    1    1    2    0    0 -0.87518401179E+00 -0.84029182986E+02 -0.10415955409E+03  0.13383154430E+03  0.00000000000E+00 0. -1.
</event>
<event>
 7    1  0.6473813E-006  0.1026595E+03  0.7561462E-02  0.1274801E+00
         -2   -1    0    0    0  501 -0.00000000000E+00  0.00000000000E+00  0.28120512883E+02  0.28120512883E+02  0.00000000000E+00 0.  1.
          2   -1    0    0  501    0  0.00000000000E+00 -0.00000000000E+00 -0.41338817879E+03  0.41338817879E+03  0.00000000000E+00 0. -1.
         23    2    1    2    0    0 -0.45782690557E+01 -0.14927619819E+02 -0.18889986863E+03  0.22710650769E+03  0.12510160305E+03 0.  0.
          5    1    3    3  502    0 -0.37553017678E+02 -0.56781541309E+02 -0.75515743633E+02  0.10175692854E+03  0.41800000000E+01 0.  1.
         -5    1    3    3    0  502  0.32974748622E+02  0.41853921490E+02 -0.11338412499E+03  0.12534957914E+03  0.41800000000E+01 0.  1.
        -11    1    1    2    0    0  0.71394703817E+01  0.48990904395E+02 -0.13994977859E+03  0.14844871599E+03  0.00000000000E+00 0.  1.
         11    1    1    2    0    0 -0.25612013260E+01 -0.34063284576E+02 -0.56418018692E+02  0.65953468002E+02  0.00000000000E+00 0. -1.
</event>
<event>
 7    1  0.6473813E-006  0.7427989E+02  0.7561462E-02  0.1346116E+00
         -1   -1    0    0    0  501 -0.00000000000E+00  0.00000000000E+00  0.15053513326E+03  0.15053513326E+03  0.00000000000E+00 0.  1.
          1   -1    0    0  501    0  0.00000000000E+00 -0.00000000000E+00 -0.10702853300E+03  0.10702853300E+03  0.00000000000E+00 0. -1.
         23    2    1    2    0    0  0.46061469188E+02  0.16974083255E+02  0.70160978109E+02  0.15159472425E+03  0.12509444082E+03 0.  0.
          5    1    3    3  502    0  0.18709270299E+02 -0.12056115476E+02  0.99410269063E+02  0.10195715135E+03  0.41800000000E+01 0. -1.
         -5    1    3    3    0  502  0.27352198889E+02  0.29030198731E+02 -0.29249290954E+02  0.49637572903E+02  0.41800000000E+01 0. -1.
        -11    1    1    2    0    0 -0.38749986234E+02  0.23073547920E+02  0.15190231252E+02  0.47588792506E+02  0.00000000000E+00 0.  1.
         11    1    1    2    0    0 -0.73114829542E+01 -0.40047631175E+02 -0.41844609094E+02  0.58380149502E+02  0.00000000000E+00 0. -1.
</event>
<event>
 7    1  0.6473813E-006  0.2564151E+03  0.7561462E-02  0.1109316E+00
         -1   -1    0    0    0  501 -0.00000000000E+00  0.00000000000E+00  0.53856086552E+03  0.53856086552E+03  0.00000000000E+00 0.  1.
          1   -1    0    0  501    0  0.00000000000E+00 -0.00000000000E+00 -0.15977257638E+03  0.15977257638E+03  0.00000000000E+00 0. -1.
         23    2    1    2    0    0  0.15270747133E+03  0.18651836748E+03  0.34446148893E+03  0.43864545249E+03  0.12508973749E+03 0.  0.
          5    1    3    3  502    0 -0.39504338376E+01  0.83727226211E+02  0.98149063443E+02  0.12913777678E+03  0.41800000000E+01 0. -1.
         -5    1    3    3    0  502  0.15665790517E+03  0.10279114127E+03  0.24631242548E+03  0.30950767571E+03  0.41800000000E+01 0. -1.
        -11    1    1    2    0    0 -0.10590789998E+03 -0.13951500879E+03  0.64711175672E+02  0.18673097551E+03  0.00000000000E+00 0.  1.
         11    1    1    2    0    0 -0.46799571348E+02 -0.47003358685E+02 -0.30384375458E+02  0.72957013905E+02  0.00000000000E+00 0. -1.
</event>
<event>
 6    1  0.6473813E-006  0.8154824E+02  0.7561462E-02  0.1324714E+00
         -2   -1    0    0    0  501 -0.00000000000E+00  0.00000000000E+00  0.28941760277E+02  0.28941760277E+02  0.00000000000E+00 0.  1.
          2   -1    0    0  501    0  0.00000000000E+00 -0.00000000000E+00 -0.49748469181E+03  0.49748469181E+03  0.00000000000E+00 0. -1.
          5    1    1    2  502    0  0.31635434070E+02 -0.20154889380E+02 -0.26688896787E+03  0.26954445612E+03  0.41800000000E+01 0. -1.
         -5    1    1    2    0  502  0.48781448287E+01  0.27975136757E+02  0.37592099153E+01  0.28948378758E+02  0.41800000000E+01 0.  1.
        -11    1    1    2    0    0 -0.63070983024E+02  0.11103505486E+02 -0.11232206566E+03  0.12929610655E+03  0.00000000000E+00 0.  1.
         11    1    1    2    0    0  0.26557404125E+02 -0.18923752863E+02 -0.93091107925E+02  0.98637510669E+02  0.00000000000E+00 0. -1.
</event>
<event>
 7    1  0.6473813E-006  0.1643069E+03  0.7561462E-02  0.1183918E+00
          2   -1    0    0  501    0  0.00000000000E+00  0.00000000000E+00  0.70916165891E+02  0.70916165891E+02  0.00000000000E+00 0.  1.
         -2   -1    0    0    0  501 -0.00000000000E+00 -0.00000000000E+00 -0.46306579445E+03  0.46306579445E+03  0.00000000000E+00 0. -1.
         23    2    1    2    0    0 -0.10576860730E+03  0.67142165340E+02 -0.31716147446E+03  0.36322464208E+03  0.12508265696E+03 0.  0.
          5    1    3    3  502    0 -0.10808096616E+03 -0.12200435024E+01 -0.20491509914E+03  0.23171243818E+03  0.41800000000E+01 0. -1.
         -5    1    3    3    0  502  0.23123588559E+01  0.68362208843E+02 -0.11224637532E+03  0.13151220390E+03  0.41800000000E+01 0. -1.
        -11    1    1    2    0    0 -0.12769353623E+02 -0.21276550887E+02 -0.38780943009E+01  0.25115485761E+02  0.00000000000E+00 0. -1.
         11    1    1    2    0    0  0.11853796093E+03 -0.45865614453E+02 -0.71110059798E+02  0.14564183250E+03  0.00000000000E+00 0.  1.
</event>
<event>
 7    1  0.6473813E-006  0.1283504E+03  0.7561462E-02  0.1229924E+00
          1   -1    0    0  501    0  0.00000000000E+00  0.00000000000E+00  0.12795591939E+02  0.12795591939E+02  0.00000000000E+00 0. -1.
         -1   -1    0    0    0  501 -0.00000000000E+00 -0.00000000000E+00 -0.15856577836E+04  0.15856577836E+04  0.00000000000E+00 0.  1.
         23    2    1    2    0    0 -0.52381236914E+02 -0.50834123849E+02 -0.11743891887E+04  0.11832856633E+04  0.12508833866E+03 0.  0.
          5    1    3    3  502    0 -0.37265138449E+02  0.37464636589E+02 -0.53871834344E+03  0.54131988278E+03  0.41800000000E+01 0. -1.
         -5    1    3    3    0  502 -0.15116098465E+02 -0.88298760438E+02 -0.63567084523E+03  0.64196578055E+03  0.41800000000E+01 0. -1.
        -11    1    1    2    0    0  0.73508930810E+02  0.19205057843E+02 -0.30340042113E+03  0.31276862487E+03  0.00000000000E+00 0.  1.
         11    1    1    2    0    0 -0.21127693895E+02  0.31629066006E+02 -0.95072581836E+02  0.10239908731E+03  0.00000000000E+00 0. -1.
</event>
<event>
 7    1  0.6473813E-006  0.8910937E+02  0.7561462E-02  0.1305023E+00
         -2   -1    0    0    0  501 -0.00000000000E+00  0.00000000000E+00  0.34067347753E+03  0.34067347753E+03  0.00000000000E+00 0.  1.
          2   -1    0    0  501    0  0.00000000000E+00 -0.00000000000E+00 -0.41803106403E+02  0.41803106403E+02  0.00000000000E+00 0. -1.
         23    2    1    2    0    0  0.34999041282E+02 -0.25002730219E+02  0.20320381084E+03  0.24246614231E+03  0.12509185432E+03 0.  0.
          5    1    3    3  502    0  0.69236721534E+02  0.10586296638E+02  0.65007488807E+02  0.95651655952E+02  0.41800000000E+01 0. -1.
         -5    1    3    3    0  502 -0.34237680252E+02 -0.35589026857E+02  0.13819632203E+03  0.14681448636E+03  0.41800000000E+01 0. -1.
        -11    1    1    2    0    0  0.16144806654E+01  0.21666721024E+02  0.10059664745E+03  0.10291617379E+03  0.00000000000E+00 0.  1.
         11    1    1    2    0    0 -0.36613521948E+02  0.33360091953E+01 -0.49300871682E+01  0.37094267835E+02  0.00000000000E+00 0. -1.
</event>
<event>
 7    1  0.6473813E-006  0.1304393E+03  0.7561462E-02  0.1226805E+00
          2   -1    0    0  501    0  0.00000000000E+00  0.00000000000E+00  0.10675963356E+04  0.10675963356E+04  0.00000000000E+00 0. -1.
         -2   -1    0    0    0  501 -0.00000000000E+00 -0.00000000000E+00 -0.19384024032E+02  0.19384024032E+02  0.00000000000E+00 0.  1.
         23    2    1    2    0    0 -0.72096871956E+02 -0.73234467837E+02  0.53098627469E+03  0.55468486082E+03  0.12315691085E+03 0.  0.
          5    1    3    3  502    0  0.16760241938E+02 -0.33531198400E+02  0.43566338081E+02  0.57625907279E+02  0.41800000000E+01 0. -1.
         -5    1    3    3    0  502 -0.88857113894E+02 -0.39703269437E+02  0.48741993661E+03  0.49705895354E+03  0.41800000000E+01 0.  1.
        -11    1    1    2    0    0  0.80658344594E+02  0.37407990832E+02  0.36937498021E+03  0.37992499567E+03  0.00000000000E+00 0. -1.
         11    1    1    2    0    0 -0.85614726385E+01  0.35826477005E+02  0.14785105662E+03  0.15237050309E+03  0.00000000000E+00 0.  1.
</event>
<event>
 7    1  0.6473813E-006  0.1192474E+03  0.7561462E-02  0.1244344E+00
          1   -1    0    0  501    0  0.00000000000E+00  0.00000000000E+00  0.37283799036E+03  0.37283799036E+03  0.00000000000E+00 0. -1.
         -1   -1    0    0    0  501 -0.00000000000E+00 -0.00000000000E+00 -0.66677493250E+02  0.66677493250E+02  0.00000000000E+00 0.  1.
         23    2    1    2    0    0  0.49829501321E+02 -0.42464568877E+02  0.35646708886E+02  0.14561738118E+03  0.12509002772E+03 0.  0.
          5    1    3    3  502    0  0.83191753578E+02 -0.60557633092E+02  0.24874762880E+02  0.10594489614E+03  0.41800000000E+01 0.  1.
         -5    1    3    3    0  502 -0.33362252257E+02  0.18093064215E+02  0.10771946007E+02  0.39672485039E+02  0.41800000000E+01 0.  1.
        -11    1    1    2    0    0 -0.46997200448E+02 -0.72336377900E+01  0.54977968848E+02  0.72688647149E+02  0.00000000000E+00 0.  1.
         11    1    1    2    0    0 -0.28323008723E+01  0.49698206667E+02  0.21553581937E+03  0.22120945528E+03  0.00000000000E+00 0. -1.
</event>
<event>
 7    1  0.6473813E-006  0.1304854E+03  0.7561462E-02  0.1226737E+00
          1   -1    0    0  501    0  0.00000000000E+00  0.00000000000E+00  0.82406829149E+03  0.82406829149E+03  0.00000000000E+00 0. -1.
         -1   -1    0    0    0  501 -0.00000000000E+00 -0.00000000000E+00 -0.26151591002E+02  0.26151591002E+02  0.00000000000E+00 0.  1.
         23    2    1    2    0    0  0.78430014355E+02 -0.85523986809E+01  0.26669143290E+03  0.30495950240E+03  0.12510622305E+03 0.  0.
          5    1    3    3  502    0  0.43205072869E+02  0.52854710622E+02  0.79990024275E+02  0.10524340901E+03  0.41800000000E+01 0.  1.
         -5    1    3    3    0  502  0.35224941487E+02 -0.61407109303E+02  0.18670140863E+03  0.19971609339E+03  0.41800000000E+01 0.  1.
        -11    1    1    2    0    0 -0.72205563406E+02 -0.33181554683E+02  0.38237854261E+03  0.39054834375E+03  0.00000000000E+00 0. -1.
         11    1    1    2    0    0 -0.62244509497E+01  0.41733953364E+02  0.14884672498E+03  0.15471203634E+03  0.00000000000E+00 0.  1.
</event>
<event>
 7    1  0.6473813E-006  0.1079239E+03  0.7561462E-02  0.1264464E+00
          2   -1    0    0  501    0  0.00000000000E+00  0.00000000000E+00  0.59861786869E+02  0.59861786869E+02  0.00000000000E+00 0. -1.
         -2   -1    0    0    0  501 -0.00000000000E+00 -0.00000000000E+00 -0.12743478495E+04  0.12743478495E+04  0.00000000000E+00 0.  1.
         23    2    1    2    0    0 -0.28102037532E+02 -0.21759928530E+02 -0.12283885219E+04  0.12345414818E+04  0.11786047080E+03 0.  0.
          5    1    3    3  502    0 -0.62834731612E+02  0.18824968607E+02 -0.52159434072E+03  0.52571923268E+03  0.41800000000E+01 0. -1.
         -5    1    3    3    0  502  0.34732694080E+02 -0.40584897137E+02 -0.70679418117E+03  0.70882224912E+03  0.41800000000E+01 0.  1.
        -11    1    1    2    0    0  0.58974932396E+02  0.36242385778E+00  0.18535899071E+02  0.61820332873E+02  0.00000000000E+00 0. -1.
         11    1    1    2    0    0 -0.30872894864E+02  0.21397504672E+02 -0.46334398280E+01  0.37847821709E+02  0.00000000000E+00 0.  1.
</event>
<event>
 7    1  0.6473813E-006  0.1283683E+03  0.7561462E-02  0.1229897E+00
          2   -1    0    0  501    0  0.00000000000E+00  0.00000000000E+00  0.43635002782E+03  0.43635002782E+03  0.00000000000E+00 0. -1.
         -2   -1    0    0    0  501 -0.00000000000E+00 -0.00000000000E+00 -0.69465882474E+02  0.69465882474E+02  0.00000000000E+00 0.  1.
         23    2    1    2    0    0 -0.79695038711E+02  0.95893063480E+02  0.12086489379E+03  0.21401406791E+03  0.12508764884E+03 0.  0.
          5    1    3    3  502    0 -0.29488206302E+01  0.17204907643E+02 -0.25339289423E+02  0.31052477817E+02  0.41800000000E+01 0. -1.
         -5    1    3    3    0  502 -0.76746218080E+02  0.78688155837E+02  0.14620418322E+03  0.18296159009E+03  0.41800000000E+01 0. -1.
        -11    1    1    2    0    0  0.25877548668E+02 -0.10656402571E+02  0.14998882598E+03  0.15257737172E+03  0.00000000000E+00 0. -1.
         11    1    1    2    0    0  0.53817490043E+02 -0.85236660910E+02  0.96030425568E+02  0.13922447067E+03  0.00000000000E+00 0.  1.
</event>
<event>
 7    1  0.6473813E-006  0.1291741E+03  0.7561462E-02  0.1228686E+00
          2   -1    0    0  501    0  0.00000000000E+00  0.00000000000E+00  0.21207966916E+03  0.21207966916E+03  0.00000000000E+00 0. -1.
         -2   -1    0    0    0  501 -0.00000000000E+00 -0.00000000000E+00 -0.10883876196E+03  0.10883876196E+03  0.00000000000E+00 0.  1.
         23    2    1    2    0    0  0.64127027913E+02 -0.85055703903E+02  0.53896787517E+02  0.17291350493E+03  0.12508983974E+03 0.  0.
          5    1    3    3  502    0  0.61978914370E+02 -0.10891726777E+03  0.13969396942E+02  0.12616248847E+03  0.41800000000E+01 0. -1.
         -5    1    3    3    0  502  0.21481135429E+01  0.23861563866E+02  0.39927390575E+02  0.46751016460E+02  0.41800000000E+01 0. -1.
        -11    1    1    2    0    0 -0.35680935093E+02  0.29779212145E+02 -0.23632969623E+02  0.52138736639E+02  0.00000000000E+00 0.  1.
         11    1    1    2    0    0 -0.28446092820E+02  0.55276491758E+02  0.72977089305E+02  0.95866189563E+02  0.00000000000E+00 0. -1.
</event>
<event>
 7    1  0.6473813E-006  0.9970744E+02  0.7561462E-02  0.1280912E+00
         -1   -1    0    0    0  501 -0.00000000000E+00  0.00000000000E+00  0.42881357054E+02  0.42881357054E+02  0.00000000000E+00 0.  1.
          1   -1    0    0  501    0  0.00000000000E+00 -0.00000000000E+00 -0.34134210275E+03  0.34134210275E+03  0.00000000000E+00 0. -1.
         23    2    1    2    0    0  0.90772510787E+01 -0.31708416697E+02 -0.10567071258E+03  0.16703731841E+03  0.12508935233E+03 0.  0.
          5    1    3    3  502    0 -0.44652346616E+02  0.23922587460E+02 -0.52596753217E+02  0.73143783728E+02  0.41800000000E+01 0.  1.
         -5    1    3    3    0  502  0.53729597695E+02 -0.55631004157E+02 -0.53073959366E+02  0.93893534680E+02  0.41800000000E+01 0.  1.
        -11    1    1    2    0    0 -0.36375258127E+02  0.18107051582E+02 -0.17928360429E+03  0.18383045310E+03  0.00000000000E+00 0. -1.
         11    1    1    2    0    0  0.27298007048E+02  0.13601365115E+02 -0.13506428820E+02  0.33355688289E+02  0.00000000000E+00 0.  1.
</event>
<event>
 7    1  0.6473813E-006  0.1081424E+03  0.7561462E-02  0.1264049E+00
         -2   -1    0    0    0  501 -0.00000000000E+00  0.00000000000E+00  0.17570715625E+03  0.17570715625E+03  0.00000000000E+00 0.  1.
          2   -1    0    0  501    0  0.00000000000E+00 -0.00000000000E+00 -0.10206166879E+03  0.10206166879E+03  0.00000000000E+00 0. -1.
         23    2    1    2    0    0  0.14933743539E+02 -0.76487446704E+02  0.31317308826E+02  0.15068091828E+03  0.12510243444E+03 0.  0.
          5    1    3    3  502    0 -0.27646947723E+02 -0.24818171110E+02 -0.38633238947E+02  0.53761462844E+02  0.41800000000E+01 0.  1.
         -5    1    3    3    0  502  0.42580691261E+02 -0.51669275594E+02  0.69950547772E+02  0.96919455437E+02  0.41800000000E+01 0.  1.
        -11    1    1    2    0    0  0.33205350047E+02  0.35250097207E+02 -0.39757833464E+01  0.48589828957E+02  0.00000000000E+00 0. -1.
         11    1    1    2    0    0 -0.48139093585E+02  0.41237349497E+02  0.46303961982E+02  0.78498077810E+02  0.00000000000E+00 0.  1.
</event>
<event>
 7    1  0.6473813E-006  0.2473163E+03  0.7561462E-02  0.1115013E+00
         -2   -1    0    0    0  501 -0.00000000000E+00  0.00000000000E+00  0.67852095958E+03  0.67852095958E+03  0.00000000000E+00 0.  1.
          2   -1    0    0  501    0  0.00000000000E+00 -0.00000000000E+00 -0.12329463694E+03  0.12329463694E+03  0.00000000000E+00 0. -1.
         23    2    1    2    0    0 -0.87549797987E+02 -0.21457631054E+03  0.46940619028E+03  0.53823564116E+03  0.12508986276E+03 0.  0.
          5    1    3    3  502    0  0.21021458732E+02 -0.11001276095E+03  0.21631956580E+03  0.24363155840E+03  0.41800000000E+01 0. -1.
         -5    1    3    3    0  502 -0.10857125672E+03 -0.10456354959E+03  0.25308662448E+03  0.29460408276E+03  0.41800000000E+01 0. -1.
        -11    1    1    2    0    0  0.14340492352E+02  0.33301415909E+02  0.54689767424E+02  0.65617106636E+02  0.00000000000E+00 0.  1.
         11    1    1    2    0    0  0.73209305635E+02  0.18127489463E+03  0.31130364937E+02  0.19796284873E+03  0.00000000000E+00 0. -1.
</event>
<event>
 7    1  0.6473813E-006  0.1288484E+03  0.7561462E-02  0.1229175E+00
         -2   -1    0    0    0  501 -0.00000000000E+00  0.00000000000E+00  0.41417805377E+03  0.41417805377E+03  0.00000000000E+00 0.  1.
          2   -1    0    0  501    0  0.00000000000E+00 -0.00000000000E+00 -0.13994624953E+03  0.13994624953E+03  0.00000000000E+00 0. -1.
         23    2    1    2    0    0 -0.11896349063E+03 -0.20637453916E+02  0.34522278856E+03  0.38652892071E+03  0.12509043208E+03 0.  0.
          5    1    3    3  502    0  0.52722093566E+01 -0.77408554130E+01  0.17528829524E+03  0.17558808582E+03  0.41800000000E+01 0. -1.
         -5    1    3    3    0  502 -0.12423569999E+03 -0.12896598503E+02  0.16993449332E+03  0.21094083489E+03  0.41800000000E+01 0. -1.
        -11    1    1    2    0    0  0.80547015120E+02  0.23610340254E+02  0.31981262089E+01  0.83997010797E+02  0.00000000000E+00 0.  1.
         11    1    1    2    0    0  0.38416475513E+02 -0.29728863383E+01 -0.74189110530E+02  0.83598371786E+02  0.00000000000E+00 0. -1.
</event>
<event>
 7    1  0.6473813E-006  0.1543965E+03  0.7561462E-02  0.1195172E+00
         -2   -1    0    0    0  501 -0.00000000000E+00  0.00000000000E+00  0.28876404224E+03  0.28876404224E+03  0.00000000000E+00 0.  1.
          2   -1    0    0  501    0  0.00000000000E+00 -0.00000000000E+00 -0.11299951368E+03  0.11299951368E+03  0.00000000000E+00 0. -1.
         23    2    1    2    0    0  0.14311588710E+03 -0.11361243842E+02  0.83769427907E+02  0.20802914582E+03  0.12509026124E+03 0.  0.
          5    1    3    3  502    0  0.13844421378E+03 -0.11341053075E+01  0.11150086506E+03  0.17781451525E+03  0.41800000000E+01 0. -1.
         -5    1    3    3    0  502  0.46716733178E+01 -0.10227138534E+02 -0.27731437150E+02  0.30214630572E+02  0.41800000000E+01 0. -1.
        -11    1    1    2    0    0 -0.26813936095E+02  0.30290025843E+02 -0.54635300191E+01  0.40820619725E+02  0.00000000000E+00 0. -1.
         11    1    1    2    0    0 -0.11630195100E+03 -0.18928782001E+02  0.97458630675E+02  0.15291379038E+03  0.00000000000E+00 0.  1.
</event>
<event>
 7    1  0.6473813E-006  0.1749942E+03  0.7561462E-02  0.1172738E+00
          1   -1    0    0  501    0  0.00000000000E+00  0.00000000000E+00  0.12327350308E+04  0.12327350308E+04  0.00000000000E+00 0. -1.
         -1   -1    0    0    0  501 -0.00000000000E+00 -0.00000000000E+00 -0.39415963340E+02  0.39415963340E+02  0.00000000000E+00 0.  1.
         23    2    1    2    0    0 -0.92428237270E+02  0.10900965123E+03  0.25170948049E+03  0.31530634774E+03  0.12503738341E+03 0.  0.
          5    1    3    3  502    0 -0.11309207345E+03  0.11140337724E+03  0.24688389331E+03  0.29354668916E+03  0.41800000000E+01 0. -1.
         -5    1    3    3    0  502  0.20663836183E+02 -0.23937260092E+01  0.48255871793E+01  0.21759658582E+02  0.41800000000E+01 0. -1.
        -11    1    1    2    0    0  0.58495762837E+02 -0.29021826524E+01  0.30911548272E+03  0.31461493701E+03  0.00000000000E+00 0.  1.
         11    1    1    2    0    0  0.33932474433E+02 -0.10610746858E+03  0.63249410420E+03  0.64222970934E+03  0.00000000000E+00 0. -1.
</event>
<event>
 7    1  0.6473813E-006  0.1747264E+03  0.7561462E-02  0.1173007E+00
         -1   -1    0    0    0  501 -0.00000000000E+00  0.00000000000E+00  0.25452128090E+03  0.25452128090E+03  0.00000000000E+00 0.  1.
          1   -1    0    0  501    0  0.00000000000E+00 -0.00000000000E+00 -0.20022433869E+03  0.20022433869E+03  0.00000000000E+00 0. -1.
         23    2    1    2    0    0 -0.10809288190E+03 -0.12143238073E+03  0.14085768535E+03  0.24883815255E+03  0.12509853890E+03 0.  0.
          5    1    3    3  502    0 -0.11525412616E+02 -0.14635715073E+02 -0.23510154586E+02  0.30285954836E+02  0.41800000000E+01 0.  1.
         -5    1    3    3    0  502 -0.96567469287E+02 -0.10679666566E+03  0.16436783994E+03  0.21855219771E+03  0.41800000000E+01 0.  1.
        -11    1    1    2    0    0  0.57115787206E+02  0.12268162603E+03 -0.69554766126E+02  0.15215406667E+03  0.00000000000E+00 0.  1.
         11    1    1    2    0    0  0.50977094697E+02 -0.12492453003E+01 -0.17005977007E+02  0.53753400371E+02  0.00000000000E+00 0. -1.
</event>
<event>
 7    1  0.6473813E-006  0.1459910E+03  0.7561462E-02  0.1205488E+00
          2   -1    0    0  501    0  0.00000000000E+00  0.00000000000E+00  0.31934202322E+03  0.31934202322E+03  0.00000000000E+00 0. -1.
         -2   -1    0    0    0  501 -0.00000000000E+00 -0.00000000000E+00 -0.82326437714E+02  0.82326437714E+02  0.00000000000E+00 0.  1.
         23    2    1    2    0    0  0.85689662471E+01  0.10416152683E+03  0.52300718086E+02  0.17122151868E+03  0.12513349869E+03 0.  0.
          5    1    3    3  502    0 -0.52264570880E+02  0.37842617652E+02 -0.43358701227E+01  0.64806799410E+02  0.41800000000E+01 0.  1.
         -5    1    3    3    0  502  0.60833537127E+02  0.66318909180E+02  0.56636588209E+02  0.10641471927E+03  0.41800000000E+01 0.  1.
        -11    1    1    2    0    0  0.34763334669E+02 -0.80889906185E+02  0.10833159235E+03  0.13959727884E+03  0.00000000000E+00 0. -1.
         11    1    1    2    0    0 -0.43332300916E+02 -0.23271620647E+02  0.76383275068E+02  0.90849663402E+02  0.00000000000E+00 0.  1.
</event>
<event>
 7    1  0.6473813E-006  0.1518004E+03  0.7561462E-02  0.1198278E+00
          2   -1    0    0  501    0  0.00000000000E+00  0.00000000000E+00  0.52526484574E+02  0.52526484574E+02  0.00000000000E+00 0.  1.
         -2   -1    0    0    0  501 -0.00000000000E+00 -0.00000000000E+00 -0.75527952217E+03  0.75527952217E+03  0.00000000000E+00 0. -1.
         23    2    1    2    0    0 -0.93065601337E+02  0.57165232531E+02 -0.61407847697E+03  0.63613626425E+03  0.12509156987E+03 0.  0.
          5    1    3    3  502    0 -0.63729368035E+02  0.96732297875E+02 -0.45646494671E+03  0.47095253452E+03  0.41800000000E+01 0. -1.
         -5    1    3    3    0  502 -0.29336233303E+02 -0.39567065344E+02 -0.15761353026E+03  0.16518372972E+03  0.41800000000E+01 0. -1.
        -11    1    1    2    0    0 -0.34980917078E-01 -0.44263298334E+02 -0.27920111351E+01  0.44351281033E+02  0.00000000000E+00 0.  1.
         11    1    1    2    0    0  0.93100582254E+02 -0.12901934197E+02 -0.85882549496E+02  0.12731846147E+03  0.00000000000E+00 0. -1.
</event>
<event>
 7    1  0.6473813E-006  0.2058055E+03  0.7561462E-02  0.1144931E+00
         -2   -1    0    0    0  501 -0.00000000000E+00  0.00000000000E+00  0.50554435022E+02  0.50554435022E+02  0.00000000000E+00 0.  1.
          2   -1    0    0  501    0  0.00000000000E+00 -0.00000000000E+00 -0.85711470826E+03  0.85711470826E+03  0.00000000000E+00 0. -1.
         23    2    1    2    0    0 -0.80061929038E+02  0.15535125421E+03 -0.35530377208E+03  0.41524907705E+03  0.12508837222E+03 0.  0.
          5    1    3    3  502    0 -0.36732089502E+01 -0.21344693411E+02 -0.43791318278E+02  0.49033053723E+02  0.41800000000E+01 0.  1.
         -5    1    3    3    0  502 -0.76388720088E+02  0.17669594763E+03 -0.31151245381E+03  0.36621602333E+03  0.41800000000E+01 0.  1.
        -11    1    1    2    0    0 -0.17607733443E+02 -0.51571414203E+02 -0.13139237977E+03  0.14224486107E+03  0.00000000000E+00 0. -1.
         11    1    1    2    0    0  0.97669662481E+02 -0.10377984001E+03 -0.31986412139E+03  0.35017520516E+03  0.00000000000E+00 0.  1.
</event>
<event>
 7    1  0.6473813E-006  0.1331671E+03  0.7561462E-02  0.1222831E+00
         -2   -1    0    0    0  501 -0.00000000000E+00  0.00000000000E+00  0.61145622097E+02  0.61145622097E+02  0.00000000000E+00 0.  1.
          2   -1    0    0  501    0  0.00000000000E+00 -0.00000000000E+00 -0.48149672004E+03  0.48149672004E+03  0.00000000000E+00 0. -1.
         23    2    1    2    0    0  0.85487941388E+02  0.13602178061E+02 -0.63256939957E+02  0.16474724482E+03  0.12508799644E+03 0.  0.
          5    1    3    3  502    0  0.38558598104E+02 -0.52926838887E+02 -0.76390851651E+01  0.66059395883E+02  0.41800000000E+01 0. -1.
         -5    1    3    3    0  502  0.46929343284E+02  0.66529016947E+02 -0.55617854791E+02  0.98687848941E+02  0.41800000000E+01 0. -1.
        -11    1    1    2    0    0  0.15434681759E+02  0.56808561061E+01 -0.94392862135E+02  0.95814998560E+02  0.00000000000E+00 0. -1.
         11    1    1    2    0    0 -0.10092262315E+03 -0.19283034167E+02 -0.26270129585E+03  0.28208009875E+03  0.00000000000E+00 0.  1.
</event>
<event>
 6    1  0.6473813E-006  0.1177493E+03  0.7561462E-02  0.1246857E+00
          1   -1    0    0  501    0  0.00000000000E+00  0.00000000000E+00  0.46542971112E+03  0.46542971112E+03  0.00000000000E+00 0. -1.
         -1   -1    0    0    0  501 -0.00000000000E+00 -0.00000000000E+00 -0.49294687447E+02  0.49294687447E+02  0.00000000000E+00 0.  1.
          5    1    1    2  502    0  0.59327593281E+01 -0.36356077667E+02  0.32697209286E+02  0.49432195093E+02  0.41800000000E+01 0. -1.
         -5    1    1    2    0  502  0.18386954805E+02  0.11464730138E+03  0.92006966497E+02  0.14820539162E+03  0.41800000000E+01 0.  1.
        -11    1    1    2    0    0 -0.50561813461E+01 -0.90489257701E+01 -0.53935332210E+01  0.11684957339E+02  0.00000000000E+00 0.  1.
         11    1    1    2    0    0 -0.19263532787E+02 -0.69242297946E+02  0.29682438111E+03  0.30540185452E+03  0.00000000000E+00 0. -1.
</event>
<event>
 7    1  0.6473813E-006  0.1797195E+03  0.7561462E-02  0.1168075E+00
         -1   -1    0    0    0  501 -0.00000000000E+00  0.00000000000E+00  0.28154894695E+03  0.28154894695E+03  0.00000000000E+00 0.  1.
          1   -1    0    0  501    0  0.00000000000E+00 -0.00000000000E+00 -0.13567096951E+03  0.13567096951E+03  0.00000000000E+00 0. -1.
         23    2    1    2    0    0  0.11933740963E+03  0.99481001524E+02  0.12784719621E+03  0.23692008561E+03  0.12509330271E+03 0.  0.
          5    1    3    3  502    0  0.13554502876E+03  0.94719787336E+02  0.13915937293E+03  0.21616451237E+03  0.41800000000E+01 0. -1.
         -5    1    3    3    0  502 -0.16207619128E+02  0.47612141880E+01 -0.11312176715E+02  0.20755573236E+02  0.41800000000E+01 0. -1.
        -11    1    1    2    0    0 -0.50156147923E+02 -0.94840674334E+02  0.26324444733E+02  0.11046886020E+03  0.00000000000E+00 0.  1.
         11    1    1    2    0    0 -0.69181261711E+02 -0.46403271902E+01 -0.82936634987E+01  0.69830970655E+02  0.00000000000E+00 0. -1.
</event>
<event>
 7    1  0.6473813E-006  0.1852052E+03  0.7561462E-02  0.1162858E+00
         -1   -1    0    0    0  501 -0.00000000000E+00  0.00000000000E+00  0.15046236814E+04  0.15046236814E+04  0.00000000000E+00 0.  1.
          1   -1    0    0  501    0  0.00000000000E+00 -0.00000000000E+00 -0.35305551560E+02  0.35305551560E+02  0.00000000000E+00 0. -1.
         23    2    1    2    0    0  0.19954653906E+02 -0.16164339861E+03  0.11595476907E+04  0.11775929041E+04  0.12508966480E+03 0.  0.
          5    1    3    3  502    0  0.59888845110E+02 -0.13787834932E+03  0.10039460091E+04  0.10151463809E+04  0.41800000000E+01 0. -1.
         -5    1    3    3    0  502 -0.39934191204E+02 -0.23765049287E+02  0.15560168155E+03  0.16244652319E+03  0.41800000000E+01 0. -1.
        -11    1    1    2    0    0 -0.41271907907E+02  0.11093701812E+03  0.13715120662E+03  0.18116524459E+03  0.00000000000E+00 0. -1.
         11    1    1    2    0    0  0.21317254001E+02  0.50706380493E+02  0.17261923256E+03  0.18117108431E+03  0.00000000000E+00 0.  1.
</event>
<event>
 7    1  0.6473813E-006  0.1039246E+03  0.7561462E-02  0.1272253E+00
          1   -1    0    0  501    0  0.00000000000E+00  0.00000000000E+00  0.13918542053E+03  0.13918542053E+03  0.00000000000E+00 0. -1.
         -1   -1    0    0    0  501 -0.00000000000E+00 -0.00000000000E+00 -0.10778866039E+03  0.10778866039E+03  0.00000000000E+00 0.  1.
         23    2    1    2    0    0  0.50081865163E+02 -0.10948398668E+02  0.31644509525E+01  0.13522616757E+03  0.12509213402E+03 0.  0.
          5    1    3    3  502    0 -0.66757956328E+01  0.50435708417E+02 -0.40566825401E+01  0.51207968170E+02  0.41800000000E+01 0.  1.
         -5    1    3    3    0  502  0.56757660796E+02 -0.61384107086E+02  0.72211334927E+01  0.84018199402E+02  0.41800000000E+01 0.  1.
        -11    1    1    2    0    0 -0.12660888329E+02 -0.20579925837E+02 -0.28146883172E+02  0.37095531713E+02  0.00000000000E+00 0.  1.
         11    1    1    2    0    0 -0.37420976834E+02  0.31528324505E+02  0.56379192354E+02  0.74652381636E+02  0.00000000000E+00 0. -1.
</event>
<event>
 7    1  0.6473813E-006  0.1093326E+03  0.7561462E-02  0.1261811E+00
         -2   -1    0    0    0  501 -0.00000000000E+00  0.00000000000E+00  0.17018028524E+02  0.17018028524E+02  0.00000000000E+00 0.  1.
          2   -1    0    0  501    0  0.00000000000E+00 -0.00000000000E+00 -0.71775678393E+03  0.71775678393E+03  0.00000000000E+00 0. -1.
         23    2    1    2    0    0 -0.13901222871E+02  0.24399918639E+02 -0.40446515660E+03  0.42429584513E+03  0.12508517604E+03 0.  0.
          5    1    3    3  502    0 -0.60493015328E+02 -0.19602842136E+02 -0.18823209935E+03  0.19872712937E+03  0.41800000000E+01 0. -1.
         -5    1    3    3    0  502  0.46591792458E+02  0.44002760775E+02 -0.21623305726E+03  0.22556871576E+03  0.41800000000E+01 0. -1.
        -11    1    1    2    0    0 -0.24398200311E+02 -0.41995025294E+02 -0.12521292123E+03  0.13430238259E+03  0.00000000000E+00 0.  1.
         11    1    1    2    0    0  0.38299423182E+02  0.17595106655E+02 -0.17106067757E+03  0.17617658473E+03  0.00000000000E+00 0. -1.
</event>
<event>
 7    1  0.6473813E-006  0.6339649E+02  0.7561462E-02  0.1384107E+00
         -2   -1    0    0    0  501 -0.00000000000E+00  0.00000000000E+00  0.39039960356E+02  0.39039960356E+02  0.00000000000E+00 0.  1.
          2   -1    0    0  501    0  0.00000000000E+00 -0.00000000000E+00 -0.36948308213E+03  0.36948308213E+03  0.00000000000E+00 0. -1.
         23    2    1    2    0    0 -0.12713647315E+01 -0.60339453046E+01 -0.91012732156E+02  0.15232060821E+03  0.12198452937E+03 0.  0.
          5    1    3    3  502    0  0.18404408119E+02 -0.17202631094E+02 -0.11575250409E+03  0.11853593277E+03  0.41800000000E+01 0. -1.
         -5    1    3    3    0  502 -0.19675772850E+02  0.11168685789E+02  0.24739771929E+02  0.33784675441E+02  0.41800000000E+01 0.  1.
        -11    1    1    2    0    0  0.27458136857E+02  0.31454162213E+02 -0.19127998666E+03  0.19578392911E+03  0.00000000000E+00 0. -1.
         11    1    1    2    0    0 -0.26186772125E+02 -0.25420216909E+02 -0.48150402956E+02  0.60418505169E+02  0.00000000000E+00 0.  1.
</event>
<event>
 7    1  0.6473813E-006  0.1335746E+03  0.7561462E-02  0.1222246E+00
          2   -1    0    0  501    0  0.00000000000E+00  0.00000000000E+00  0.68366270734E+03  0.68366270734E+03  0.00000000000E+00 0. -1.
         -2   -1    0    0    0  501 -0.00000000000E+00 -0.00000000000E+00 -0.35916760103E+02  0.35916760103E+02  0.00000000000E+00 0.  1.
         23    2    1    2    0    0  0.11035304745E+03 -0.23405293424E+02  0.34420889908E+03  0.38321382993E+03  0.12508984929E+03 0.  0.
          5    1    3    3  502    0  0.29624193716E+02  0.27342392270E+02  0.19900708765E+02  0.45152075010E+02  0.41800000000E+01 0.  1.
         -5    1    3    3    0  502  0.80728853736E+02 -0.50747685694E+02  0.32430819032E+03  0.33806175492E+03  0.41800000000E+01 0.  1.
        -11    1    1    2    0    0 -0.79397796360E+02  0.46986584086E+02  0.13580717300E+03  0.16418080700E+03  0.00000000000E+00 0.  1.
         11    1    1    2    0    0 -0.30955251092E+02 -0.23581290663E+02  0.16772987516E+03  0.17218483051E+03  0.00000000000E+00 0. -1.
</event>
<event>
 7    1  0.6473813E-006  0.7312766E+02  0.7561462E-02  0.1349769E+00
         -1   -1    0    0    0  501 -0.00000000000E+00  0.00000000000E+00  0.41224056739E+03  0.41224056739E+03  0.00000000000E+00 0.  1.
          1   -1    0    0  501    0  0.00000000000E+00 -0.00000000000E+00 -0.64178687843E+02  0.64178687843E+02  0.00000000000E+00 0. -1.
         23    2    1    2    0    0 -0.34129462300E+02 -0.49296413670E+02  0.37033412244E+03  0.39546342200E+03  0.12509596037E+03 0.  0.
          5    1    3    3  502    0  0.16713250487E+02 -0.40328153173E+01 -0.11878665562E+01  0.17733577422E+02  0.41800000000E+01 0. -1.
         -5    1    3    3    0  502 -0.50842712787E+02 -0.45263598353E+02  0.37152198899E+03  0.37772984458E+03  0.41800000000E+01 0. -1.
        -11    1    1    2    0    0  0.19631479805E+02  0.34178747396E+02 -0.38009416310E+02  0.54756711928E+02  0.00000000000E+00 0. -1.
         11    1    1    2    0    0  0.14497982495E+02  0.15117666274E+02  0.15737173423E+02  0.26199121309E+02  0.00000000000E+00 0.  1.
</event>
<event>
 6    1  0.6473813E-006  0.1392640E+03  0.7561462E-02  0.1214323E+00
          1   -1    0    0  501    0  0.00000000000E+00  0.00000000000E+00  0.46118034372E+02  0.46118034372E+02  0.00000000000E+00 0. -1.
         -1   -1    0    0    0  501 -0.00000000000E+00 -0.00000000000E+00 -0.46833511796E+03  0.46833511796E+03  0.00000000000E+00 0.  1.
          5    1    1    2  502    0  0.50164618853E+02 -0.91053956697E+02 -0.12378116639E+03  0.16169898444E+03  0.41800000000E+01 0. -1.
         -5    1    1    2    0  502 -0.29221010367E+02  0.89232889909E+02 -0.14858532788E+03  0.17581651842E+03  0.41800000000E+01 0.  1.
        -11    1    1    2    0    0 -0.19308988064E+02 -0.36950344701E+02 -0.31116844674E+02  0.52023293015E+02  0.00000000000E+00 0. -1.
         11    1    1    2    0    0 -0.16346204230E+01  0.38771411490E+02 -0.11873374465E+03  0.12491435647E+03  0.00000000000E+00 0.  1.
</event>
<event>
 6    1  0.6473813E-006  0.1473599E+03  0.7561462E-02  0.1203755E+00
          1   -1    0    0  501    0  0.00000000000E+00  0.00000000000E+00  0.30803050757E+03  0.30803050757E+03  0.00000000000E+00 0. -1.
         -1   -1    0    0    0  501 -0.00000000000E+00 -0.00000000000E+00 -0.92211925117E+02  0.92211925117E+02  0.00000000000E+00 0.  1.
          5    1    1    2  502    0 -0.19032597233E+02 -0.68344185803E+02  0.12024409742E+01  0.71078025823E+02  0.41800000000E+01 0. -1.
         -5    1    1    2    0  502 -0.16866487486E+02  0.12709040159E+03  0.75095826549E+02  0.14863816516E+03  0.41800000000E+01 0.  1.
        -11    1    1    2    0    0  0.54331284811E+02 -0.53416241857E+02  0.14202945181E+03  0.16117552104E+03  0.00000000000E+00 0.  1.
         11    1    1    2    0    0 -0.18432200092E+02 -0.53299739294E+01 -0.25091368758E+01  0.19350720663E+02  0.00000000000E+00 0. -1.
</event>
<event>
 7    1  0.6473813E-006  0.1264858E+03  0.7561462E-02  0.1232765E+00
         -2   -1    0    0    0  501 -0.00000000000E+00  0.00000000000E+00  0.10122960673E+03  0.10122960673E+03  0.00000000000E+00 0. -1.
          2   -1    0    0  501    0  0.00000000000E+00 -0.00000000000E+00 -0.17170634437E+03  0.17170634437E+03  0.00000000000E+00 0.  1.
         23    2    1    2    0    0  0.96914258681E+01 -0.74878626554E+02 -0.45681394766E+02  0.15308704541E+03  0.12509245059E+03 0.  0.
          5    1    3    3  502    0 -0.53163470509E+02 -0.52975279204E+02 -0.58274952438E+01  0.75393414196E+02  0.41800000000E+01 0.  1.
         -5    1    3    3    0  502  0.62854896377E+02 -0.21903347350E+02 -0.39853899522E+02  0.77693631212E+02  0.41800000000E+01 0.  1.
        -11    1    1    2    0    0 -0.36890451621E+02  0.64175062482E+01  0.94399772895E+01  0.38616097400E+02  0.00000000000E+00 0. -1.
         11    1    1    2    0    0  0.27199025752E+02  0.68461120306E+02 -0.34235320165E+02  0.81232808287E+02  0.00000000000E+00 0.  1.
</event>
<event>
 6    1  0.6473813E-006  0.1342363E+03  0.7561462E-02  0.1221302E+00
          2   -1    0    0  501    0  0.00000000000E+00  0.00000000000E+00  0.19756035025E+03  0.19756035025E+03  0.00000000000E+00 0. -1.
         -2   -1    0    0    0  501 -0.00000000000E+00 -0.00000000000E+00 -0.11257279200E+03  0.11257279200E+03  0.00000000000E+00 0.  1.
          5    1    1    2  502    0 -0.36213846257E+01  0.86953806383E+02  0.17786319332E+02  0.88926398929E+02  0.41800000000E+01 0. -1.
         -5    1    1    2    0  502 -0.51947633451E+01 -0.99263231641E+02 -0.12293385371E+02  0.10024357558E+03  0.41800000000E+01 0.  1.
        -11    1    1    2    0    0 -0.15758636429E+02  0.41091754665E+02  0.15584563224E+02  0.46687745013E+02  0.00000000000E+00 0. -1.
         11    1    1    2    0    0  0.24574784400E+02 -0.28782329407E+02  0.63910061065E+02  0.74275422717E+02  0.00000000000E+00 0.  1.
</event>
<event>
 7    1  0.6473813E-006  0.9480453E+02  0.7561462E-02  0.1291617E+00
          1   -1    0    0  501    0  0.00000000000E+00  0.00000000000E+00  0.90232574531E+01  0.90232574531E+01  0.00000000000E+00 0. -1.
         -1   -1    0    0    0  501 -0.00000000000E+00 -0.00000000000E+00 -0.12324536283E+04  0.12324536283E+04  0.00000000000E+00 0.  1.
         23    2    1    2    0    0  0.17754182669E+02 -0.12017472126E+02 -0.93491983455E+03  0.94349411644E+03  0.12508565099E+03 0.  0.
          5    1    3    3  502    0 -0.48350713087E+02  0.35640594768E+01 -0.21865458269E+03  0.22400400199E+03  0.41800000000E+01 0. -1.
         -5    1    3    3    0  502  0.66104895756E+02 -0.15581531603E+02 -0.71626525185E+03  0.71949011444E+03  0.41800000000E+01 0. -1.
        -11    1    1    2    0    0 -0.36046485333E+02  0.30263218727E+02 -0.15471879150E+03  0.16171925042E+03  0.00000000000E+00 0.  1.
         11    1    1    2    0    0  0.18292302664E+02 -0.18245746600E+02 -0.13379174477E+03  0.13626351887E+03  0.00000000000E+00 0. -1.
</event>
<event>
 7    1  0.6473813E-006  0.1306504E+03  0.7561462E-02  0.1226494E+00
          1   -1    0    0  501    0  0.00000000000E+00  0.00000000000E+00  0.15263113932E+03  0.15263113932E+03  0.00000000000E+00 0. -1.
         -1   -1    0    0    0  501 -0.00000000000E+00 -0.00000000000E+00 -0.12003262077E+03  0.12003262077E+03  0.00000000000E+00 0.  1.
         23    2    1    2    0    0  0.78011192625E+02 -0.15556751575E+02  0.14608665084E+01  0.14824646288E+03  0.12508845243E+03 0.  0.
          5    1    3    3  502    0  0.10858167134E+03 -0.21491161249E+02 -0.16601750519E+02  0.11200419583E+03  0.41800000000E+01 0. -1.
         -5    1    3    3    0  502 -0.30570478716E+02  0.59344096743E+01  0.18062617027E+02  0.36242267051E+02  0.41800000000E+01 0. -1.
        -11    1    1    2    0    0 -0.34542761496E+02  0.51974157077E+02  0.25555146337E+02  0.67435753721E+02  0.00000000000E+00 0. -1.
         11    1    1    2    0    0 -0.43468431130E+02 -0.36417405502E+02  0.55825056964E+01  0.56981543488E+02  0.00000000000E+00 0.  1.
</event>
<event>
 7    1  0.6473813E-006  0.5515961E+02  0.7561462E-02  0.1419346E+00
         -1   -1    0    0    0  501 -0.00000000000E+00  0.00000000000E+00  0.18444437607E+03  0.18444437607E+03  0.00000000000E+00 0.  1.
          1   -1    0    0  501    0  0.00000000000E+00 -0.00000000000E+00 -0.65265129396E+02  0.65265129396E+02  0.00000000000E+00 0. -1.
         23    2    1    2    0    0  0.55449972308E+01 -0.93486012957E+01  0.84339263578E+02  0.15125731264E+03  0.12509004718E+03 0.  0.
          5    1    3    3  502    0 -0.64885335275E+01  0.93869623456E+01 -0.31217992650E+02  0.33500023799E+02  0.41800000000E+01 0.  1.
         -5    1    3    3    0  502  0.12033530758E+02 -0.18735563641E+02  0.11555725623E+03  0.11775728884E+03  0.41800000000E+01 0.  1.
        -11    1    1    2    0    0  0.23997845949E+02 -0.21913460513E+02 -0.12199506362E+02  0.34712019782E+02  0.00000000000E+00 0. -1.
         11    1    1    2    0    0 -0.29542843180E+02  0.31262061809E+02  0.47039489461E+02  0.63740173050E+02  0.00000000000E+00 0.  1.
</event>
<event>
 7    1  0.6473813E-006  0.2539673E+03  0.7561462E-02  0.1110823E+00
          2   -1    0    0  501    0  0.00000000000E+00  0.00000000000E+00  0.12754445865E+04  0.12754445865E+04  0.00000000000E+00 0. -1.
         -2   -1    0    0    0  501 -0.00000000000E+00 -0.00000000000E+00 -0.73763586065E+02  0.73763586065E+02  0.00000000000E+00 0.  1.
         23    2    1    2    0    0 -0.21710184860E+03  0.10565819217E+03  0.27388789004E+03  0.38595231482E+03  0.12509095396E+03 0.  0.
          5    1    3    3  502    0 -0.42119678982E+02 -0.82299072671E+01  0.11720410500E+03  0.12488423984E+03  0.41800000000E+01 0.  1.
         -5    1    3    3    0  502 -0.17498216962E+03  0.11388809944E+03  0.15668378504E+03  0.26106807498E+03  0.41800000000E+01 0.  1.
        -11    1    1    2    0    0  0.64463340999E+02 -0.77454671370E+02  0.29636637224E+03  0.31302999065E+03  0.00000000000E+00 0. -1.
         11    1    1    2    0    0  0.15263850760E+03 -0.28203520799E+02  0.63142673812E+03  0.65022586707E+03  0.00000000000E+00 0.  1.
</event>
<event>
 7    1  0.6473813E-006  0.1604150E+03  0.7561462E-02  0.1188229E+00
          1   -1    0    0  501    0  0.00000000000E+00  0.00000000000E+00  0.34429810654E+03  0.34429810654E+03  0.00000000000E+00 0. -1.
         -1   -1    0    0    0  501 -0.00000000000E+00 -0.00000000000E+00 -0.87523822355E+02  0.87523822355E+02  0.00000000000E+00 0.  1.
         23    2    1    2    0    0  0.75857303391E+02 -0.10940808795E+03  0.10639701681E+03  0.21140957020E+03  0.12509684648E+03 0.  0.
          5    1    3    3  502    0  0.10788743825E+03 -0.61811831199E+02  0.81514137919E+02  0.14873610486E+03  0.41800000000E+01 0.  1.
         -5    1    3    3    0  502 -0.32030134856E+02 -0.47596256756E+02  0.24882878891E+02  0.62673465342E+02  0.41800000000E+01 0.  1.
        -11    1    1    2    0    0 -0.47953964048E+02  0.34822983050E+02  0.11567899952E+02  0.60382440542E+02  0.00000000000E+00 0.  1.
         11    1    1    2    0    0 -0.27903339342E+02  0.74585104904E+02  0.13880936742E+03  0.16002991815E+03  0.00000000000E+00 0. -1.
</event>
<event>
 7    1  0.6473813E-006  0.2604817E+03  0.7561462E-02  0.1106854E+00
          2   -1    0    0  501    0  0.00000000000E+00  0.00000000000E+00  0.41656783080E+03  0.41656783080E+03  0.00000000000E+00 0.  1.
         -2   -1    0    0    0  501 -0.00000000000E+00 -0.00000000000E+00 -0.28236802804E+03  0.28236802804E+03  0.00000000000E+00 0. -1.
         23    2    1    2    0    0  0.21309684257E+03 -0.14925526326E+03 -0.13038912579E+03  0.31675885078E+03  0.12508975778E+03 0.  0.
          5    1    3    3  502    0  0.41782816577E+02 -0.28314600749E+02  0.24268751306E+02  0.56160173314E+02  0.41800000000E+01 0.  1.
         -5    1    3    3    0  502  0.17131402599E+03 -0.12094066251E+03 -0.15465787709E+03  0.26059867747E+03  0.41800000000E+01 0.  1.
        -11    1    1    2    0    0 -0.12585074539E+03  0.79367308150E+02  0.87063989316E+02  0.17238827673E+03  0.00000000000E+00 0. -1.
         11    1    1    2    0    0 -0.87246097184E+02  0.69887955107E+02  0.17752493923E+03  0.20978873133E+03  0.00000000000E+00 0.  1.
</event>
<event>
 7    1  0.6473813E-006  0.1290303E+03  0.7561462E-02  0.1228902E+00
         -2   -1    0    0    0  501 -0.00000000000E+00  0.00000000000E+00  0.12501390450E+03  0.12501390450E+03  0.00000000000E+00 0. -1.
          2   -1    0    0  501    0  0.00000000000E+00 -0.00000000000E+00 -0.14639331934E+03  0.14639331934E+03  0.00000000000E+00 0.  1.
         23    2    1    2    0    0 -0.77281697858E+02 -0.32187693003E+00 -0.38488943995E+01  0.14708661159E+03  0.12508834035E+03 0.  0.
          5    1    3    3  502    0 -0.47912412260E+02  0.54823510130E+02 -0.30477561185E+02  0.79041575436E+02  0.41800000000E+01 0. -1.
         -5    1    3    3    0  502 -0.29369285598E+02 -0.55145387060E+02  0.26628666786E+02  0.68045036154E+02  0.41800000000E+01 0. -1.
        -11    1    1    2    0    0  0.95240599552E+02  0.18432475844E+02 -0.18677765539E+02  0.98789609243E+02  0.00000000000E+00 0.  1.
         11    1    1    2    0    0 -0.17958901694E+02 -0.18110598914E+02  0.11472451033E+01  0.25531003005E+02  0.00000000000E+00 0. -1.
</event>
<event>
 7    1  0.6473813E-006  0.1335621E+03  0.7561462E-02  0.1222264E+00
         -2   -1    0    0    0  501 -0.00000000000E+00  0.00000000000E+00  0.17373293988E+02  0.17373293988E+02  0.00000000000E+00 0.  1.
          2   -1    0    0  501    0  0.00000000000E+00 -0.00000000000E+00 -0.11628899874E+04  0.11628899874E+04  0.00000000000E+00 0. -1.
         23    2    1    2    0    0  0.22291383301E+02 -0.83343147779E+02 -0.76580022990E+03  0.78073085010E+03  0.12509069561E+03 0.  0.
          5    1    3    3  502    0 -0.45721713335E+02 -0.57008946499E+01 -0.17754175130E+03  0.18347076368E+03  0.41800000000E+01 0. -1.
         -5    1    3    3    0  502  0.68013096636E+02 -0.77642253129E+02 -0.58825847859E+03  0.59726008641E+03  0.41800000000E+01 0. -1.
        -11    1    1    2    0    0  0.23153552750E+02  0.60827482495E+00 -0.33845941255E+02  0.41012251128E+02  0.00000000000E+00 0.  1.
         11    1    1    2    0    0 -0.45444936051E+02  0.82734872954E+02 -0.34587052222E+03  0.35852018012E+03  0.00000000000E+00 0. -1.
</event>
<event>
 7    1  0.6473813E-006  0.1223662E+03  0.7561462E-02  0.1239244E+00
         -2   -1    0    0    0  501 -0.00000000000E+00  0.00000000000E+00  0.47000307511E+02  0.47000307511E+02  0.00000000000E+00 0.  1.
          2   -1    0    0  501    0  0.00000000000E+00 -0.00000000000E+00 -0.37890651758E+03  0.37890651758E+03  0.00000000000E+00 0. -1.
         23    2    1    2    0    0 -0.72708189550E+02  0.24645522624E+02 -0.15751274042E+03  0.21528556859E+03  0.12507489771E+03 0.  0.
          5    1    3    3  502    0 -0.79971486337E+02  0.54812886608E+02 -0.62944963197E+02  0.11566949450E+03  0.41800000000E+01 0. -1.
         -5    1    3    3    0  502  0.72632967871E+01 -0.30167363984E+02 -0.94567777223E+02  0.99616074098E+02  0.41800000000E+01 0. -1.
        -11    1    1    2    0    0 -0.15679770228E+02  0.12942399085E+02 -0.45864396886E+02  0.50168753126E+02  0.00000000000E+00 0. -1.
         11    1    1    2    0    0  0.88387959777E+02 -0.37587921709E+02 -0.12852907276E+03  0.16045250337E+03  0.00000000000E+00 0.  1.
</event>
<event>
 7    1  0.6473813E-006  0.1464049E+03  0.7561462E-02  0.1204962E+00
         -1   -1    0    0    0  501 -0.00000000000E+00  0.00000000000E+00  0.41351750215E+02  0.41351750215E+02  0.00000000000E+00 0.  1.
          1   -1    0    0  501    0  0.00000000000E+00 -0.00000000000E+00 -0.64024587359E+03  0.64024587359E+03  0.00000000000E+00 0. -1.
         23    2    1    2    0    0  0.11391463258E+03  0.20293051585E+02 -0.38722204866E+03  0.42305654714E+03  0.12509027002E+03 0.  0.
          5    1    3    3  502    0 -0.23618266857E+02  0.22113320318E+02 -0.81824692752E+02  0.88088445376E+02  0.41800000000E+01 0. -1.
         -5    1    3    3    0  502  0.13753289943E+03 -0.18202687328E+01 -0.30539735590E+03  0.33496810176E+03  0.41800000000E+01 0. -1.
        -11    1    1    2    0    0 -0.14371121337E+02 -0.17966652885E+02 -0.12324239720E+03  0.12537152074E+03  0.00000000000E+00 0. -1.
         11    1    1    2    0    0 -0.99543511239E+02 -0.23263986999E+01 -0.88429677520E+02  0.13316955593E+03  0.00000000000E+00 0.  1.
</event>
<event>
 7    1  0.6473813E-006  0.1062073E+03  0.7561462E-02  0.1267759E+00
          2   -1    0    0  501    0  0.00000000000E+00  0.00000000000E+00  0.15472748108E+03  0.15472748108E+03  0.00000000000E+00 0. -1.
         -2   -1    0    0    0  501 -0.00000000000E+00 -0.00000000000E+00 -0.96203693694E+02  0.96203693694E+02  0.00000000000E+00 0.  1.
         23    2    1    2    0    0 -0.49676102775E+02 -0.13343257689E+00  0.31736811848E+01  0.13446897203E+03  0.12491636880E+03 0.  0.
          5    1    3    3  502    0 -0.28357742609E+02 -0.48866742521E+02  0.40249931633E+02  0.69495679628E+02  0.41800000000E+01 0. -1.
         -5    1    3    3    0  502 -0.21318360166E+02  0.48733309944E+02 -0.37076250449E+02  0.64973292402E+02  0.41800000000E+01 0. -1.
        -11    1    1    2    0    0  0.35777693956E+02  0.43814516718E+02  0.32606206113E+02  0.65291040251E+02  0.00000000000E+00 0.  1.
         11    1    1    2    0    0  0.13898408819E+02 -0.43681084141E+02  0.22743900085E+02  0.51171162489E+02  0.00000000000E+00 0. -1.
</event>
<event>
 7    1  0.6473813E-006  0.9687744E+02  0.7561462E-02  0.1287003E+00
         -4   -1    0    0    0  501 -0.00000000000E+00  0.00000000000E+00  0.12657745958E+03  0.12657745958E+03  0.00000000000E+00 0. -1.
          4   -1    0    0  501    0  0.00000000000E+00 -0.00000000000E+00 -0.10909153721E+03  0.10909153721E+03  0.00000000000E+00 0.  1.
         23    2    1    2    0    0  0.36094347604E+02 -0.96799492200E+01 -0.15692854827E+02  0.13149136966E+03  0.12508881347E+03 0.  0.
          5    1    3    3  502    0  0.81850648326E+02 -0.12217929552E+02  0.28590534040E-01  0.82863017392E+02  0.41800000000E+01 0.  1.
         -5    1    3    3    0  502 -0.45756300722E+02  0.25379803322E+01 -0.15721445361E+02  0.48628352267E+02  0.41800000000E+01 0.  1.
        -11    1    1    2    0    0  0.13673929166E+02  0.61156570099E+01  0.49471218776E+02  0.51689255040E+02  0.00000000000E+00 0. -1.
         11    1    1    2    0    0 -0.49768276769E+02  0.35642922102E+01 -0.16292441584E+02  0.52488372087E+02  0.00000000000E+00 0.  1.
</event>
<event>
 7    1  0.6473813E-006  0.1075387E+03  0.7561462E-02  0.1265197E+00
          2   -1    0    0  501    0  0.00000000000E+00  0.00000000000E+00  0.39244540011E+03  0.39244540011E+03  0.00000000000E+00 0. -1.
         -2   -1    0    0    0  501 -0.00000000000E+00 -0.00000000000E+00 -0.37956653823E+02  0.37956653823E+02  0.00000000000E+00 0.  1.
         23    2    1    2    0    0 -0.41600778647E+02  0.34001097686E+02  0.16237345340E+03  0.21189408487E+03  0.12508902991E+03 0.  0.
          5    1    3    3  502    0  0.87291624700E+01 -0.29514101443E+02  0.77982690045E+00  0.31070258953E+02  0.41800000000E+01 0. -1.
         -5    1    3    3    0  502 -0.50329941117E+02  0.63515199129E+02  0.16159362650E+03  0.18082382592E+03  0.41800000000E+01 0. -1.
        -11    1    1    2    0    0 -0.27466814781E+02 -0.14717234261E+02  0.43647071275E+02  0.53629187290E+02  0.00000000000E+00 0.  1.
         11    1    1    2    0    0  0.69067593428E+02 -0.19283863426E+02  0.14846822161E+03  0.16487878177E+03  0.00000000000E+00 0. -1.
</event>
<event>
 7    1  0.6473813E-006  0.1064900E+03  0.7561462E-02  0.1267211E+00
          1   -1    0    0  501    0  0.00000000000E+00  0.00000000000E+00  0.48269213608E+03  0.48269213608E+03  0.00000000000E+00 0. -1.
         -1   -1    0    0    0  501 -0.00000000000E+00 -0.00000000000E+00 -0.34872606463E+02  0.34872606463E+02  0.00000000000E+00 0.  1.
         23    2    1    2    0    0  0.39443378561E+02 -0.48283346553E+02  0.18324328469E+03  0.23046237268E+03  0.12509093561E+03 0.  0.
          5    1    3    3  502    0  0.38356506604E+02  0.37445097322E+02  0.65201792439E+02  0.84510964079E+02  0.41800000000E+01 0.  1.
         -5    1    3    3    0  502  0.10868719574E+01 -0.85728443875E+02  0.11804149225E+03  0.14595140860E+03  0.41800000000E+01 0.  1.
        -11    1    1    2    0    0  0.43442549158E+01  0.21744482414E+02  0.52733823407E+01  0.22792622218E+02  0.00000000000E+00 0.  1.
         11    1    1    2    0    0 -0.43787633477E+02  0.26538864139E+02  0.25930286259E+03  0.26430974765E+03  0.00000000000E+00 0. -1.
</event>
<event>
 7    1  0.6473813E-006  0.1352655E+03  0.7561462E-02  0.1219845E+00
         -2   -1    0    0    0  501 -0.00000000000E+00  0.00000000000E+00  0.61252526420E+02  0.61252526420E+02  0.00000000000E+00 0. -1.
          2   -1    0    0  501    0  0.00000000000E+00 -0.00000000000E+00 -0.37991843182E+03  0.37991843182E+03  0.00000000000E+00 0.  1.
         23    2    1    2    0    0 -0.92093838616E+02 -0.40758232077E+02 -0.12218067937E+03  0.20178727300E+03  0.12508987385E+03 0.  0.
          5    1    3    3  502    0 -0.51524496542E+02  0.26622918320E+02 -0.21051188732E+01  0.58184683975E+02  0.41800000000E+01 0.  1.
         -5    1    3    3    0  502 -0.40569342074E+02 -0.67381150397E+02 -0.12007556050E+03  0.14360258902E+03  0.41800000000E+01 0.  1.
        -11    1    1    2    0    0  0.71039968886E+02 -0.16228661042E+02 -0.81431293027E+02  0.10927534993E+03  0.00000000000E+00 0.  1.
         11    1    1    2    0    0  0.21053869729E+02  0.56986893119E+02 -0.11505393300E+03  0.13010833531E+03  0.00000000000E+00 0. -1.
</event>
<event>
 7    1  0.6473813E-006  0.9699462E+02  0.7561462E-02  0.1286746E+00
         -2   -1    0    0    0  501 -0.00000000000E+00  0.00000000000E+00  0.24161499189E+02  0.24161499189E+02  0.00000000000E+00 0.  1.
          2   -1    0    0  501    0  0.00000000000E+00 -0.00000000000E+00 -0.57261738388E+03  0.57261738388E+03  0.00000000000E+00 0. -1.
         23    2    1    2    0    0 -0.23436392402E+02 -0.33830281252E+02 -0.22998149482E+03  0.26501958875E+03  0.12510052774E+03 0.  0.
          5    1    3    3  502    0  0.19469592434E+02  0.22550794891E+02 -0.16836347098E+03  0.17103021412E+03  0.41800000000E+01 0.  1.
         -5    1    3    3    0  502 -0.42905984835E+02 -0.56381076144E+02 -0.61618023841E+02  0.93989374633E+02  0.41800000000E+01 0.  1.
        -11    1    1    2    0    0  0.54134355530E+02  0.30283567340E+02 -0.21015210642E+03  0.21911533659E+03  0.00000000000E+00 0. -1.
         11    1    1    2    0    0 -0.30697963128E+02  0.35467139129E+01 -0.10832228345E+03  0.11264395772E+03  0.00000000000E+00 0.  1.
</event>
<event>
 7    1  0.6473813E-006  0.1288284E+03  0.7561462E-02  0.1229205E+00
          1   -1    0    0  501    0  0.00000000000E+00  0.00000000000E+00  0.62779380790E+03  0.62779380790E+03  0.00000000000E+00 0. -1.
         -1   -1    0    0    0  501 -0.00000000000E+00 -0.00000000000E+00 -0.28930063357E+02  0.28930063357E+02  0.00000000000E+00 0.  1.
         23    2    1    2    0    0  0.46229966935E+02  0.53491874273E+02  0.24720057272E+03  0.28592706740E+03  0.12509026447E+03 0.  0.
          5    1    3    3  502    0  0.84180212224E+02  0.12070160752E+02  0.12352858323E+03  0.15002926443E+03  0.41800000000E+01 0.  1.
         -5    1    3    3    0  502 -0.37950245289E+02  0.41421713521E+02  0.12367198949E+03  0.13589780297E+03  0.41800000000E+01 0.  1.
        -11    1    1    2    0    0 -0.31839339577E+02 -0.79952498868E+02  0.28352338054E+03  0.29629656248E+03  0.00000000000E+00 0.  1.
         11    1    1    2    0    0 -0.14390627357E+02  0.26460624595E+02  0.68139791285E+02  0.74500241383E+02  0.00000000000E+00 0. -1.
</event>
<event>
 7    1  0.6473813E-006  0.1056924E+03  0.7561462E-02  0.1268761E+00
          1   -1    0    0  501    0  0.00000000000E+00  0.00000000000E+00  0.24660320838E+03  0.24660320838E+03  0.00000000000E+00 0. -1.
         -1   -1    0    0    0  501 -0.00000000000E+00 -0.00000000000E+00 -0.58271002205E+02  0.58271002205E+02  0.00000000000E+00 0.  1.
         23    2    1    2    0    0 -0.30542259715E+02 -0.94022525509E+01  0.58940225215E+02  0.14192450818E+03  0.12508950353E+03 0.  0.
          5    1    3    3  502    0  0.34179155312E+02  0.33157602261E+02  0.63922042249E+01  0.48228351832E+02  0.41800000000E+01 0.  1.
         -5    1    3    3    0  502 -0.64721415027E+02 -0.42559854812E+02  0.52548020991E+02  0.93696156350E+02  0.41800000000E+01 0.  1.
        -11    1    1    2    0    0 -0.26287270592E+02 -0.63351614016E+01  0.84835949969E+02  0.89040964012E+02  0.00000000000E+00 0. -1.
         11    1    1    2    0    0  0.56829530307E+02  0.15737413953E+02  0.44556030991E+02  0.73908738391E+02  0.00000000000E+00 0.  1.
</event>
<event>
 7    1  0.6473813E-006  0.9463608E+02  0.7561462E-02  0.1291998E+00
          1   -1    0    0  501    0  0.00000000000E+00  0.00000000000E+00  0.28104821729E+03  0.28104821729E+03  0.00000000000E+00 0. -1.
         -1   -1    0    0    0  501 -0.00000000000E+00 -0.00000000000E+00 -0.73654545266E+02  0.73654545266E+02  0.00000000000E+00 0.  1.
         23    2    1    2    0    0 -0.10217610646E+02  0.36873566796E+02  0.67410813247E+01  0.13098499041E+03  0.12509023159E+03 0.  0.
          5    1    3    3  502    0  0.32897558752E+01  0.65525992506E+02  0.46096696056E+02  0.80292315790E+02  0.41800000000E+01 0.  1.
         -5    1    3    3    0  502 -0.13507366521E+02 -0.28652425711E+02 -0.39355614732E+02  0.50692674622E+02  0.41800000000E+01 0.  1.
        -11    1    1    2    0    0 -0.28813507053E+02  0.10076055249E+02  0.11192823428E+03  0.11601583818E+03  0.00000000000E+00 0. -1.
         11    1    1    2    0    0  0.39031117699E+02 -0.46949622044E+02  0.88724356421E+02  0.10770193397E+03  0.00000000000E+00 0.  1.
</event>
<event>
 7    1  0.6473813E-006  0.1094332E+03  0.7561462E-02  0.1261623E+00
         -1   -1    0    0    0  501 -0.00000000000E+00  0.00000000000E+00  0.64422528474E+02  0.64422528474E+02  0.00000000000E+00 0. -1.
          1   -1    0    0  501    0  0.00000000000E+00 -0.00000000000E+00 -0.19458730707E+03  0.19458730707E+03  0.00000000000E+00 0.  1.
         23    2    1    2    0    0 -0.79644610518E+01  0.49889004631E+00 -0.47708642632E+02  0.13412488165E+03  0.12509871208E+03 0.  0.
          5    1    3    3  502    0  0.53531012370E+02  0.24698132588E+02 -0.24047244826E+02  0.63806813292E+02  0.41800000000E+01 0.  1.
         -5    1    3    3    0  502 -0.61495473422E+02 -0.24199242542E+02 -0.23661397805E+02  0.70318068354E+02  0.41800000000E+01 0.  1.
        -11    1    1    2    0    0  0.47035251018E+02 -0.18482028925E+02 -0.49039191143E+02  0.70418339227E+02  0.00000000000E+00 0. -1.
         11    1    1    2    0    0 -0.39070789967E+02  0.17983138879E+02 -0.33416944820E+02  0.54466614670E+02  0.00000000000E+00 0.  1.
</event>
<event>
 7    1  0.6473813E-006  0.1140208E+03  0.7561462E-02  0.1253300E+00
         -2   -1    0    0    0  501 -0.00000000000E+00  0.00000000000E+00  0.34088278889E+02  0.34088278889E+02  0.00000000000E+00 0.  1.
          2   -1    0    0  501    0  0.00000000000E+00 -0.00000000000E+00 -0.38877966125E+03  0.38877966125E+03  0.00000000000E+00 0. -1.
         23    2    1    2    0    0 -0.26861126186E+02  0.28473035424E+02 -0.22299445898E+03  0.25866130898E+03  0.12508761002E+03 0.  0.
          5    1    3    3  502    0  0.49431971727E+02  0.22350009157E+02 -0.91342763864E+02  0.10632034447E+03  0.41800000000E+01 0.  1.
         -5    1    3    3    0  502 -0.76293097913E+02  0.61230262673E+01 -0.13165169511E+03  0.15234096450E+03  0.41800000000E+01 0.  1.
        -11    1    1    2    0    0 -0.49547965286E+00 -0.57262257590E+02 -0.65424834808E+02  0.86946079003E+02  0.00000000000E+00 0.  1.
         11    1    1    2    0    0  0.27356605839E+02  0.28789222165E+02 -0.66272088575E+02  0.77260552159E+02  0.00000000000E+00 0. -1.
</event>
<event>
 7    1  0.6473813E-006  0.1062469E+03  0.7561462E-02  0.1267682E+00
          1   -1    0    0  501    0  0.00000000000E+00  0.00000000000E+00  0.30680564657E+02  0.30680564657E+02  0.00000000000E+00 0. -1.
         -1   -1    0    0    0  501 -0.00000000000E+00 -0.00000000000E+00 -0.46950968291E+03  0.46950968291E+03  0.00000000000E+00 0.  1.
         23    2    1    2    0    0 -0.36878557246E+02  0.35653351965E+02 -0.25161057514E+03  0.28565393130E+03  0.12513631548E+03 0.  0.
          5    1    3    3  502    0  0.36829342353E+02  0.41084827411E+02 -0.15043716087E+03  0.16029090826E+03  0.41800000000E+01 0.  1.
         -5    1    3    3    0  502 -0.73707899599E+02 -0.54314754463E+01 -0.10117341428E+03  0.12536302304E+03  0.41800000000E+01 0.  1.
        -11    1    1    2    0    0  0.55905146994E+02 -0.24133007831E+02 -0.60345938341E+02  0.85728757145E+02  0.00000000000E+00 0. -1.
         11    1    1    2    0    0 -0.19026589748E+02 -0.11520344134E+02 -0.12687260477E+03  0.12880755912E+03  0.00000000000E+00 0.  1.
</event>
<event>
 7    1  0.6473813E-006  0.1204607E+03  0.7561462E-02  0.1242339E+00
         -2   -1    0    0    0  501 -0.00000000000E+00  0.00000000000E+00  0.62704965480E+02  0.62704965480E+02  0.00000000000E+00 0.  1.
          2   -1    0    0  501    0  0.00000000000E+00 -0.00000000000E+00 -0.31748586936E+03  0.31748586936E+03  0.00000000000E+00 0. -1.
         23    2    1    2    0    0 -0.52811478668E+02 -0.48273441203E+02 -0.65977577987E+02  0.15850856675E+03  0.12511014161E+03 0.  0.
          5    1    3    3  502    0 -0.12763319919E+02  0.41412175518E+02 -0.33635443309E+02  0.55015325711E+02  0.41800000000E+01 0. -1.
         -5    1    3    3    0  502 -0.40048158749E+02 -0.89685616722E+02 -0.32342134678E+02  0.10349324104E+03  0.41800000000E+01 0. -1.
        -11    1    1    2    0    0  0.55607093355E+02  0.51312787634E+01 -0.16067950853E+03  0.17010697609E+03  0.00000000000E+00 0. -1.
         11    1    1    2    0    0 -0.27956146875E+01  0.43142162440E+02 -0.28123817364E+02  0.51575291997E+02  0.00000000000E+00 0.  1.
</event>
<event>
 7    1  0.6473813E-006  0.1526195E+03  0.7561462E-02  0.1197291E+00
          3   -1    0    0  501    0  0.00000000000E+00  0.00000000000E+00  0.19097497962E+03  0.19097497962E+03  0.00000000000E+00 0. -1.
         -3   -1    0    0    0  501 -0.00000000000E+00 -0.00000000000E+00 -0.14234350140E+03  0.14234350140E+03  0.00000000000E+00 0.  1.
         23    2    1    2    0    0 -0.10047360917E+03 -0.54215068441E+02 -0.24315072761E+02  0.17109362307E+03  0.12509030861E+03 0.  0.
          5    1    3    3  502    0 -0.92956311045E+02  0.14434054283E+02 -0.36223850814E+02  0.10089032389E+03  0.41800000000E+01 0. -1.
         -5    1    3    3    0  502 -0.75172981202E+01 -0.68649122724E+02  0.11908778053E+02  0.70203299185E+02  0.41800000000E+01 0. -1.
        -11    1    1    2    0    0  0.86062468255E+02  0.28016329752E+00  0.27843763401E+02  0.90454972743E+02  0.00000000000E+00 0.  1.
         11    1    1    2    0    0  0.14411140911E+02  0.53934905144E+02  0.45102787578E+02  0.71769885206E+02  0.00000000000E+00 0. -1.
</event>
<event>
 7    1  0.6473813E-006  0.1705351E+03  0.7561462E-02  0.1177291E+00
          1   -1    0    0  501    0  0.00000000000E+00  0.00000000000E+00  0.26940712923E+03  0.26940712923E+03  0.00000000000E+00 0. -1.
         -1   -1    0    0    0  501 -0.00000000000E+00 -0.00000000000E+00 -0.16637222591E+03  0.16637222591E+03  0.00000000000E+00 0.  1.
         23    2    1    2    0    0  0.11939061322E+03 -0.74649126563E+02 -0.63541130023E+02  0.19877558289E+03  0.12509055331E+03 0.  0.
          5    1    3    3  502    0  0.13123570794E+03 -0.24990382596E+02 -0.28360343441E+02  0.13663495797E+03  0.41800000000E+01 0. -1.
         -5    1    3    3    0  502 -0.11845094713E+02 -0.49658743968E+02 -0.35180786582E+02  0.62140624922E+02  0.41800000000E+01 0. -1.
        -11    1    1    2    0    0 -0.16372623735E+02  0.46640268225E+02  0.15096489025E+02  0.51684440686E+02  0.00000000000E+00 0.  1.
         11    1    1    2    0    0 -0.10301798949E+03  0.28008858338E+02  0.15147954432E+03  0.18531933156E+03  0.00000000000E+00 0. -1.
</event>
<event>
 7    1  0.6473813E-006  0.9611643E+02  0.7561462E-02  0.1288681E+00
         -3   -1    0    0    0  501 -0.00000000000E+00  0.00000000000E+00  0.36762996809E+02  0.36762996809E+02  0.00000000000E+00 0.  1.
          3   -1    0    0  501    0  0.00000000000E+00 -0.00000000000E+00 -0.50733003504E+03  0.50733003504E+03  0.00000000000E+00 0. -1.
         23    2    1    2    0    0  0.70899543460E+02 -0.13415869434E+02 -0.17543987901E+03  0.22722853550E+03  0.12508767079E+03 0.  0.
          5    1    3    3  502    0  0.13098418302E+02 -0.13045959000E+02 -0.16769192888E+03  0.16875965459E+03  0.41800000000E+01 0. -1.
         -5    1    3    3    0  502  0.57801125158E+02 -0.36991043484E+00 -0.77479501304E+01  0.58468880907E+02  0.41800000000E+01 0. -1.
        -11    1    1    2    0    0 -0.36711802898E+02  0.52077476510E+02 -0.16540815027E+03  0.17725596241E+03  0.00000000000E+00 0.  1.
         11    1    1    2    0    0 -0.34187740562E+02 -0.38661607076E+02 -0.12971900895E+03  0.13960853394E+03  0.00000000000E+00 0. -1.
</event>
<event>
 7    1  0.6473813E-006  0.1987355E+03  0.7561462E-02  0.1150810E+00
          2   -1    0    0  501    0  0.00000000000E+00  0.00000000000E+00  0.13261901035E+04  0.13261901035E+04  0.00000000000E+00 0. -1.
         -2   -1    0    0    0  501 -0.00000000000E+00 -0.00000000000E+00 -0.88572690983E+02  0.88572690983E+02  0.00000000000E+00 0.  1.
         23    2    1    2    0    0 -0.16830643630E+03  0.49301578603E+02  0.55453288291E+02  0.21604736987E+03  0.11333003439E+03 0.  0.
          5    1    3    3  502    0  0.11513255859E+02  0.73091953757E+01  0.25093160672E+02  0.28863792371E+02  0.41800000000E+01 0. -1.
         -5    1    3    3    0  502 -0.17981969216E+03  0.41992383227E+02  0.30360127619E+02  0.18718357750E+03  0.41800000000E+01 0.  1.
        -11    1    1    2    0    0  0.13560737466E+03  0.43435193251E+01  0.80273901925E+03  0.81412416697E+03  0.00000000000E+00 0. -1.
         11    1    1    2    0    0  0.32699061637E+02 -0.53645097928E+02  0.37942510498E+03  0.38459125764E+03  0.00000000000E+00 0.  1.
</event>
<event>
 7    1  0.6473813E-006  0.9512838E+02  0.7561462E-02  0.1290887E+00
          2   -1    0    0  501    0  0.00000000000E+00  0.00000000000E+00  0.13500566516E+04  0.13500566516E+04  0.00000000000E+00 0. -1.
         -2   -1    0    0    0  501 -0.00000000000E+00 -0.00000000000E+00 -0.11077745062E+02  0.11077745062E+02  0.00000000000E+00 0.  1.
         23    2    1    2    0    0  0.29700956426E+02  0.48195735734E+02  0.75551749769E+03  0.76789374163E+03  0.12509649620E+03 0.  0.
          5    1    3    3  502    0  0.38932971418E+02  0.52320036652E+01  0.65678952847E+02  0.76644291195E+02  0.41800000000E+01 0. -1.
         -5    1    3    3    0  502 -0.92320149918E+01  0.42963732068E+02  0.68983854484E+03  0.69124945043E+03  0.41800000000E+01 0. -1.
        -11    1    1    2    0    0  0.94187291277E+01 -0.63800554202E+02  0.38439849036E+03  0.38977098733E+03  0.00000000000E+00 0.  1.
         11    1    1    2    0    0 -0.39119685553E+02  0.15604818469E+02  0.19906291845E+03  0.20346966766E+03  0.00000000000E+00 0. -1.
</event>
<event>
 7    1  0.6473813E-006  0.1552459E+03  0.7561462E-02  0.1194171E+00
          2   -1    0    0  501    0  0.00000000000E+00  0.00000000000E+00  0.31228673918E+03  0.31228673918E+03  0.00000000000E+00 0. -1.
         -2   -1    0    0    0  501 -0.00000000000E+00 -0.00000000000E+00 -0.78728619523E+02  0.78728619523E+02  0.00000000000E+00 0.  1.
         23    2    1    2    0    0  0.19528966764E+02 -0.10947741878E+03  0.10586777345E+03  0.19804702906E+03  0.12509178428E+03 0.  0.
          5    1    3    3  502    0  0.30954466734E+02  0.20096393254E+02  0.26239492629E+02  0.45475569331E+02  0.41800000000E+01 0.  1.
         -5    1    3    3    0  502 -0.11425499970E+02 -0.12957381204E+03  0.79628280826E+02  0.15257145973E+03  0.41800000000E+01 0.  1.
        -11    1    1    2    0    0 -0.43059746077E+02  0.14620444224E+02  0.53823256472E+02  0.70461635368E+02  0.00000000000E+00 0.  1.
         11    1    1    2    0    0  0.23530779313E+02  0.94856974559E+02  0.73867089729E+02  0.12250669428E+03  0.00000000000E+00 0. -1.
</event>
<event>
 7    1  0.6473813E-006  0.1297226E+03  0.7561462E-02  0.1227868E+00
          2   -1    0    0  501    0  0.00000000000E+00  0.00000000000E+00  0.76027561235E+03  0.76027561235E+03  0.00000000000E+00 0. -1.
         -2   -1    0    0    0  501 -0.00000000000E+00 -0.00000000000E+00 -0.29682145427E+02  0.29682145427E+02  0.00000000000E+00 0.  1.
         23    2    1    2    0    0 -0.29759910364E+02  0.83411427765E+02  0.25425703624E+03  0.29687936462E+03  0.12509035980E+03 0.  0.
          5    1    3    3  502    0  0.77761060585E+01 -0.25299633677E+02  0.10523062567E+03  0.10858865627E+03  0.41800000000E+01 0. -1.
         -5    1    3    3    0  502 -0.37536016423E+02  0.10871106144E+03  0.14902641056E+03  0.18829070836E+03  0.41800000000E+01 0. -1.
        -11    1    1    2    0    0 -0.17597060682E+02 -0.64014693106E+02  0.17012274110E+03  0.18261786473E+03  0.00000000000E+00 0.  1.
         11    1    1    2    0    0  0.47356971046E+02 -0.19396734658E+02  0.30621368959E+03  0.31046052843E+03  0.00000000000E+00 0. -1.
</event>
<event>
 7    1  0.6473813E-006  0.5433831E+02  0.7561462E-02  0.1423254E+00
          2   -1    0    0  501    0  0.00000000000E+00  0.00000000000E+00  0.10566053559E+03  0.10566053559E+03  0.00000000000E+00 0.  1.
         -2   -1    0    0    0  501 -0.00000000000E+00 -0.00000000000E+00 -0.14774533174E+03  0.14774533174E+03  0.00000000000E+00 0. -1.
         23    2    1    2    0    0 -0.11646337925E+02 -0.29368379207E+02 -0.80850081078E+02  0.15225510945E+03  0.12508694520E+03 0.  0.
          5    1    3    3  502    0  0.22207570717E+02 -0.32497348839E+02 -0.10375482280E+03  0.11104859086E+03  0.41800000000E+01 0.  1.
         -5    1    3    3    0  502 -0.33853908642E+02  0.31289696319E+01  0.22904741718E+02  0.41206518592E+02  0.41800000000E+01 0.  1.
        -11    1    1    2    0    0  0.84279303054E+00  0.21399145243E+02 -0.26754331434E+02  0.34269928038E+02  0.00000000000E+00 0. -1.
         11    1    1    2    0    0  0.10803544894E+02  0.79692339634E+01  0.65519616358E+02  0.66880829839E+02  0.00000000000E+00 0.  1.
</event>
<event>
 7    1  0.6473813E-006  0.7039934E+02  0.7561462E-02  0.1358740E+00
          2   -1    0    0  501    0  0.00000000000E+00  0.00000000000E+00  0.63734987264E+02  0.63734987264E+02  0.00000000000E+00 0. -1.
         -2   -1    0    0    0  501 -0.00000000000E+00 -0.00000000000E+00 -0.21287608154E+03  0.21287608154E+03  0.00000000000E+00 0.  1.
         23    2    1    2    0    0 -0.29807592269E+02  0.26346679566E+02 -0.11979384478E+03  0.17771209615E+03  0.12509350019E+03 0.  0.
          5    1    3    3  502    0 -0.48910772464E+02 -0.18191069780E+02 -0.11793804280E+03  0.12903500696E+03  0.41800000000E+01 0.  1.
         -5    1    3    3    0  502  0.19103180195E+02  0.44537749346E+02 -0.18558019786E+01  0.48677089183E+02  0.41800000000E+01 0.  1.
        -11    1    1    2    0    0  0.86207252204E+01 -0.68068030186E+01 -0.57541310102E+02  0.58580302482E+02  0.00000000000E+00 0.  1.
         11    1    1    2    0    0  0.21186867049E+02 -0.19539876547E+02  0.28194060607E+02  0.40318670171E+02  0.00000000000E+00 0. -1.
</event>
<event>
 7    1  0.6473813E-006  0.1160673E+03  0.7561462E-02  0.1249729E+00
         -1   -1    0    0    0  501 -0.00000000000E+00  0.00000000000E+00  0.48208809749E+02  0.48208809749E+02  0.00000000000E+00 0.  1.
          1   -1    0    0  501    0  0.00000000000E+00 -0.00000000000E+00 -0.37905014768E+03  0.37905014768E+03  0.00000000000E+00 0. -1.
         23    2    1    2    0    0 -0.44253489997E+02 -0.44989979220E+02 -0.11087325433E+03  0.17867251079E+03  0.12509403654E+03 0.  0.
          5    1    3    3  502    0  0.42507278777E+02 -0.16728854587E+02 -0.20725856080E+02  0.50336436456E+02  0.41800000000E+01 0. -1.
         -5    1    3    3    0  502 -0.86760768775E+02 -0.28261124633E+02 -0.90147398249E+02  0.12833607433E+03  0.41800000000E+01 0. -1.
        -11    1    1    2    0    0  0.39117482171E+02 -0.94462629809E+01 -0.28105957643E+02  0.49085172412E+02  0.00000000000E+00 0.  1.
         11    1    1    2    0    0  0.51360078269E+01  0.54436242201E+02 -0.19186212596E+03  0.19950127423E+03  0.00000000000E+00 0. -1.
</event>
<event>
 7    1  0.6473813E-006  0.1699825E+03  0.7561462E-02  0.1177866E+00
          2   -1    0    0  501    0  0.00000000000E+00  0.00000000000E+00  0.94788554982E+03  0.94788554982E+03  0.00000000000E+00 0. -1.
         -2   -1    0    0    0  501 -0.00000000000E+00 -0.00000000000E+00 -0.33172442230E+02  0.33172442230E+02  0.00000000000E+00 0.  1.
         23    2    1    2    0    0 -0.88866820313E+02 -0.10288636113E+03  0.38653102212E+03  0.42841143251E+03  0.12508880597E+03 0.  0.
          5    1    3    3  502    0  0.29005327282E+02 -0.12865665800E+02  0.38456331401E+02  0.50031951711E+02  0.41800000000E+01 0.  1.
         -5    1    3    3    0  502 -0.11787214759E+03 -0.90020695333E+02  0.34807469072E+03  0.37837948080E+03  0.41800000000E+01 0.  1.
        -11    1    1    2    0    0 -0.10218511116E+01  0.59967755700E+02  0.25236470226E+03  0.25939375253E+03  0.00000000000E+00 0.  1.
         11    1    1    2    0    0  0.89888671424E+02  0.42918605434E+02  0.27581738321E+03  0.29325280702E+03  0.00000000000E+00 0. -1.
</event>
<event>
 7    1  0.6473813E-006  0.1404672E+03  0.7561462E-02  0.1212702E+00
          1   -1    0    0  501    0  0.00000000000E+00  0.00000000000E+00  0.80467639977E+02  0.80467639977E+02  0.00000000000E+00 0. -1.
         -1   -1    0    0    0  501 -0.00000000000E+00 -0.00000000000E+00 -0.26785504760E+03  0.26785504760E+03  0.00000000000E+00 0.  1.
         23    2    1    2    0    0  0.96420509285E+02 -0.21581205363E+02 -0.82297933252E+02  0.17939523033E+03  0.12508811220E+03 0.  0.
          5    1    3    3  502    0  0.13966737231E+02  0.46526526917E+02 -0.87564963863E+01  0.49537219187E+02  0.41800000000E+01 0.  1.
         -5    1    3    3    0  502  0.82453772054E+02 -0.68107732280E+02 -0.73541436866E+02  0.12985801115E+03  0.41800000000E+01 0.  1.
        -11    1    1    2    0    0 -0.55136350447E+02  0.50481596988E+02 -0.88555254989E+02  0.11588978368E+03  0.00000000000E+00 0.  1.
         11    1    1    2    0    0 -0.41284158838E+02 -0.28900391624E+02 -0.16534219386E+02  0.53037673570E+02  0.00000000000E+00 0. -1.
</event>
<event>
 7    1  0.6473813E-006  0.1109549E+03  0.7561462E-02  0.1258812E+00
         -2   -1    0    0    0  501 -0.00000000000E+00  0.00000000000E+00  0.17373647165E+03  0.17373647165E+03  0.00000000000E+00 0.  1.
          2   -1    0    0  501    0  0.00000000000E+00 -0.00000000000E+00 -0.18620924473E+03  0.18620924473E+03  0.00000000000E+00 0. -1.
         23    2    1    2    0    0  0.58818454638E+02 -0.15714572712E+02  0.12319647041E+03  0.18582625274E+03  0.12508983766E+03 0.  0.
          5    1    3    3  502    0  0.78475876981E+02 -0.46408277059E+02  0.11736992665E+03  0.14867872588E+03  0.41800000000E+01 0. -1.
         -5    1    3    3    0  502 -0.19657422343E+02  0.30693704346E+02  0.58265437589E+01  0.37147526860E+02  0.41800000000E+01 0. -1.
        -11    1    1    2    0    0 -0.18357725520E+02 -0.28576692950E+02 -0.10889477139E+02  0.35668111508E+02  0.00000000000E+00 0.  1.
         11    1    1    2    0    0 -0.40460729118E+02  0.44291265662E+02 -0.12477976635E+03  0.13845135212E+03  0.00000000000E+00 0. -1.
</event>
<event>
 7    1  0.6473813E-006  0.1133459E+03  0.7561462E-02  0.1254496E+00
          2   -1    0    0  501    0  0.00000000000E+00  0.00000000000E+00  0.59461958124E+03  0.59461958124E+03  0.00000000000E+00 0. -1.
         -2   -1    0    0    0  501 -0.00000000000E+00 -0.00000000000E+00 -0.24875303736E+02  0.24875303736E+02  0.00000000000E+00 0.  1.
         23    2    1    2    0    0 -0.52435120808E+02 -0.21721460499E+01  0.28407517928E+03  0.31480021108E+03  0.12508519218E+03 0.  0.
          5    1    3    3  502    0  0.39120362723E+02  0.15437067818E+02  0.84330054965E+02  0.94327813569E+02  0.41800000000E+01 0.  1.
         -5    1    3    3    0  502 -0.91555483531E+02 -0.17609213868E+02  0.19974512431E+03  0.22047239751E+03  0.41800000000E+01 0.  1.
        -11    1    1    2    0    0  0.65665954905E+02  0.20233425449E+02  0.26651563356E+03  0.27523079782E+03  0.00000000000E+00 0. -1.
         11    1    1    2    0    0 -0.13230834097E+02 -0.18061279399E+02  0.19153464667E+02  0.29463876072E+02  0.00000000000E+00 0.  1.
</event>
<event>
 7    1  0.6473813E-006  0.7944975E+02  0.7561462E-02  0.1330620E+00
          1   -1    0    0  501    0  0.00000000000E+00  0.00000000000E+00  0.24064763361E+02  0.24064763361E+02  0.00000000000E+00 0. -1.
         -1   -1    0    0    0  501 -0.00000000000E+00 -0.00000000000E+00 -0.64981580669E+03  0.64981580669E+03  0.00000000000E+00 0.  1.
         23    2    1    2    0    0  0.30909505596E+02  0.57173097430E+02 -0.39942283111E+03  0.42356743486E+03  0.12508642317E+03 0.  0.
          5    1    3    3  502    0  0.21502551512E+02  0.25953392063E+02 -0.13982227897E+02  0.36727556114E+02  0.41800000000E+01 0. -1.
         -5    1    3    3    0  502  0.94069540831E+01  0.31219705367E+02 -0.38544060321E+03  0.38683987875E+03  0.41800000000E+01 0. -1.
        -11    1    1    2    0    0  0.10039865366E+02 -0.49367357156E+02 -0.18451891726E+03  0.19127249064E+03  0.00000000000E+00 0.  1.
         11    1    1    2    0    0 -0.40949370961E+02 -0.78057402736E+01 -0.41809294965E+02  0.59040644549E+02  0.00000000000E+00 0. -1.
</event>
<event>
 7    1  0.6473813E-006  0.1318512E+03  0.7561462E-02  0.1224734E+00
         -1   -1    0    0    0  501 -0.00000000000E+00  0.00000000000E+00  0.47451725004E+02  0.47451725004E+02  0.00000000000E+00 0.  1.
          1   -1    0    0  501    0  0.00000000000E+00 -0.00000000000E+00 -0.58767027226E+03  0.58767027226E+03  0.00000000000E+00 0. -1.
         23    2    1    2    0    0  0.34065368567E+02  0.85209167083E+02 -0.12235263182E+03  0.19758209389E+03  0.12508983101E+03 0.  0.
          5    1    3    3  502    0  0.35422747756E+02  0.11633615999E+03 -0.83363237676E+02  0.14749838974E+03  0.41800000000E+01 0.  1.
         -5    1    3    3    0  502 -0.13573791890E+01 -0.31126992909E+02 -0.38989394147E+02  0.50083704154E+02  0.41800000000E+01 0.  1.
        -11    1    1    2    0    0  0.82609849871E+01 -0.61537178542E+02 -0.34134240507E+03  0.34694337537E+03  0.00000000000E+00 0. -1.
         11    1    1    2    0    0 -0.42326353554E+02 -0.23671988541E+02 -0.76523510364E+02  0.90596527997E+02  0.00000000000E+00 0.  1.
</event>
<event>
 7    1  0.6473813E-006  0.3499590E+03  0.7561462E-02  0.1062632E+00
         -2   -1    0    0    0  501 -0.00000000000E+00  0.00000000000E+00  0.18460999379E+03  0.18460999379E+03  0.00000000000E+00 0. -1.
          2   -1    0    0  501    0  0.00000000000E+00 -0.00000000000E+00 -0.69765883875E+03  0.69765883875E+03  0.00000000000E+00 0.  1.
         23    2    1    2    0    0  0.18540883661E+03  0.28112065285E+03 -0.18928739820E+03  0.40605475766E+03  0.12508192893E+03 0.  0.
          5    1    3    3  502    0 -0.18925136681E+01  0.63180375669E+02 -0.71314368718E+02  0.95386335831E+02  0.41800000000E+01 0. -1.
         -5    1    3    3    0  502  0.18730135028E+03  0.21794027718E+03 -0.11797302948E+03  0.31066842182E+03  0.41800000000E+01 0. -1.
        -11    1    1    2    0    0 -0.30621738521E+02 -0.28548624738E+01 -0.26237432949E+02  0.40425783821E+02  0.00000000000E+00 0.  1.
         11    1    1    2    0    0 -0.15478709809E+03 -0.27826579038E+03 -0.29752401382E+03  0.43578829106E+03  0.00000000000E+00 0. -1.
</event>
<event>
 7    1  0.6473813E-006  0.1594873E+03  0.7561462E-02  0.1189277E+00
          2   -1    0    0  501    0  0.00000000000E+00  0.00000000000E+00  0.89996132379E+03  0.89996132379E+03  0.00000000000E+00 0. -1.
         -2   -1    0    0    0  501 -0.00000000000E+00 -0.00000000000E+00 -0.34894484913E+02  0.34894484913E+02  0.00000000000E+00 0.  1.
         23    2    1    2    0    0 -0.14699738940E+02  0.13431623003E+03  0.54091978959E+03  0.57140179648E+03  0.12509541269E+03 0.  0.
          5    1    3    3  502    0 -0.26056395876E+02  0.15624374791E+03  0.44942314529E+03  0.47653927483E+03  0.41800000000E+01 0. -1.
         -5    1    3    3    0  502  0.11356656936E+02 -0.21927517878E+02  0.91496644301E+02  0.94862521658E+02  0.41800000000E+01 0. -1.
        -11    1    1    2    0    0  0.31629975624E+00 -0.45362577995E+02  0.26656242887E+02  0.52615765819E+02  0.00000000000E+00 0.  1.
         11    1    1    2    0    0  0.14383439184E+02 -0.88953652040E+02  0.29749080639E+03  0.31083824640E+03  0.00000000000E+00 0. -1.
</event>
<event>
 7    1  0.6473813E-006  0.1771661E+03  0.7561462E-02  0.1170574E+00
         -2   -1    0    0    0  501 -0.00000000000E+00  0.00000000000E+00  0.44100473147E+03  0.44100473147E+03  0.00000000000E+00 0.  1.
          2   -1    0    0  501    0  0.00000000000E+00 -0.00000000000E+00 -0.87480504301E+02  0.87480504301E+02  0.00000000000E+00 0. -1.
         23    2    1    2    0    0 -0.16239255551E+03  0.89256807978E+01  0.18546455342E+03  0.27657813394E+03  0.12508938299E+03 0.  0.
          5    1    3    3  502    0 -0.72266522865E+02  0.31776233979E+02  0.12326717479E+02  0.80009997729E+02  0.41800000000E+01 0. -1.
         -5    1    3    3    0  502 -0.90126032650E+02 -0.22850553181E+02  0.17313783594E+03  0.19656813621E+03  0.41800000000E+01 0. -1.
        -11    1    1    2    0    0  0.79060274195E+02 -0.45480491526E+02  0.53998444549E+02  0.10599450023E+03  0.00000000000E+00 0. -1.
         11    1    1    2    0    0  0.83332281319E+02  0.36554810728E+02  0.11406122920E+03  0.14591260160E+03  0.00000000000E+00 0.  1.
</event>
<event>
 7    1  0.6473813E-006  0.9851923E+02  0.7561462E-02  0.1283441E+00
          2   -1    0    0  501    0  0.00000000000E+00  0.00000000000E+00  0.32477291996E+03  0.32477291996E+03  0.00000000000E+00 0. -1.
         -2   -1    0    0    0  501 -0.00000000000E+00 -0.00000000000E+00 -0.54502664409E+02  0.54502664409E+02  0.00000000000E+00 0.  1.
         23    2    1    2    0    0 -0.12894035392E+02 -0.75878143007E+02  0.98266637845E+02  0.16945820883E+03  0.11461240636E+03 0.  0.
          5    1    3    3  502    0  0.12984418919E+02 -0.37326970334E+02  0.11362479977E+03  0.12037427205E+03  0.41800000000E+01 0. -1.
         -5    1    3    3    0  502 -0.25878454311E+02 -0.38551172672E+02 -0.15358161927E+02  0.49083936779E+02  0.41800000000E+01 0.  1.
        -11    1    1    2    0    0 -0.12452187198E+02  0.83332882613E+02  0.15993352374E+03  0.18077101069E+03  0.00000000000E+00 0. -1.
         11    1    1    2    0    0  0.25346222590E+02 -0.74547396057E+01  0.12070093959E+02  0.29046364839E+02  0.00000000000E+00 0.  1.
</event>
<event>
 7    1  0.6473813E-006  0.8638160E+02  0.7561462E-02  0.1311859E+00
         -2   -1    0    0    0  501 -0.00000000000E+00  0.00000000000E+00  0.18897079440E+03  0.18897079440E+03  0.00000000000E+00 0.  1.
          2   -1    0    0  501    0  0.00000000000E+00 -0.00000000000E+00 -0.82048428251E+02  0.82048428251E+02  0.00000000000E+00 0. -1.
         23    2    1    2    0    0  0.24348400214E+02 -0.30089849786E+01  0.11732686480E+03  0.17325060623E+03  0.12509308843E+03 0.  0.
          5    1    3    3  502    0  0.36537224261E+02 -0.30899636554E+02 -0.38994375702E+01  0.48191641487E+02  0.41800000000E+01 0. -1.
         -5    1    3    3    0  502 -0.12188824047E+02  0.27890651575E+02  0.12122630237E+03  0.12505896475E+03  0.41800000000E+01 0. -1.
        -11    1    1    2    0    0 -0.42083202863E+01 -0.43301667392E+02 -0.17261052721E+02  0.46804789280E+02  0.00000000000E+00 0.  1.
         11    1    1    2    0    0 -0.20140079928E+02  0.46310652370E+02  0.68565540669E+01  0.50963827134E+02  0.00000000000E+00 0. -1.
</event>
<event>
 7    1  0.9609901E-006  0.1026535E+03  0.7561462E-02  0.1274813E+00
         -1   -1    0    0    0  501 -0.00000000000E+00  0.00000000000E+00  0.27072187945E+03  0.27072187945E+03  0.00000000000E+00 0.  1.
          1   -1    0    0  501    0  0.00000000000E+00 -0.00000000000E+00 -0.73387765125E+02  0.73387765125E+02  0.00000000000E+00 0. -1.
         23    2    1    2    0    0 -0.64754352247E+02  0.58981265938E+02  0.13006122975E+03  0.20058757729E+03  0.12509011477E+03 0.  0.
          5    1    3    3  502    0 -0.57216003926E+02  0.49927040223E+02  0.15502152637E+03  0.17267173043E+03  0.41800000000E+01 0.  1.
         -5    1    3    3    0  502 -0.75383483211E+01  0.90542257150E+01 -0.24960296619E+02  0.27915846862E+02  0.41800000000E+01 0.  1.
        -11    1    1    2    0    0  0.18937562468E+01 -0.53633151556E+02  0.34440059916E+01  0.53776969381E+02  0.00000000000E+00 0. -1.
         11    1    1    2    0    0  0.62860596001E+02 -0.53481143824E+01  0.63828878584E+02  0.89745097907E+02  0.00000000000E+00 0.  1.
</event>
<event>
 7    1  0.6473813E-006  0.8677539E+02  0.7561462E-02  0.1310854E+00
          1   -1    0    0  501    0  0.00000000000E+00  0.00000000000E+00  0.81154768687E+02  0.81154768687E+02  0.00000000000E+00 0. -1.
         -1   -1    0    0    0  501 -0.00000000000E+00 -0.00000000000E+00 -0.28716317304E+03  0.28716317304E+03  0.00000000000E+00 0.  1.
         23    2    1    2    0    0 -0.27534053914E+02  0.50729187800E+02 -0.22188186735E+03  0.26117293977E+03  0.12509263283E+03 0.  0.
          5    1    3    3  502    0  0.14312005328E+02  0.68503875358E+02 -0.19715838512E+03  0.20925227754E+03  0.41800000000E+01 0. -1.
         -5    1    3    3    0  502 -0.41846059242E+02 -0.17774687558E+02 -0.24723482232E+02  0.51920662222E+02  0.41800000000E+01 0. -1.
        -11    1    1    2    0    0  0.21836182871E+02 -0.37723101414E+02 -0.34006221556E+02  0.55283581353E+02  0.00000000000E+00 0.  1.
         11    1    1    2    0    0  0.56978710431E+01 -0.13006086386E+02  0.49879684547E+02  0.51861420613E+02  0.00000000000E+00 0. -1.
</event>
<event>
 7    1  0.6473813E-006  0.1011217E+03  0.7561462E-02  0.1277955E+00
         -3   -1    0    0    0  501 -0.00000000000E+00  0.00000000000E+00  0.26984396541E+03  0.26984396541E+03  0.00000000000E+00 0.  1.
          3   -1    0    0  501    0  0.00000000000E+00 -0.00000000000E+00 -0.62871987343E+02  0.62871987343E+02  0.00000000000E+00 0. -1.
         23    2    1    2    0    0  0.41454154760E+01 -0.68806538957E+02  0.14443470851E+03  0.20312726230E+03  0.12509106840E+03 0.  0.
          5    1    3    3  502    0 -0.91305757082E+01 -0.82793360939E+02  0.15835817198E+03  0.17897734790E+03  0.41800000000E+01 0.  1.
         -5    1    3    3    0  502  0.13275991184E+02  0.13986821982E+02 -0.13923463460E+02  0.24149914406E+02  0.41800000000E+01 0.  1.
        -11    1    1    2    0    0  0.28930997419E+02  0.82073309038E+01 -0.77617784470E+01  0.31058140589E+02  0.00000000000E+00 0.  1.
         11    1    1    2    0    0 -0.33076412895E+02  0.60599208053E+02  0.70299048000E+02  0.98530549863E+02  0.00000000000E+00 0. -1.
</event>
<event>
 7    1  0.6473813E-006  0.1855304E+03  0.7561462E-02  0.1162556E+00
          1   -1    0    0  501    0  0.00000000000E+00  0.00000000000E+00  0.35493632236E+03  0.35493632236E+03  0.00000000000E+00 0. -1.
         -1   -1    0    0    0  501 -0.00000000000E+00 -0.00000000000E+00 -0.12184378095E+03  0.12184378095E+03  0.00000000000E+00 0.  1.
         23    2    1    2    0    0 -0.37117078599E+02 -0.15310287052E+03  0.26408588283E+02  0.20288807654E+03  0.12509193252E+03 0.  0.
          5    1    3    3  502    0 -0.52479667891E+02 -0.12714889289E+02  0.29286797893E+02  0.61570876902E+02  0.41800000000E+01 0. -1.
         -5    1    3    3    0  502  0.15362589292E+02 -0.14038798123E+03 -0.28782096103E+01  0.14131719964E+03  0.41800000000E+01 0. -1.
        -11    1    1    2    0    0  0.61360190556E+02  0.10162973440E+03  0.11075228480E+03  0.16235684306E+03  0.00000000000E+00 0.  1.
         11    1    1    2    0    0 -0.24243111956E+02  0.51473136122E+02  0.95931668320E+02  0.11153518371E+03  0.00000000000E+00 0. -1.
</event>
<event>
 7    1  0.6473813E-006  0.1508192E+03  0.7561462E-02  0.1199470E+00
         -2   -1    0    0    0  501 -0.00000000000E+00  0.00000000000E+00  0.18094601307E+03  0.18094601307E+03  0.00000000000E+00 0.  1.
          2   -1    0    0  501    0  0.00000000000E+00 -0.00000000000E+00 -0.21422742935E+03  0.21422742935E+03  0.00000000000E+00 0. -1.
         23    2    1    2    0    0 -0.11243173812E+03 -0.36546456062E+02  0.95522670193E+02  0.19684746137E+03  0.12509118010E+03 0.  0.
          5    1    3    3  502    0  0.71333105940E+01  0.17860142470E+02  0.56376870239E+02  0.59713421498E+02  0.41800000000E+01 0. -1.
         -5    1    3    3    0  502 -0.11956504871E+03 -0.54406598532E+02  0.39145799954E+02  0.13713403987E+03  0.41800000000E+01 0. -1.
        -11    1    1    2    0    0  0.75401169617E+02 -0.24369166331E+02 -0.73796841219E+02  0.10828280760E+03  0.00000000000E+00 0. -1.
         11    1    1    2    0    0  0.37030568498E+02  0.60915622393E+02 -0.55007245263E+02  0.90043173457E+02  0.00000000000E+00 0.  1.
</event>
<event>
 7    1  0.6473813E-006  0.4303684E+02  0.7561462E-02  0.1486983E+00
         -1   -1    0    0    0  501 -0.00000000000E+00  0.00000000000E+00  0.22190624605E+02  0.22190624605E+02  0.00000000000E+00 0.  1.
          1   -1    0    0  501    0  0.00000000000E+00 -0.00000000000E+00 -0.53838417475E+03  0.53838417475E+03  0.00000000000E+00 0. -1.
         23    2    1    2    0    0 -0.38438300729E+01  0.58425709351E+01 -0.30003409267E+03  0.32514115510E+03  0.12508958113E+03 0.  0.
          5    1    3    3  502    0 -0.42316868723E+01  0.84228624776E+01 -0.31201560880E+03  0.31218594510E+03  0.41800000000E+01 0.  1.
         -5    1    3    3    0  502  0.38785679950E+00 -0.25802915425E+01  0.11981516125E+02  0.12955209994E+02  0.41800000000E+01 0.  1.
        -11    1    1    2    0    0 -0.33373208349E+02 -0.30968428083E+01 -0.28189609099E+02  0.43795154207E+02  0.00000000000E+00 0.  1.
         11    1    1    2    0    0  0.37217038422E+02 -0.27457281269E+01 -0.18796984837E+03  0.19163849005E+03  0.00000000000E+00 0. -1.
</event>
<event>
 7    1  0.6473813E-006  0.1919809E+03  0.7561462E-02  0.1156687E+00
         -3   -1    0    0    0  501 -0.00000000000E+00  0.00000000000E+00  0.22038332354E+03  0.22038332354E+03  0.00000000000E+00 0.  1.
          3   -1    0    0  501    0  0.00000000000E+00 -0.00000000000E+00 -0.22475134153E+03  0.22475134153E+03  0.00000000000E+00 0. -1.
         23    2    1    2    0    0 -0.14165606646E+03  0.10950710982E+03  0.70526743777E+02  0.22952447591E+03  0.12509682326E+03 0.  0.
          5    1    3    3  502    0 -0.12572542393E+03  0.68930725703E+02 -0.35332842736E+01  0.14348617936E+03  0.41800000000E+01 0. -1.
         -5    1    3    3    0  502 -0.15930642527E+02  0.40576384116E+02  0.74060028051E+02  0.86038296555E+02  0.41800000000E+01 0. -1.
        -11    1    1    2    0    0  0.11916043025E+03 -0.43267784682E+02 -0.71561210360E+02  0.14557580897E+03  0.00000000000E+00 0. -1.
         11    1    1    2    0    0  0.22495636214E+02 -0.66239325137E+02 -0.33335514108E+01  0.70034380188E+02  0.00000000000E+00 0.  1.
</event>
<event>
 6    1  0.6473813E-006  0.1118749E+03  0.7561462E-02  0.1257137E+00
          1   -1    0    0  501    0  0.00000000000E+00  0.00000000000E+00  0.26166268423E+03  0.26166268423E+03  0.00000000000E+00 0. -1.
         -1   -1    0    0    0  501 -0.00000000000E+00 -0.00000000000E+00 -0.83309751797E+02  0.83309751797E+02  0.00000000000E+00 0.  1.
          5    1    1    2  502    0  0.76032719770E+02  0.52045668824E+02  0.90558678847E+02  0.12925971079E+03  0.41800000000E+01 0. -1.
         -5    1    1    2    0  502 -0.74960486018E+02 -0.39116791689E+02 -0.53505849662E+01  0.84825108402E+02  0.41800000000E+01 0.  1.
        -11    1    1    2    0    0  0.13883781427E+02 -0.24357387083E+02 -0.70751376421E+01  0.28915381112E+02  0.00000000000E+00 0.  1.
         11    1    1    2    0    0 -0.14956015179E+02  0.11428509948E+02  0.10021997620E+03  0.10197223572E+03  0.00000000000E+00 0. -1.
</event>
<event>
 7    1  0.6473813E-006  0.1452065E+03  0.7561462E-02  0.1206490E+00
          1   -1    0    0  501    0  0.00000000000E+00  0.00000000000E+00  0.22958333075E+03  0.22958333075E+03  0.00000000000E+00 0. -1.
         -1   -1    0    0    0  501 -0.00000000000E+00 -0.00000000000E+00 -0.13485527656E+03  0.13485527656E+03  0.00000000000E+00 0.  1.
         23    2    1    2    0    0  0.91734282403E+02  0.74659776412E+02 -0.24262010499E+02  0.17384658239E+03  0.12507888821E+03 0.  0.
          5    1    3    3  502    0  0.91645948488E+02  0.94555585516E+02 -0.50115792524E+02  0.14095674403E+03  0.41800000000E+01 0. -1.
         -5    1    3    3    0  502  0.88333915626E-01 -0.19895809105E+02  0.25853782025E+02  0.32889838367E+02  0.41800000000E+01 0. -1.
        -11    1    1    2    0    0 -0.16654709646E+02  0.14283400087E+02 -0.28091712341E+01  0.22119817234E+02  0.00000000000E+00 0.  1.
         11    1    1    2    0    0 -0.75079572757E+02 -0.88943176498E+02  0.12179923592E+03  0.16847220769E+03  0.00000000000E+00 0. -1.
</event>
<event>
 7    1  0.6473813E-006  0.3444981E+03  0.7561462E-02  0.1064896E+00
          2   -1    0    0  501    0  0.00000000000E+00  0.00000000000E+00  0.24421007280E+04  0.24421007280E+04  0.00000000000E+00 0. -1.
         -2   -1    0    0    0  501 -0.00000000000E+00 -0.00000000000E+00 -0.54431250045E+02  0.54431250045E+02  0.00000000000E+00 0.  1.
         23    2    1    2    0    0  0.28713120871E+03 -0.16858200401E+03  0.15567979524E+04  0.15968977731E+04  0.12489359422E+03 0.  0.
          5    1    3    3  502    0  0.27813423046E+03 -0.18627637810E+03  0.14449076667E+04  0.14831834603E+04  0.41800000000E+01 0.  1.
         -5    1    3    3    0  502  0.89969782470E+01  0.17694374085E+02  0.11189028573E+03  0.11371431278E+03  0.41800000000E+01 0.  1.
        -11    1    1    2    0    0 -0.15394374051E+03  0.75630768698E+02  0.31329467645E+03  0.35717256713E+03  0.00000000000E+00 0.  1.
         11    1    1    2    0    0 -0.13318746819E+03  0.92951235314E+02  0.51757684908E+03  0.54246163785E+03  0.00000000000E+00 0. -1.
</event>
<event>
 7    1  0.6473813E-006  0.1039729E+03  0.7561462E-02  0.1272157E+00
         -2   -1    0    0    0  501 -0.00000000000E+00  0.00000000000E+00  0.62007458142E+02  0.62007458142E+02  0.00000000000E+00 0.  1.
          2   -1    0    0  501    0  0.00000000000E+00 -0.00000000000E+00 -0.24730080087E+03  0.24730080087E+03  0.00000000000E+00 0. -1.
         23    2    1    2    0    0 -0.25209869945E+02 -0.51859495220E+02 -0.10092429676E+03  0.17076295385E+03  0.12509727393E+03 0.  0.
          5    1    3    3  502    0 -0.10120577663E+02  0.20981623320E+02 -0.92853398267E+02  0.95822129903E+02  0.41800000000E+01 0. -1.
         -5    1    3    3    0  502 -0.15089292282E+02 -0.72841118540E+02 -0.80708984916E+01  0.74940823949E+02  0.41800000000E+01 0. -1.
        -11    1    1    2    0    0 -0.17601899523E+02  0.63101659521E+02 -0.53507005492E+02  0.84585140172E+02  0.00000000000E+00 0.  1.
         11    1    1    2    0    0  0.42811769468E+02 -0.11242164301E+02 -0.30862040477E+02  0.53960164988E+02  0.00000000000E+00 0. -1.
</event>
<event>
 7    1  0.6473813E-006  0.7712620E+02  0.7561462E-02  0.1337410E+00
         -2   -1    0    0    0  501 -0.00000000000E+00  0.00000000000E+00  0.35461817796E+03  0.35461817796E+03  0.00000000000E+00 0.  1.
          2   -1    0    0  501    0  0.00000000000E+00 -0.00000000000E+00 -0.37393613154E+02  0.37393613154E+02  0.00000000000E+00 0. -1.
         23    2    1    2    0    0  0.23154066773E+02  0.17613370644E+02  0.22551100664E+03  0.25952025129E+03  0.12509678285E+03 0.  0.
          5    1    3    3  502    0  0.11412929324E+02 -0.23704120013E+02 -0.31483527082E+01  0.26823959180E+02  0.41800000000E+01 0.  1.
         -5    1    3    3    0  502  0.11741137449E+02  0.41317490657E+02  0.22865935935E+03  0.23269629211E+03  0.41800000000E+01 0.  1.
        -11    1    1    2    0    0 -0.32098364348E+02  0.25144409055E+02  0.75667980876E+02  0.85954578880E+02  0.00000000000E+00 0. -1.
         11    1    1    2    0    0  0.89442975754E+01 -0.42757779698E+02  0.16045577293E+02  0.46536960951E+02  0.00000000000E+00 0.  1.
</event>
<event>
 7    1  0.6473813E-006  0.1014771E+03  0.7561462E-02  0.1277220E+00
          1   -1    0    0  501    0  0.00000000000E+00  0.00000000000E+00  0.20503065814E+03  0.20503065814E+03  0.00000000000E+00 0. -1.
         -1   -1    0    0    0  501 -0.00000000000E+00 -0.00000000000E+00 -0.76870661062E+02  0.76870661062E+02  0.00000000000E+00 0.  1.
         23    2    1    2    0    0 -0.48039634951E+02  0.15863311180E+02  0.24314689328E+02  0.13710623449E+03  0.12508982473E+03 0.  0.
          5    1    3    3  502    0 -0.32701009103E+02  0.52577852527E+02  0.57896278673E+02  0.84871892030E+02  0.41800000000E+01 0.  1.
         -5    1    3    3    0  502 -0.15338625848E+02 -0.36714541347E+02 -0.33581589345E+02  0.52234342459E+02  0.41800000000E+01 0.  1.
        -11    1    1    2    0    0  0.41827601731E+02  0.31973504133E+02  0.55553202069E+02  0.76537647555E+02  0.00000000000E+00 0.  1.
         11    1    1    2    0    0  0.62120332201E+01 -0.47836815313E+02  0.48292105678E+02  0.68257437154E+02  0.00000000000E+00 0. -1.
</event>
<event>
 7    1  0.6473813E-006  0.1035569E+03  0.7561462E-02  0.1272989E+00
         -1   -1    0    0    0  501 -0.00000000000E+00  0.00000000000E+00  0.51862512022E+02  0.51862512022E+02  0.00000000000E+00 0.  1.
          1   -1    0    0  501    0  0.00000000000E+00 -0.00000000000E+00 -0.30842350691E+03  0.30842350691E+03  0.00000000000E+00 0. -1.
         23    2    1    2    0    0 -0.63515925662E+02  0.53629991686E+01 -0.12424329556E+03  0.18748116683E+03  0.12509898821E+03 0.  0.
          5    1    3    3  502    0 -0.34063516637E+02 -0.46735852407E+02 -0.10556968798E+02  0.58936279625E+02  0.41800000000E+01 0. -1.
         -5    1    3    3    0  502 -0.29452409025E+02  0.52098851575E+02 -0.11368632676E+03  0.12854488720E+03  0.41800000000E+01 0. -1.
        -11    1    1    2    0    0 -0.11953906316E+02  0.50037271091E+01  0.64705175352E+01  0.14484500626E+02  0.00000000000E+00 0.  1.
         11    1    1    2    0    0  0.75469831978E+02 -0.10366726278E+02 -0.13878821686E+03  0.15832035148E+03  0.00000000000E+00 0. -1.
</event>
<event>
 7    1  0.6473813E-006  0.1680482E+03  0.7561462E-02  0.1179899E+00
         -1   -1    0    0    0  501 -0.00000000000E+00  0.00000000000E+00  0.45124901857E+02  0.45124901857E+02  0.00000000000E+00 0.  1.
          1   -1    0    0  501    0  0.00000000000E+00 -0.00000000000E+00 -0.84135144251E+03  0.84135144251E+03  0.00000000000E+00 0. -1.
         23    2    1    2    0    0  0.12939998670E+03  0.69086925716E+02 -0.26901017102E+03  0.33095451393E+03  0.12508820214E+03 0.  0.
          5    1    3    3  502    0  0.22191187031E+02  0.53260109417E+02 -0.23283132313E+02  0.62359158808E+02  0.41800000000E+01 0. -1.
         -5    1    3    3    0  502  0.10720879967E+03  0.15826816298E+02 -0.24572703871E+03  0.26859535512E+03  0.41800000000E+01 0. -1.
        -11    1    1    2    0    0 -0.53060227155E+02 -0.76496381220E+02 -0.35488940804E+03  0.36689722810E+03  0.00000000000E+00 0. -1.
         11    1    1    2    0    0 -0.76339759541E+02  0.74094555038E+01 -0.17232696159E+03  0.18862460234E+03  0.00000000000E+00 0.  1.
</event>
<event>
 7    1  0.6473813E-006  0.2021968E+03  0.7561462E-02  0.1147899E+00
         -2   -1    0    0    0  501 -0.00000000000E+00  0.00000000000E+00  0.79761143952E+02  0.79761143952E+02  0.00000000000E+00 0.  1.
          2   -1    0    0  501    0  0.00000000000E+00 -0.00000000000E+00 -0.53223118229E+03  0.53223118229E+03  0.00000000000E+00 0. -1.
         23    2    1    2    0    0 -0.17403691221E+03  0.60444673439E+01 -0.20705592654E+03  0.29806779484E+03  0.12508745423E+03 0.  0.
          5    1    3    3  502    0 -0.12110075617E+03  0.59331493131E+02 -0.10336851049E+03  0.16996511578E+03  0.41800000000E+01 0.  1.
         -5    1    3    3    0  502 -0.52936156044E+02 -0.53287025788E+02 -0.10368741605E+03  0.12810267906E+03  0.41800000000E+01 0.  1.
        -11    1    1    2    0    0  0.64551917276E+02  0.39487363103E+02 -0.77040304322E+02  0.10798801025E+03  0.00000000000E+00 0.  1.
         11    1    1    2    0    0  0.10948499493E+03 -0.45531830447E+02 -0.16837380747E+03  0.20593652115E+03  0.00000000000E+00 0. -1.
</event>
<event>
 7    1  0.6473813E-006  0.1654692E+03  0.7561462E-02  0.1182657E+00
          2   -1    0    0  501    0  0.00000000000E+00  0.00000000000E+00  0.84032522227E+02  0.84032522227E+02  0.00000000000E+00 0.  1.
         -2   -1    0    0    0  501 -0.00000000000E+00 -0.00000000000E+00 -0.36690359291E+03  0.36690359291E+03  0.00000000000E+00 0. -1.
         23    2    1    2    0    0  0.89339141406E+01 -0.13373864265E+03 -0.10547616457E+03  0.21150012946E+03  0.12506495955E+03 0.  0.
          5    1    3    3  502    0  0.56761943517E+01 -0.15315867473E+03 -0.11251378240E+03  0.19017524144E+03  0.41800000000E+01 0.  1.
         -5    1    3    3    0  502  0.32577197890E+01  0.19420032079E+02  0.70376178240E+01  0.21324888014E+02  0.41800000000E+01 0.  1.
        -11    1    1    2    0    0  0.34956106811E+02  0.84956780042E+02 -0.12676927887E+03  0.15655680740E+03  0.00000000000E+00 0. -1.
         11    1    1    2    0    0 -0.43890020951E+02  0.48781862613E+02 -0.50625627243E+02  0.82879178282E+02  0.00000000000E+00 0.  1.
</event>
<event>
 7    1  0.6473813E-006  0.1367905E+03  0.7561462E-02  0.1217714E+00
         -2   -1    0    0    0  501 -0.00000000000E+00  0.00000000000E+00  0.22445481771E+03  0.22445481771E+03  0.00000000000E+00 0.  1.
          2   -1    0    0  501    0  0.00000000000E+00 -0.00000000000E+00 -0.92724664809E+02  0.92724664809E+02  0.00000000000E+00 0. -1.
         23    2    1    2    0    0  0.65477695249E+02  0.53153842396E+02  0.26363591184E+02  0.15315087101E+03  0.12508993091E+03 0.  0.
          5    1    3    3  502    0 -0.15800998783E+02 -0.30216933258E+02  0.57295797543E+01  0.34828653466E+02  0.41800000000E+01 0. -1.
         -5    1    3    3    0  502  0.81278694032E+02  0.83370775655E+02  0.20634011430E+02  0.11832221754E+03  0.41800000000E+01 0. -1.
        -11    1    1    2    0    0  0.97308107077E+01 -0.46171441363E+02  0.58419610153E+02  0.75095549303E+02  0.00000000000E+00 0.  1.
         11    1    1    2    0    0 -0.75208505957E+02 -0.69824010331E+01  0.46946951565E+02  0.88933062208E+02  0.00000000000E+00 0. -1.
</event>
<event>
 7    1  0.6473813E-006  0.1059979E+03  0.7561462E-02  0.1268166E+00
         -1   -1    0    0    0  501 -0.00000000000E+00  0.00000000000E+00  0.26592052575E+02  0.26592052575E+02  0.00000000000E+00 0.  1.
          1   -1    0    0  501    0  0.00000000000E+00 -0.00000000000E+00 -0.44009935817E+03  0.44009935817E+03  0.00000000000E+00 0. -1.
         23    2    1    2    0    0  0.30925188869E+02 -0.54363442033E+01 -0.21476430892E+03  0.24574958347E+03  0.11525288823E+03 0.  0.
          5    1    3    3  502    0  0.67747428946E+02 -0.27503234374E+02 -0.16059852394E+03  0.17650920747E+03  0.41800000000E+01 0. -1.
         -5    1    3    3    0  502 -0.36822240077E+02  0.22066890171E+02 -0.54165784983E+02  0.69240376002E+02  0.41800000000E+01 0.  1.
        -11    1    1    2    0    0  0.20942919090E+02 -0.27213502772E+02 -0.57478345605E+02  0.66954766870E+02  0.00000000000E+00 0. -1.
         11    1    1    2    0    0 -0.51868107958E+02  0.32649846975E+02 -0.14126465107E+03  0.15398706041E+03  0.00000000000E+00 0.  1.
</event>
<event>
 7    1  0.6473813E-006  0.1422305E+03  0.7561462E-02  0.1210359E+00
          3   -1    0    0  501    0  0.00000000000E+00  0.00000000000E+00  0.35089991856E+02  0.35089991856E+02  0.00000000000E+00 0. -1.
         -3   -1    0    0    0  501 -0.00000000000E+00 -0.00000000000E+00 -0.65322684888E+03  0.65322684888E+03  0.00000000000E+00 0.  1.
         23    2    1    2    0    0  0.30655664197E+02 -0.99228761118E+02 -0.37680409621E+03  0.41038428575E+03  0.12509123987E+03 0.  0.
          5    1    3    3  502    0  0.15992552697E+01  0.28852304294E+02 -0.46550041766E+02  0.54948993339E+02  0.41800000000E+01 0. -1.
         -5    1    3    3    0  502  0.29056408927E+02 -0.12808106541E+03 -0.33025405445E+03  0.35543529241E+03  0.41800000000E+01 0. -1.
        -11    1    1    2    0    0 -0.27408964553E+02  0.10960977923E+03 -0.24195783069E+03  0.26703772556E+03  0.00000000000E+00 0.  1.
         11    1    1    2    0    0 -0.32466996445E+01 -0.10381018115E+02  0.62506987997E+00  0.10894829418E+02  0.00000000000E+00 0. -1.
</event>
<event>
 7    1  0.6473813E-006  0.1168735E+03  0.7561462E-02  0.1248346E+00
         -1   -1    0    0    0  501 -0.00000000000E+00  0.00000000000E+00  0.83403294648E+03  0.83403294648E+03  0.00000000000E+00 0.  1.
          1   -1    0    0  501    0  0.00000000000E+00 -0.00000000000E+00 -0.17554489721E+02  0.17554489721E+02  0.00000000000E+00 0. -1.
         23    2    1    2    0    0  0.85158785668E+01  0.44388647569E+02  0.55767320792E+03  0.57331431145E+03  0.12508805163E+03 0.  0.
          5    1    3    3  502    0 -0.42072272794E+02  0.64315526061E+02  0.36770979893E+03  0.37567876126E+03  0.41800000000E+01 0. -1.
         -5    1    3    3    0  502  0.50588151361E+02 -0.19926878492E+02  0.18996340899E+03  0.19763555019E+03  0.41800000000E+01 0. -1.
        -11    1    1    2    0    0 -0.19225603884E+01 -0.72929534168E+02  0.18602343225E+03  0.19981774331E+03  0.00000000000E+00 0.  1.
         11    1    1    2    0    0 -0.65933181784E+01  0.28540886599E+02  0.72781816588E+02  0.78455381449E+02  0.00000000000E+00 0. -1.
</event>
<event>
 7    1  0.6473813E-006  0.1175481E+03  0.7561462E-02  0.1247198E+00
         -1   -1    0    0    0  501 -0.00000000000E+00  0.00000000000E+00  0.35732869277E+03  0.35732869277E+03  0.00000000000E+00 0.  1.
          1   -1    0    0  501    0  0.00000000000E+00 -0.00000000000E+00 -0.40936650018E+02  0.40936650018E+02  0.00000000000E+00 0. -1.
         23    2    1    2    0    0  0.27008814442E+02 -0.46120761047E+02  0.17830494427E+03  0.22428314032E+03  0.12511464033E+03 0.  0.
          5    1    3    3  502    0  0.66963240068E+02  0.40510754519E+01  0.62221868676E+02  0.91594323374E+02  0.41800000000E+01 0. -1.
         -5    1    3    3    0  502 -0.39954425626E+02 -0.50171836499E+02  0.11608307559E+03  0.13268881695E+03  0.41800000000E+01 0. -1.
        -11    1    1    2    0    0  0.31594242990E+02  0.28136382957E+02  0.74393494905E+02  0.85581799001E+02  0.00000000000E+00 0.  1.
         11    1    1    2    0    0 -0.58603057433E+02  0.17984378089E+02  0.63693603581E+02  0.88400403466E+02  0.00000000000E+00 0. -1.
</event>
<event>
 7    1  0.6473813E-006  0.8576022E+02  0.7561462E-02  0.1313456E+00
          2   -1    0    0  501    0  0.00000000000E+00  0.00000000000E+00  0.43386367202E+03  0.43386367202E+03  0.00000000000E+00 0. -1.
         -2   -1    0    0    0  501 -0.00000000000E+00 -0.00000000000E+00 -0.31443403966E+02  0.31443403966E+02  0.00000000000E+00 0.  1.
         23    2    1    2    0    0  0.17897145280E+02  0.19844224179E+02  0.15919622959E+03  0.20421828547E+03  0.12509023767E+03 0.  0.
          5    1    3    3  502    0  0.46397833566E+02  0.13466198981E+02  0.16683705743E+03  0.17374168644E+03  0.41800000000E+01 0. -1.
         -5    1    3    3    0  502 -0.28500688286E+02  0.63780251979E+01 -0.76408278413E+01  0.30476599028E+02  0.41800000000E+01 0. -1.
        -11    1    1    2    0    0  0.30595835732E+02  0.14740819697E+02  0.67829958264E+02  0.75857103606E+02  0.00000000000E+00 0.  1.
         11    1    1    2    0    0 -0.48492981011E+02 -0.34585043876E+02  0.17539408020E+03  0.18523168692E+03  0.00000000000E+00 0. -1.
</event>
<event>
 7    1  0.6473813E-006  0.7764825E+02  0.7561462E-02  0.1335861E+00
          2   -1    0    0  501    0  0.00000000000E+00  0.00000000000E+00  0.13230034736E+03  0.13230034736E+03  0.00000000000E+00 0. -1.
         -2   -1    0    0    0  501 -0.00000000000E+00 -0.00000000000E+00 -0.12787678213E+03  0.12787678213E+03  0.00000000000E+00 0.  1.
         23    2    1    2    0    0  0.42273891856E+02  0.61039326031E+02 -0.56441008001E+01  0.14557452165E+03  0.12508878537E+03 0.  0.
          5    1    3    3  502    0  0.33070424827E+02  0.54351444431E+02  0.54710743717E+02  0.84014703403E+02  0.41800000000E+01 0.  1.
         -5    1    3    3    0  502  0.92034670294E+01  0.66878816001E+01 -0.60354844517E+02  0.61559818244E+02  0.41800000000E+01 0.  1.
        -11    1    1    2    0    0 -0.76871700144E+01 -0.35760008205E+02 -0.36259454000E+02  0.51503580206E+02  0.00000000000E+00 0.  1.
         11    1    1    2    0    0 -0.34586721842E+02 -0.25279317826E+02  0.46327120036E+02  0.63099027634E+02  0.00000000000E+00 0. -1.
</event>
<event>
 7    1  0.6473813E-006  0.1119064E+03  0.7561462E-02  0.1257080E+00
         -1   -1    0    0    0  501 -0.00000000000E+00  0.00000000000E+00  0.20686111304E+02  0.20686111304E+02  0.00000000000E+00 0.  1.
          1   -1    0    0  501    0  0.00000000000E+00 -0.00000000000E+00 -0.76085251031E+03  0.76085251031E+03  0.00000000000E+00 0. -1.
         23    2    1    2    0    0  0.32427808762E+02  0.15151129359E+02 -0.24423040615E+03  0.27672489363E+03  0.12508819274E+03 0.  0.
          5    1    3    3  502    0  0.79427233471E+02  0.21758176347E+02 -0.15380999792E+03  0.17451960210E+03  0.41800000000E+01 0. -1.
         -5    1    3    3    0  502 -0.46999424709E+02 -0.66070469878E+01 -0.90420408225E+02  0.10220529153E+03  0.41800000000E+01 0. -1.
        -11    1    1    2    0    0 -0.69108614469E+01  0.35940420433E+02 -0.16777293573E+03  0.17171846666E+03  0.00000000000E+00 0. -1.
         11    1    1    2    0    0 -0.25516947315E+02 -0.51091549792E+02 -0.32816305712E+03  0.33309526133E+03  0.00000000000E+00 0.  1.
</event>
<event>
 6    1  0.6473813E-006  0.1270478E+03  0.7561462E-02  0.1231903E+00
          2   -1    0    0  501    0  0.00000000000E+00  0.00000000000E+00  0.40641529169E+03  0.40641529169E+03  0.00000000000E+00 0. -1.
         -2   -1    0    0    0  501 -0.00000000000E+00 -0.00000000000E+00 -0.60362605819E+02  0.60362605819E+02  0.00000000000E+00 0.  1.
          5    1    1    2  502    0 -0.13390190780E+02 -0.27558776442E+02  0.13590510905E+03  0.13937881631E+03  0.41800000000E+01 0. -1.
         -5    1    1    2    0  502  0.20523530014E+02  0.11653366800E+03  0.71295084471E+02  0.13820916226E+03  0.41800000000E+01 0.  1.
        -11    1    1    2    0    0  0.21598437973E+02 -0.17704668237E+02 -0.27683636175E+01  0.28064419419E+02  0.00000000000E+00 0. -1.
         11    1    1    2    0    0 -0.28731777207E+02 -0.71270223321E+02  0.14162085597E+03  0.16112549953E+03  0.00000000000E+00 0.  1.
</event>
<event>
 7    1  0.6473813E-006  0.7980255E+02  0.7561462E-02  0.1329613E+00
          2   -1    0    0  501    0  0.00000000000E+00  0.00000000000E+00  0.97921077833E+02  0.97921077833E+02  0.00000000000E+00 0. -1.
         -2   -1    0    0    0  501 -0.00000000000E+00 -0.00000000000E+00 -0.15245208793E+03  0.15245208793E+03  0.00000000000E+00 0.  1.
         23    2    1    2    0    0  0.16854063691E+02  0.53062511453E+02 -0.51417516433E+02  0.14625743218E+03  0.12509111034E+03 0.  0.
          5    1    3    3  502    0 -0.11180070682E+02  0.48906738590E+02  0.30919522382E+02  0.59079203823E+02  0.41800000000E+01 0.  1.
         -5    1    3    3    0  502  0.28034134372E+02  0.41557728626E+01 -0.82337038815E+02  0.87178228354E+02  0.41800000000E+01 0.  1.
        -11    1    1    2    0    0 -0.33266134191E+02 -0.54805512411E+02  0.27166644790E+02  0.69629781443E+02  0.00000000000E+00 0. -1.
         11    1    1    2    0    0  0.16412070500E+02  0.17430009585E+01 -0.30280138453E+02  0.34485952142E+02  0.00000000000E+00 0.  1.
</event>
<event>
 7    1  0.6473813E-006  0.4725743E+02  0.7561462E-02  0.1460722E+00
         -2   -1    0    0    0  501 -0.00000000000E+00  0.00000000000E+00  0.21388416771E+02  0.21388416771E+02  0.00000000000E+00 0.  1.
          2   -1    0    0  501    0  0.00000000000E+00 -0.00000000000E+00 -0.42439565993E+03  0.42439565993E+03  0.00000000000E+00 0. -1.
         23    2    1    2    0    0  0.43321270978E+02 -0.11667269876E+02 -0.22665732037E+03  0.26274275808E+03  0.12508940139E+03 0.  0.
          5    1    3    3  502    0  0.23970663977E+02 -0.49033338590E+01 -0.23776442360E+03  0.23905653922E+03  0.41800000000E+01 0.  1.
         -5    1    3    3    0  502  0.19350607001E+02 -0.67639360169E+01  0.11107103230E+02  0.23686218860E+02  0.41800000000E+01 0.  1.
        -11    1    1    2    0    0 -0.13224684035E+02  0.13136612993E+02 -0.58364705765E+02  0.61269092925E+02  0.00000000000E+00 0.  1.
         11    1    1    2    0    0 -0.30096586943E+02 -0.14693431173E+01 -0.11798521702E+03  0.12177222569E+03  0.00000000000E+00 0. -1.
</event>
<event>
 7    1  0.6473813E-006  0.1321368E+03  0.7561462E-02  0.1224319E+00
         -1   -1    0    0    0  501 -0.00000000000E+00  0.00000000000E+00  0.96508748902E+03  0.96508748902E+03  0.00000000000E+00 0.  1.
          1   -1    0    0  501    0  0.00000000000E+00 -0.00000000000E+00 -0.29675141731E+02  0.29675141731E+02  0.00000000000E+00 0. -1.
         23    2    1    2    0    0  0.53222902971E+02 -0.94423289254E+02  0.69829467211E+03  0.71764313854E+03  0.12509112774E+03 0.  0.
          5    1    3    3  502    0  0.18170738932E+02  0.16845076276E+01  0.89753977458E+01  0.20761586740E+02  0.41800000000E+01 0.  1.
         -5    1    3    3    0  502  0.35052164039E+02 -0.96107796882E+02  0.68931927437E+03  0.69688155180E+03  0.41800000000E+01 0.  1.
        -11    1    1    2    0    0 -0.51271889281E+02  0.26159006600E+01  0.77191537587E+02  0.92704816713E+02  0.00000000000E+00 0. -1.
         11    1    1    2    0    0 -0.19510136900E+01  0.91807388594E+02  0.15992613759E+03  0.18441467550E+03  0.00000000000E+00 0.  1.
</event>
<event>
 7    1  0.6473813E-006  0.1219251E+03  0.7561462E-02  0.1239955E+00
         -3   -1    0    0    0  501 -0.00000000000E+00  0.00000000000E+00  0.16193153644E+03  0.16193153644E+03  0.00000000000E+00 0.  1.
          3   -1    0    0  501    0  0.00000000000E+00 -0.00000000000E+00 -0.13415878376E+03  0.13415878376E+03  0.00000000000E+00 0. -1.
         23    2    1    2    0    0 -0.34858088607E+02  0.51176546019E+02  0.92862735880E+02  0.16764547043E+03  0.12508953128E+03 0.  0.
          5    1    3    3  502    0 -0.11759111631E+02  0.90598571336E+02  0.75486707915E+02  0.11858369747E+03  0.41800000000E+01 0.  1.
         -5    1    3    3    0  502 -0.23098976976E+02 -0.39422025317E+02  0.17376027964E+02  0.49061772953E+02  0.41800000000E+01 0.  1.
        -11    1    1    2    0    0  0.25496561745E+02 -0.75905297522E+02 -0.63065221389E+02  0.10192600748E+03  0.00000000000E+00 0. -1.
         11    1    1    2    0    0  0.93615268622E+01  0.24728751503E+02 -0.20247618156E+01  0.26518842292E+02  0.00000000000E+00 0.  1.
</event>
<event>
 6    1  0.6473813E-006  0.1395105E+03  0.7561462E-02  0.1213989E+00
         -2   -1    0    0    0  501 -0.00000000000E+00  0.00000000000E+00  0.25108216453E+02  0.25108216453E+02  0.00000000000E+00 0.  1.
          2   -1    0    0  501    0  0.00000000000E+00 -0.00000000000E+00 -0.97254847921E+03  0.97254847921E+03  0.00000000000E+00 0. -1.
          5    1    1    2  502    0 -0.42265545501E+02 -0.51443645509E+02 -0.36215859569E+03  0.36825147091E+03  0.41800000000E+01 0. -1.
         -5    1    1    2    0  502  0.35781102082E+02  0.10909045030E+03 -0.19658231517E+03  0.22769078298E+03  0.41800000000E+01 0.  1.
        -11    1    1    2    0    0  0.15891207626E+02 -0.75549211053E+02 -0.34543296480E+03  0.35395500694E+03  0.00000000000E+00 0. -1.
         11    1    1    2    0    0 -0.94067642068E+01  0.17902406259E+02 -0.43266387100E+02  0.47759434831E+02  0.00000000000E+00 0.  1.
</event>
<event>
 6    1  0.6473813E-006  0.1405132E+03  0.7561462E-02  0.1212640E+00
         -2   -1    0    0    0  501 -0.00000000000E+00  0.00000000000E+00  0.99211051100E+02  0.99211051100E+02  0.00000000000E+00 0.  1.
          2   -1    0    0  501    0  0.00000000000E+00 -0.00000000000E+00 -0.26538563657E+03  0.26538563657E+03  0.00000000000E+00 0. -1.
          5    1    1    2  502    0  0.36740059918E+02 -0.48760645722E+02  0.13672396552E+02  0.62704381039E+02  0.41800000000E+01 0. -1.
         -5    1    1    2    0  502 -0.90840201953E+02 -0.22135619012E+02 -0.15976752232E+02  0.94945547193E+02  0.41800000000E+01 0.  1.
        -11    1    1    2    0    0 -0.20313805378E+02  0.41545844395E+02 -0.64893517281E+02  0.79686112094E+02  0.00000000000E+00 0.  1.
         11    1    1    2    0    0  0.74413947413E+02  0.29350420339E+02 -0.98976712513E+02  0.12726064735E+03  0.00000000000E+00 0. -1.
</event>
<event>
 7    1  0.6473813E-006  0.1187797E+03  0.7561462E-02  0.1245124E+00
          1   -1    0    0  501    0  0.00000000000E+00  0.00000000000E+00  0.17641313527E+03  0.17641313527E+03  0.00000000000E+00 0. -1.
         -1   -1    0    0    0  501 -0.00000000000E+00 -0.00000000000E+00 -0.24515508834E+03  0.24515508834E+03  0.00000000000E+00 0.  1.
         23    2    1    2    0    0  0.48035398316E+02 -0.94018277430E+02 -0.18462555391E+03  0.24056356334E+03  0.11241617707E+03 0.  0.
          5    1    3    3  502    0  0.28440932276E+01 -0.21404104975E+02 -0.14420534322E+03  0.14587281443E+03  0.41800000000E+01 0.  1.
         -5    1    3    3    0  502  0.45191305089E+02 -0.72614172454E+02 -0.40420210692E+02  0.94690748911E+02  0.41800000000E+01 0. -1.
        -11    1    1    2    0    0 -0.65530053555E+02  0.49564076960E+02  0.10255191442E+03  0.13140654776E+03  0.00000000000E+00 0. -1.
         11    1    1    2    0    0  0.17494655238E+02  0.44454200470E+02  0.13331686424E+02  0.49598112507E+02  0.00000000000E+00 0.  1.
</event>
<event>
 7    1  0.6473813E-006  0.1260072E+03  0.7561462E-02  0.1233504E+00
         -1   -1    0    0    0  501 -0.00000000000E+00  0.00000000000E+00  0.84384114847E+03  0.84384114847E+03  0.00000000000E+00 0.  1.
          1   -1    0    0  501    0  0.00000000000E+00 -0.00000000000E+00 -0.24334802189E+02  0.24334802189E+02  0.00000000000E+00 0. -1.
         23    2    1    2    0    0 -0.62434862251E+02 -0.36729774185E+02  0.62950611449E+03  0.64588868694E+03  0.12508820649E+03 0.  0.
          5    1    3    3  502    0 -0.88654010997E+02  0.31530128396E+01  0.49953273861E+03  0.50736565168E+03  0.41800000000E+01 0.  1.
         -5    1    3    3    0  502  0.26219148746E+02 -0.39882787024E+02  0.12997337588E+03  0.13852303526E+03  0.41800000000E+01 0.  1.
        -11    1    1    2    0    0  0.85530042258E+02  0.33991409016E+02  0.15495133040E+03  0.18022407943E+03  0.00000000000E+00 0. -1.
         11    1    1    2    0    0 -0.23095180007E+02  0.27383651689E+01  0.35048901396E+02  0.42063184287E+02  0.00000000000E+00 0.  1.
</event>
<event>
 7    1  0.6473813E-006  0.1566929E+03  0.7561462E-02  0.1192482E+00
          1   -1    0    0  501    0  0.00000000000E+00  0.00000000000E+00  0.10200363514E+04  0.10200363514E+04  0.00000000000E+00 0. -1.
         -1   -1    0    0    0  501 -0.00000000000E+00 -0.00000000000E+00 -0.37488548297E+02  0.37488548297E+02  0.00000000000E+00 0.  1.
         23    2    1    2    0    0 -0.19034068757E+02  0.14345810841E+03  0.31516157344E+03  0.36866906870E+03  0.12509012831E+03 0.  0.
          5    1    3    3  502    0 -0.18754693553E+02  0.74971571717E+02  0.28206321709E+03  0.29248864240E+03  0.41800000000E+01 0. -1.
         -5    1    3    3    0  502 -0.27937520439E+00  0.68486536694E+02  0.33098356353E+02  0.76180426305E+02  0.41800000000E+01 0. -1.
        -11    1    1    2    0    0  0.43654897575E+02 -0.34416749610E+02  0.16260266617E+03  0.17184263086E+03  0.00000000000E+00 0. -1.
         11    1    1    2    0    0 -0.24620828818E+02 -0.10904135880E+03  0.50478356348E+03  0.51701320012E+03  0.00000000000E+00 0.  1.
</event>
<event>
 7    1  0.6473813E-006  0.1335824E+03  0.7561462E-02  0.1222235E+00
         -1   -1    0    0    0  501 -0.00000000000E+00  0.00000000000E+00  0.21196665890E+02  0.21196665890E+02  0.00000000000E+00 0.  1.
          1   -1    0    0  501    0  0.00000000000E+00 -0.00000000000E+00 -0.91040511065E+03  0.91040511065E+03  0.00000000000E+00 0. -1.
         23    2    1    2    0    0  0.82428457969E+02  0.75528382692E+01 -0.55282342541E+03  0.57281286204E+03  0.12509731884E+03 0.  0.
          5    1    3    3  502    0  0.15346402719E+02 -0.51079477174E+02 -0.29963890923E+03  0.30437735361E+03  0.41800000000E+01 0. -1.
         -5    1    3    3    0  502  0.67082055249E+02  0.58632315443E+02 -0.25318451618E+03  0.26843550843E+03  0.41800000000E+01 0. -1.
        -11    1    1    2    0    0 -0.48519901012E+01 -0.40066893054E+02 -0.12147491120E+03  0.12800410844E+03  0.00000000000E+00 0. -1.
         11    1    1    2    0    0 -0.77576467868E+02  0.32514054784E+02 -0.21491010815E+03  0.23078480607E+03  0.00000000000E+00 0.  1.
</event>
<event>
 7    1  0.6473813E-006  0.7601206E+02  0.7561462E-02  0.1340765E+00
          1   -1    0    0  501    0  0.00000000000E+00  0.00000000000E+00  0.96501539984E+03  0.96501539984E+03  0.00000000000E+00 0. -1.
         -1   -1    0    0    0  501 -0.00000000000E+00 -0.00000000000E+00 -0.13959778356E+02  0.13959778356E+02  0.00000000000E+00 0.  1.
         23    2    1    2    0    0 -0.34679010794E+02  0.14416745627E+02  0.45052924609E+03  0.46907892340E+03  0.12509180010E+03 0.  0.
          5    1    3    3  502    0 -0.10579082870E+02  0.25916663037E+02  0.43863851547E+03  0.43955069113E+03  0.41800000000E+01 0.  1.
         -5    1    3    3    0  502 -0.24099927924E+02 -0.11499917410E+02  0.11890730618E+02  0.29528232270E+02  0.41800000000E+01 0.  1.
        -11    1    1    2    0    0  0.64178612210E+02 -0.75447440804E+00  0.35813585169E+03  0.36384165754E+03  0.00000000000E+00 0.  1.
         11    1    1    2    0    0 -0.29499601417E+02 -0.13662271219E+02  0.14239052370E+03  0.14605459725E+03  0.00000000000E+00 0. -1.
</event>
<event>
 7    1  0.6473813E-006  0.1067467E+03  0.7561462E-02  0.1266716E+00
          2   -1    0    0  501    0  0.00000000000E+00  0.00000000000E+00  0.20144235197E+03  0.20144235197E+03  0.00000000000E+00 0.  1.
         -2   -1    0    0    0  501 -0.00000000000E+00 -0.00000000000E+00 -0.75617523333E+02  0.75617523333E+02  0.00000000000E+00 0. -1.
         23    2    1    2    0    0 -0.16096974277E+02 -0.56876052684E+02  0.67798229910E+02  0.15407255282E+03  0.12509098130E+03 0.  0.
          5    1    3    3  502    0 -0.32774155971E+02  0.31537501047E+02  0.37328611089E+02  0.58988616510E+02  0.41800000000E+01 0. -1.
         -5    1    3    3    0  502  0.16677181694E+02 -0.88413553731E+02  0.30469618822E+02  0.95083936308E+02  0.41800000000E+01 0. -1.
        -11    1    1    2    0    0 -0.17717981055E+02  0.11363528595E+02 -0.18309326267E+02  0.27897814666E+02  0.00000000000E+00 0.  1.
         11    1    1    2    0    0  0.33814955332E+02  0.45512524089E+02  0.76335924998E+02  0.95089507825E+02  0.00000000000E+00 0. -1.
</event>
<event>
 6    1  0.6473813E-006  0.1611127E+03  0.7561462E-02  0.1187446E+00
          2   -1    0    0  501    0  0.00000000000E+00  0.00000000000E+00  0.67893753811E+03  0.67893753811E+03  0.00000000000E+00 0. -1.
         -2   -1    0    0    0  501 -0.00000000000E+00 -0.00000000000E+00 -0.57174219621E+02  0.57174219621E+02  0.00000000000E+00 0.  1.
          5    1    1    2  502    0 -0.11653650676E+03 -0.61052070133E+02  0.17217404684E+03  0.21672445058E+03  0.41800000000E+01 0. -1.
         -5    1    1    2    0  502  0.82001559905E+02  0.12621284623E+02  0.33549033866E+02  0.89591086196E+02  0.41800000000E+01 0.  1.
        -11    1    1    2    0    0 -0.26896781842E+02  0.35852477810E+02  0.19046921953E+03  0.19567156315E+03  0.00000000000E+00 0. -1.
         11    1    1    2    0    0  0.61431728692E+02  0.12578307700E+02  0.22557101825E+03  0.23412465780E+03  0.00000000000E+00 0.  1.
</event>
<event>
 6    1  0.6473813E-006  0.1591357E+03  0.7561462E-02  0.1189676E+00
          1   -1    0    0  501    0  0.00000000000E+00  0.00000000000E+00  0.73499498986E+02  0.73499498986E+02  0.00000000000E+00 0. -1.
         -1   -1    0    0    0  501 -0.00000000000E+00 -0.00000000000E+00 -0.46198334917E+03  0.46198334917E+03  0.00000000000E+00 0.  1.
          5    1    1    2  502    0 -0.16556149709E+01 -0.12874033798E+03 -0.17087851373E+03  0.21399475353E+03  0.41800000000E+01 0. -1.
         -5    1    1    2    0  502  0.21305607921E+02  0.11349224417E+03 -0.19166095518E+03  0.22379859820E+03  0.41800000000E+01 0.  1.
        -11    1    1    2    0    0 -0.10816441726E+02 -0.27866433980E+02  0.18490477835E+02  0.35148703034E+02  0.00000000000E+00 0.  1.
         11    1    1    2    0    0 -0.88335512235E+01  0.43114527789E+02 -0.44434859117E+02  0.62540793395E+02  0.00000000000E+00 0. -1.
</event>
<event>
 7    1  0.6473813E-006  0.7916414E+02  0.7561462E-02  0.1331440E+00
          3   -1    0    0  501    0  0.00000000000E+00  0.00000000000E+00  0.15758962023E+03  0.15758962023E+03  0.00000000000E+00 0. -1.
         -3   -1    0    0    0  501 -0.00000000000E+00 -0.00000000000E+00 -0.81530037055E+02  0.81530037055E+02  0.00000000000E+00 0.  1.
         23    2    1    2    0    0  0.23910806710E+02 -0.76278201761E+01  0.46724421272E+02  0.13587097178E+03  0.12509132309E+03 0.  0.
          5    1    3    3  502    0 -0.48503700583E+01 -0.61400927736E+02  0.51514045337E+01  0.61948441346E+02  0.41800000000E+01 0. -1.
         -5    1    3    3    0  502  0.28761176768E+02  0.53773107559E+02  0.41573016738E+02  0.73922530438E+02  0.41800000000E+01 0. -1.
        -11    1    1    2    0    0  0.13197938626E+01  0.10037890528E+02 -0.33764112870E+02  0.35249346377E+02  0.00000000000E+00 0.  1.
         11    1    1    2    0    0 -0.25230600572E+02 -0.24100703523E+01  0.63099274774E+02  0.67999339125E+02  0.00000000000E+00 0. -1.
</event>
<event>
 7    1  0.6473813E-006  0.1392478E+03  0.7561462E-02  0.1214345E+00
          1   -1    0    0  501    0  0.00000000000E+00  0.00000000000E+00  0.10942129460E+04  0.10942129460E+04  0.00000000000E+00 0. -1.
         -1   -1    0    0    0  501 -0.00000000000E+00 -0.00000000000E+00 -0.20934508798E+02  0.20934508798E+02  0.00000000000E+00 0.  1.
         23    2    1    2    0    0  0.11421628658E+02  0.10207523042E+03  0.61117744799E+03  0.63224653410E+03  0.12509196889E+03 0.  0.
          5    1    3    3  502    0 -0.81368250593E+01  0.12700639008E+03  0.52805369946E+03  0.54318966573E+03  0.41800000000E+01 0. -1.
         -5    1    3    3    0  502  0.19558453718E+02 -0.24931159660E+02  0.83123748530E+02  0.89056868368E+02  0.41800000000E+01 0. -1.
        -11    1    1    2    0    0 -0.36469440277E+02 -0.58488731985E+02  0.38317298734E+03  0.38932311782E+03  0.00000000000E+00 0. -1.
         11    1    1    2    0    0  0.25047811618E+02 -0.43586498439E+02  0.78928001921E+02  0.93577802925E+02  0.00000000000E+00 0.  1.
</event>
<event>
 7    1  0.6473813E-006  0.1279530E+03  0.7561462E-02  0.1230525E+00
         -1   -1    0    0    0  501 -0.00000000000E+00  0.00000000000E+00  0.58596069446E+02  0.58596069446E+02  0.00000000000E+00 0.  1.
          1   -1    0    0  501    0  0.00000000000E+00 -0.00000000000E+00 -0.50883227894E+03  0.50883227894E+03  0.00000000000E+00 0. -1.
         23    2    1    2    0    0  0.52011604331E+02  0.10013302179E+03 -0.11999630996E+03  0.20682822215E+03  0.12508784928E+03 0.  0.
          5    1    3    3  502    0 -0.16886754010E+02  0.33816731454E+01  0.17622552147E+02  0.24992497242E+02  0.41800000000E+01 0.  1.
         -5    1    3    3    0  502  0.68898358340E+02  0.96751348648E+02 -0.13761886210E+03  0.18183572491E+03  0.41800000000E+01 0.  1.
        -11    1    1    2    0    0 -0.17109189122E+02 -0.73406801620E+02 -0.29435850072E+03  0.30385557395E+03  0.00000000000E+00 0. -1.
         11    1    1    2    0    0 -0.34902415209E+02 -0.26726220174E+02 -0.35881398813E+02  0.56744552275E+02  0.00000000000E+00 0.  1.
</event>
<event>
 7    1  0.6473813E-006  0.1344465E+03  0.7561462E-02  0.1221003E+00
         -2   -1    0    0    0  501 -0.00000000000E+00  0.00000000000E+00  0.57541570021E+02  0.57541570021E+02  0.00000000000E+00 0.  1.
          2   -1    0    0  501    0  0.00000000000E+00 -0.00000000000E+00 -0.69396895040E+03  0.69396895040E+03  0.00000000000E+00 0. -1.
         23    2    1    2    0    0  0.26459541085E+02  0.89561129680E+02 -0.71954561243E+02  0.17188853840E+03  0.12508759924E+03 0.  0.
          5    1    3    3  502    0 -0.34367293616E+02  0.98857300305E+00 -0.52069601121E+02  0.62536420652E+02  0.41800000000E+01 0.  1.
         -5    1    3    3    0  502  0.60826834701E+02  0.88572556677E+02 -0.19884960122E+02  0.10935211774E+03  0.41800000000E+01 0.  1.
        -11    1    1    2    0    0 -0.53192833452E+02 -0.29124584964E+02 -0.19257131763E+03  0.20189460457E+03  0.00000000000E+00 0. -1.
         11    1    1    2    0    0  0.26733292367E+02 -0.60436544716E+02 -0.37190150151E+03  0.37772737746E+03  0.00000000000E+00 0.  1.
</event>
<event>
 7    1  0.6473813E-006  0.7840700E+02  0.7561462E-02  0.1333634E+00
          1   -1    0    0  501    0  0.00000000000E+00  0.00000000000E+00  0.27323765996E+03  0.27323765996E+03  0.00000000000E+00 0.  1.
         -1   -1    0    0    0  501 -0.00000000000E+00 -0.00000000000E+00 -0.57750416923E+02  0.57750416923E+02  0.00000000000E+00 0. -1.
         23    2    1    2    0    0  0.43470437730E+02 -0.38291497755E+02  0.12152463023E+03  0.18383242891E+03  0.12518070302E+03 0.  0.
          5    1    3    3  502    0  0.39225473147E+01 -0.24691888065E+02 -0.22442505864E+02  0.33855785076E+02  0.41800000000E+01 0. -1.
         -5    1    3    3    0  502  0.39547890415E+02 -0.13599609690E+02  0.14396713609E+03  0.14997664383E+03  0.41800000000E+01 0. -1.
        -11    1    1    2    0    0 -0.41031041141E+02 -0.90620925492E+01  0.90300047731E+02  0.99598024472E+02  0.00000000000E+00 0.  1.
         11    1    1    2    0    0 -0.24393965890E+01  0.47353590304E+02  0.36625650756E+01  0.47557623504E+02  0.00000000000E+00 0. -1.
</event>
<event>
 7    1  0.6473813E-006  0.7569183E+02  0.7561462E-02  0.1341742E+00
         -1   -1    0    0    0  501 -0.00000000000E+00  0.00000000000E+00  0.17347210158E+02  0.17347210158E+02  0.00000000000E+00 0.  1.
          1   -1    0    0  501    0  0.00000000000E+00 -0.00000000000E+00 -0.72945300522E+03  0.72945300522E+03  0.00000000000E+00 0. -1.
         23    2    1    2    0    0  0.22822949526E+02  0.16732500067E+02 -0.36431759200E+03  0.38623247522E+03  0.12508938199E+03 0.  0.
          5    1    3    3  502    0  0.38173020092E+02  0.95312961084E+00 -0.24249239568E+02  0.45426709529E+02  0.41800000000E+01 0. -1.
         -5    1    3    3    0  502 -0.15350070567E+02  0.15779370456E+02 -0.34006835244E+03  0.34080576569E+03  0.41800000000E+01 0. -1.
        -11    1    1    2    0    0  0.22106797270E+02  0.22040365831E+02 -0.72160209471E+02  0.78623050325E+02  0.00000000000E+00 0.  1.
         11    1    1    2    0    0 -0.44929746795E+02 -0.38772865898E+02 -0.27562799358E+03  0.28194468983E+03  0.00000000000E+00 0. -1.
</event>
<event>
 7    1  0.6473813E-006  0.1214953E+03  0.7561462E-02  0.1240650E+00
         -2   -1    0    0    0  501 -0.00000000000E+00  0.00000000000E+00  0.11996300726E+03  0.11996300726E+03  0.00000000000E+00 0.  1.
          2   -1    0    0  501    0  0.00000000000E+00 -0.00000000000E+00 -0.14806497751E+03  0.14806497751E+03  0.00000000000E+00 0. -1.
         23    2    1    2    0    0  0.16582797388E+02  0.68525882781E+02  0.19534439047E+02  0.14491385321E+03  0.12509054625E+03 0.  0.
          5    1    3    3  502    0  0.45908967480E+02 -0.14672630090E+02  0.28494787414E+02  0.56145744973E+02  0.41800000000E+01 0. -1.
         -5    1    3    3    0  502 -0.29326170093E+02  0.83198512870E+02 -0.89603483667E+01  0.88768108232E+02  0.41800000000E+01 0. -1.
        -11    1    1    2    0    0 -0.48911431405E+02 -0.42467973999E+02 -0.49539418273E+02  0.81547598987E+02  0.00000000000E+00 0. -1.
         11    1    1    2    0    0  0.32328634018E+02 -0.26057908782E+02  0.19030089693E+01  0.41566532580E+02  0.00000000000E+00 0.  1.
</event>
<event>
 6    1  0.6473813E-006  0.2675803E+03  0.7561462E-02  0.1102672E+00
          1   -1    0    0  501    0  0.00000000000E+00  0.00000000000E+00  0.42318283988E+03  0.42318283988E+03  0.00000000000E+00 0. -1.
         -1   -1    0    0    0  501 -0.00000000000E+00 -0.00000000000E+00 -0.20664953620E+03  0.20664953620E+03  0.00000000000E+00 0.  1.
          5    1    1    2  502    0 -0.34766968524E+02  0.11973836935E+02  0.46053606288E+02  0.59080639159E+02  0.41800000000E+01 0. -1.
         -5    1    1    2    0  502 -0.14144659130E+03 -0.19413861932E+03 -0.19919226625E+02  0.24106262608E+03  0.41800000000E+01 0.  1.
        -11    1    1    2    0    0  0.40194138327E+02  0.73682649635E+02  0.10909904162E+03  0.13764920085E+03  0.00000000000E+00 0. -1.
         11    1    1    2    0    0  0.13601942150E+03  0.10848213275E+03  0.81299882404E+02  0.19203990999E+03  0.00000000000E+00 0.  1.
</event>
<event>
 7    1  0.6473813E-006  0.1125487E+03  0.7561462E-02  0.1255922E+00
          1   -1    0    0  501    0  0.00000000000E+00  0.00000000000E+00  0.82712285972E+03  0.82712285972E+03  0.00000000000E+00 0. -1.
         -1   -1    0    0    0  501 -0.00000000000E+00 -0.00000000000E+00 -0.19533496940E+02  0.19533496940E+02  0.00000000000E+00 0.  1.
         23    2    1    2    0    0 -0.41185074834E+02  0.43362719734E+02  0.37262725589E+03  0.39758706381E+03  0.12509142904E+03 0.  0.
          5    1    3    3  502    0 -0.36494718032E+02  0.75412473057E+02  0.34424613792E+03  0.35431875679E+03  0.41800000000E+01 0.  1.
         -5    1    3    3    0  502 -0.46903568015E+01 -0.32049753323E+02  0.28381117970E+02  0.43268307019E+02  0.41800000000E+01 0.  1.
        -11    1    1    2    0    0  0.88345434123E+01 -0.67572955588E+02  0.21894582053E+03  0.22930640159E+03  0.00000000000E+00 0.  1.
         11    1    1    2    0    0  0.32350531422E+02  0.24210235854E+02  0.21601628636E+03  0.21976289126E+03  0.00000000000E+00 0. -1.
</event>
<event>
 7    1  0.6473813E-006  0.1039049E+03  0.7561462E-02  0.1272292E+00
         -1   -1    0    0    0  501 -0.00000000000E+00  0.00000000000E+00  0.99873229206E+02  0.99873229206E+02  0.00000000000E+00 0.  1.
          1   -1    0    0  501    0  0.00000000000E+00 -0.00000000000E+00 -0.26220545929E+03  0.26220545929E+03  0.00000000000E+00 0. -1.
         23    2    1    2    0    0  0.74774573233E+01 -0.53544279211E+02  0.32694858533E+02  0.14014342576E+03  0.12509326043E+03 0.  0.
          5    1    3    3  502    0  0.51967233748E+02 -0.10125736647E+02 -0.21760703070E+02  0.57394464229E+02  0.41800000000E+01 0.  1.
         -5    1    3    3    0  502 -0.44489776424E+02 -0.43418542564E+02  0.54455561603E+02  0.82748961529E+02  0.41800000000E+01 0.  1.
        -11    1    1    2    0    0 -0.45558980864E+01  0.72788125608E+02 -0.93605388945E+02  0.11866269960E+03  0.00000000000E+00 0.  1.
         11    1    1    2    0    0 -0.29215592370E+01 -0.19243846397E+02 -0.10142169967E+03  0.10327256313E+03  0.00000000000E+00 0. -1.
</event>
<event>
 7    1  0.6473813E-006  0.1718705E+03  0.7561462E-02  0.1175911E+00
         -1   -1    0    0    0  501 -0.00000000000E+00  0.00000000000E+00  0.71959853106E+02  0.71959853106E+02  0.00000000000E+00 0.  1.
          1   -1    0    0  501    0  0.00000000000E+00 -0.00000000000E+00 -0.46504722273E+03  0.46504722273E+03  0.00000000000E+00 0. -1.
         23    2    1    2    0    0 -0.12661560322E+03  0.41107661422E+02 -0.11904871179E+03  0.21803992203E+03  0.12508981179E+03 0.  0.
          5    1    3    3  502    0 -0.13636456434E+03 -0.21051284863E+01 -0.76265467611E+02  0.15631257123E+03  0.41800000000E+01 0.  1.
         -5    1    3    3    0  502  0.97489611206E+01  0.43212789908E+02 -0.42783244183E+02  0.61727350805E+02  0.41800000000E+01 0.  1.
        -11    1    1    2    0    0  0.70342420743E+02 -0.70263063406E+02 -0.15597087186E+03  0.18496450228E+03  0.00000000000E+00 0.  1.
         11    1    1    2    0    0  0.56273182478E+02  0.29155401983E+02 -0.11806778597E+03  0.13400265152E+03  0.00000000000E+00 0. -1.
</event>
<event>
 7    1  0.6473813E-006  0.1253048E+03  0.7561462E-02  0.1234594E+00
          1   -1    0    0  501    0  0.00000000000E+00  0.00000000000E+00  0.20674334954E+02  0.20674334954E+02  0.00000000000E+00 0. -1.
         -1   -1    0    0    0  501 -0.00000000000E+00 -0.00000000000E+00 -0.94649954641E+03  0.94649954641E+03  0.00000000000E+00 0.  1.
         23    2    1    2    0    0  0.69023404202E+01  0.77445174917E+02 -0.63070029463E+03  0.64766923106E+03  0.12508866372E+03 0.  0.
          5    1    3    3  502    0 -0.20524040947E+02  0.10329336513E+03 -0.38954944301E+03  0.40355544413E+03  0.41800000000E+01 0. -1.
         -5    1    3    3    0  502  0.27426381367E+02 -0.25848190209E+02 -0.24115085162E+03  0.24411378693E+03  0.41800000000E+01 0. -1.
        -11    1    1    2    0    0  0.30482761341E+02 -0.57114542739E+02 -0.24662920703E+03  0.25498477501E+03  0.00000000000E+00 0.  1.
         11    1    1    2    0    0 -0.37385101762E+02 -0.20330632178E+02 -0.48495709794E+02  0.64519875286E+02  0.00000000000E+00 0. -1.
</event>
<event>
 7    1  0.6473813E-006  0.7688097E+02  0.7561462E-02  0.1338143E+00
         -3   -1    0    0    0  501 -0.00000000000E+00  0.00000000000E+00  0.13223948735E+03  0.13223948735E+03  0.00000000000E+00 0.  1.
          3   -1    0    0  501    0  0.00000000000E+00 -0.00000000000E+00 -0.89753428390E+02  0.89753428390E+02  0.00000000000E+00 0. -1.
         23    2    1    2    0    0 -0.28349609066E+02 -0.24461746751E+02  0.34491613968E+02  0.13505370977E+03  0.12509098969E+03 0.  0.
          5    1    3    3  502    0  0.30402774941E+01 -0.42659088241E+02 -0.35740965488E+02  0.55892129239E+02  0.41800000000E+01 0.  1.
         -5    1    3    3    0  502 -0.31389886560E+02  0.18197341491E+02  0.70232579456E+02  0.79161580534E+02  0.41800000000E+01 0.  1.
        -11    1    1    2    0    0  0.47583546340E+02  0.27248179640E+02  0.25783363167E+02  0.60592400449E+02  0.00000000000E+00 0.  1.
         11    1    1    2    0    0 -0.19233937273E+02 -0.27864328890E+01 -0.17788918174E+02  0.26346805519E+02  0.00000000000E+00 0. -1.
</event>
<event>
 6    1  0.6473813E-006  0.1389003E+03  0.7561462E-02  0.1214816E+00
         -1   -1    0    0    0  501 -0.00000000000E+00  0.00000000000E+00  0.25634193309E+03  0.25634193309E+03  0.00000000000E+00 0.  1.
          1   -1    0    0  501    0  0.00000000000E+00 -0.00000000000E+00 -0.11378122209E+03  0.11378122209E+03  0.00000000000E+00 0. -1.
          5    1    1    2  502    0 -0.74443743402E+02  0.45793818654E+01  0.73142485729E+02  0.10454729690E+03  0.41800000000E+01 0. -1.
         -5    1    1    2    0  502  0.96924748110E+02  0.44717466675E+02  0.10852024364E+03  0.15227663741E+03  0.41800000000E+01 0.  1.
        -11    1    1    2    0    0  0.29680448130E+02 -0.24656556887E+02 -0.40035477454E+02  0.55603185644E+02  0.00000000000E+00 0. -1.
         11    1    1    2    0    0 -0.52161452839E+02 -0.24640291653E+02  0.93345909651E+00  0.57696035227E+02  0.00000000000E+00 0.  1.
</event>
<event>
 7    1  0.6473813E-006  0.9769945E+02  0.7561462E-02  0.1285209E+00
          1   -1    0    0  501    0  0.00000000000E+00  0.00000000000E+00  0.27104446924E+03  0.27104446924E+03  0.00000000000E+00 0. -1.
         -1   -1    0    0    0  501 -0.00000000000E+00 -0.00000000000E+00 -0.63084445384E+02  0.63084445384E+02  0.00000000000E+00 0.  1.
         23    2    1    2    0    0 -0.21696289725E+02 -0.66617805014E+02  0.69156904985E+02  0.15278201922E+03  0.11683752375E+03 0.  0.
          5    1    3    3  502    0 -0.69138701545E+01 -0.73233946258E+02  0.96085128383E+02  0.12108194242E+03  0.41800000000E+01 0. -1.
         -5    1    3    3    0  502 -0.14782419571E+02  0.66161412440E+01 -0.26928223397E+02  0.31700076793E+02  0.41800000000E+01 0.  1.
        -11    1    1    2    0    0  0.46535643936E+02  0.65214447217E+02  0.13382746481E+03  0.15597525643E+03  0.00000000000E+00 0.  1.
         11    1    1    2    0    0 -0.24839354211E+02  0.14033577965E+01  0.49756540598E+01  0.25371638970E+02  0.00000000000E+00 0. -1.
</event>
<event>
 7    1  0.6473813E-006  0.1004725E+03  0.7561462E-02  0.1279305E+00
         -1   -1    0    0    0  501 -0.00000000000E+00  0.00000000000E+00  0.10199730352E+03  0.10199730352E+03  0.00000000000E+00 0.  1.
          1   -1    0    0  501    0  0.00000000000E+00 -0.00000000000E+00 -0.13232181969E+03  0.13232181969E+03  0.00000000000E+00 0. -1.
         23    2    1    2    0    0  0.81115009428E+01 -0.31114323997E+02  0.92814647155E+01  0.12950583773E+03  0.12510682961E+03 0.  0.
          5    1    3    3  502    0 -0.53366378417E+02 -0.26236234617E+02 -0.17517168315E+02  0.62133999855E+02  0.41800000000E+01 0.  1.
         -5    1    3    3    0  502  0.61477879359E+02 -0.48780893794E+01  0.26798633030E+02  0.67371837876E+02  0.41800000000E+01 0.  1.
        -11    1    1    2    0    0 -0.34023061574E+01 -0.23981722240E+02 -0.43063746648E+02  0.49408349134E+02  0.00000000000E+00 0. -1.
         11    1    1    2    0    0 -0.47091947854E+01  0.55096046237E+02  0.34577657618E+01  0.55404936337E+02  0.00000000000E+00 0.  1.
</event>
<event>
 7    1  0.6473813E-006  0.1541418E+03  0.7561462E-02  0.1195474E+00
         -2   -1    0    0    0  501 -0.00000000000E+00  0.00000000000E+00  0.61582303015E+02  0.61582303015E+02  0.00000000000E+00 0.  1.
          2   -1    0    0  501    0  0.00000000000E+00 -0.00000000000E+00 -0.61578329202E+03  0.61578329202E+03  0.00000000000E+00 0. -1.
         23    2    1    2    0    0  0.91042294325E+02 -0.53519719910E+02 -0.84756440414E+02  0.18434961381E+03  0.12509223056E+03 0.  0.
          5    1    3    3  502    0  0.77466613224E+02  0.25882030405E+02 -0.54103925419E+02  0.98059486068E+02  0.41800000000E+01 0. -1.
         -5    1    3    3    0  502  0.13575681102E+02 -0.79401750315E+02 -0.30652514995E+02  0.86290127743E+02  0.41800000000E+01 0. -1.
        -11    1    1    2    0    0 -0.22802014559E+02  0.71683070045E+02 -0.30326634156E+03  0.31245618624E+03  0.00000000000E+00 0. -1.
         11    1    1    2    0    0 -0.68240279766E+02 -0.18163350135E+02 -0.16617820704E+03  0.18055979499E+03  0.00000000000E+00 0.  1.
</event>
<event>
 7    1  0.6473813E-006  0.1061984E+03  0.7561462E-02  0.1267776E+00
          4   -1    0    0  501    0  0.00000000000E+00  0.00000000000E+00  0.34698373810E+03  0.34698373810E+03  0.00000000000E+00 0. -1.
         -4   -1    0    0    0  501 -0.00000000000E+00 -0.00000000000E+00 -0.34914233894E+02  0.34914233894E+02  0.00000000000E+00 0.  1.
         23    2    1    2    0    0  0.13204563130E+02 -0.10684709470E+02  0.15525894122E+03  0.20010434854E+03  0.12509151839E+03 0.  0.
          5    1    3    3  502    0 -0.24508898268E+02 -0.57556432501E+02  0.56553659860E+02  0.84434695831E+02  0.41800000000E+01 0.  1.
         -5    1    3    3    0  502  0.37713461398E+02  0.46871723031E+02  0.98705281356E+02  0.11566965271E+03  0.41800000000E+01 0.  1.
        -11    1    1    2    0    0  0.19133108372E+02 -0.31126687401E+02  0.85923381381E+02  0.93369020410E+02  0.00000000000E+00 0.  1.
         11    1    1    2    0    0 -0.32337671502E+02  0.41811396871E+02  0.70887181606E+02  0.88424603038E+02  0.00000000000E+00 0. -1.
</event>
<event>
 7    1  0.6473813E-006  0.1658780E+03  0.7561462E-02  0.1182216E+00
          1   -1    0    0  501    0  0.00000000000E+00  0.00000000000E+00  0.14403102108E+04  0.14403102108E+04  0.00000000000E+00 0. -1.
         -1   -1    0    0    0  501 -0.00000000000E+00 -0.00000000000E+00 -0.24192070139E+02  0.24192070139E+02  0.00000000000E+00 0.  1.
         23    2    1    2    0    0  0.64627500660E+02 -0.13387813308E+03  0.86518443963E+03  0.88673057331E+03  0.12508767611E+03 0.  0.
          5    1    3    3  502    0  0.38282910646E+02 -0.23339518035E+02  0.68524944035E+02  0.81996674961E+02  0.41800000000E+01 0. -1.
         -5    1    3    3    0  502  0.26344590015E+02 -0.11053861505E+03  0.79665949559E+03  0.80473389835E+03  0.41800000000E+01 0. -1.
        -11    1    1    2    0    0 -0.71350704496E+02  0.46032963332E+02  0.23902424896E+03  0.25365832991E+03  0.00000000000E+00 0.  1.
         11    1    1    2    0    0  0.67232038357E+01  0.87845169752E+02  0.31190945211E+03  0.32411337775E+03  0.00000000000E+00 0. -1.
</event>
<event>
 7    1  0.6473813E-006  0.2001633E+03  0.7561462E-02  0.1149601E+00
          1   -1    0    0  501    0  0.00000000000E+00  0.00000000000E+00  0.43682075048E+03  0.43682075048E+03  0.00000000000E+00 0. -1.
         -1   -1    0    0    0  501 -0.00000000000E+00 -0.00000000000E+00 -0.10260387296E+03  0.10260387296E+03  0.00000000000E+00 0.  1.
         23    2    1    2    0    0  0.77199005880E+02 -0.15697450712E+03  0.11647087012E+03  0.24456945451E+03  0.12509225435E+03 0.  0.
          5    1    3    3  502    0  0.61480457224E+02 -0.21326299776E+02  0.79915331160E+02  0.10314354191E+03  0.41800000000E+01 0. -1.
         -5    1    3    3    0  502  0.15718548656E+02 -0.13564820734E+03  0.36555538965E+02  0.14142591261E+03  0.41800000000E+01 0. -1.
        -11    1    1    2    0    0  0.18793540618E+02  0.62571046384E+01  0.17026326169E+02  0.26119806857E+02  0.00000000000E+00 0.  1.
         11    1    1    2    0    0 -0.95992546498E+02  0.15071740248E+03  0.20071968123E+03  0.26873536207E+03  0.00000000000E+00 0. -1.
</event>
<event>
 7    1  0.6473813E-006  0.1843423E+03  0.7561462E-02  0.1163665E+00
         -3   -1    0    0    0  501 -0.00000000000E+00  0.00000000000E+00  0.49788797936E+02  0.49788797936E+02  0.00000000000E+00 0.  1.
          3   -1    0    0  501    0  0.00000000000E+00 -0.00000000000E+00 -0.79844123868E+03  0.79844123868E+03  0.00000000000E+00 0. -1.
         23    2    1    2    0    0 -0.39378438783E+02 -0.15294930479E+03 -0.27553279696E+03  0.34133552507E+03  0.12508983650E+03 0.  0.
          5    1    3    3  502    0 -0.84204322568E+02 -0.10499844552E+03 -0.16832358758E+03  0.21555821496E+03  0.41800000000E+01 0.  1.
         -5    1    3    3    0  502  0.44825883784E+02 -0.47950859271E+02 -0.10720920939E+03  0.12577731011E+03  0.41800000000E+01 0.  1.
        -11    1    1    2    0    0  0.51634375305E+02  0.86941339715E+02 -0.37214374333E+03  0.38563696784E+03  0.00000000000E+00 0.  1.
         11    1    1    2    0    0 -0.12255936521E+02  0.66007965078E+02 -0.10097590044E+03  0.12125754370E+03  0.00000000000E+00 0. -1.
</event>
<event>
 7    1  0.6473813E-006  0.1295018E+03  0.7561462E-02  0.1228197E+00
         -2   -1    0    0    0  501 -0.00000000000E+00  0.00000000000E+00  0.32939082533E+02  0.32939082533E+02  0.00000000000E+00 0.  1.
          2   -1    0    0  501    0  0.00000000000E+00 -0.00000000000E+00 -0.68971191248E+03  0.68971191248E+03  0.00000000000E+00 0. -1.
         23    2    1    2    0    0 -0.76631839452E+02  0.60871404656E+02 -0.26577666019E+03  0.30961597103E+03  0.12508816769E+03 0.  0.
          5    1    3    3  502    0 -0.10151747378E+03  0.25402789000E+02 -0.12946360053E+03  0.16652145638E+03  0.41800000000E+01 0.  1.
         -5    1    3    3    0  502  0.24885634323E+02  0.35468615656E+02 -0.13631305965E+03  0.14309451466E+03  0.41800000000E+01 0.  1.
        -11    1    1    2    0    0  0.13027239011E+02 -0.42628046045E+02 -0.56038884757E+02  0.71604579956E+02  0.00000000000E+00 0.  1.
         11    1    1    2    0    0  0.63604600442E+02 -0.18243358612E+02 -0.33495728500E+03  0.34143044402E+03  0.00000000000E+00 0. -1.
</event>
<event>
 7    1  0.6473813E-006  0.1485885E+03  0.7561462E-02  0.1202218E+00
          1   -1    0    0  501    0  0.00000000000E+00  0.00000000000E+00  0.53888307359E+03  0.53888307359E+03  0.00000000000E+00 0. -1.
         -1   -1    0    0    0  501 -0.00000000000E+00 -0.00000000000E+00 -0.58791149219E+02  0.58791149219E+02  0.00000000000E+00 0.  1.
         23    2    1    2    0    0  0.10160797686E+03 -0.97980371129E+02  0.24823387963E+03  0.31175716754E+03  0.12509251949E+03 0.  0.
          5    1    3    3  502    0  0.84367855415E+02 -0.68365007684E+02  0.67878471880E+02  0.12812754836E+03  0.41800000000E+01 0.  1.
         -5    1    3    3    0  502  0.17240121447E+02 -0.29615363445E+02  0.18035540775E+03  0.18362961919E+03  0.41800000000E+01 0.  1.
        -11    1    1    2    0    0 -0.20949417590E+02  0.62408617891E+02  0.46296363510E+02  0.80480227128E+02  0.00000000000E+00 0.  1.
         11    1    1    2    0    0 -0.80658559271E+02  0.35571753238E+02  0.18556168124E+03  0.20543682814E+03  0.00000000000E+00 0. -1.
</event>
<event>
 7    1  0.6473813E-006  0.1165545E+03  0.7561462E-02  0.1248892E+00
          1   -1    0    0  501    0  0.00000000000E+00  0.00000000000E+00  0.47768632465E+02  0.47768632465E+02  0.00000000000E+00 0. -1.
         -1   -1    0    0    0  501 -0.00000000000E+00 -0.00000000000E+00 -0.53217966803E+03  0.53217966803E+03  0.00000000000E+00 0.  1.
         23    2    1    2    0    0  0.34322030924E+01 -0.67957916759E+02 -0.43267592069E+03  0.45550663038E+03  0.12509108486E+03 0.  0.
          5    1    3    3  502    0  0.53407444295E+02 -0.38661989170E+02 -0.33830610288E+03  0.34469638257E+03  0.41800000000E+01 0.  1.
         -5    1    3    3    0  502 -0.49975241203E+02 -0.29295927590E+02 -0.94369817811E+02  0.11081024781E+03  0.41800000000E+01 0.  1.
        -11    1    1    2    0    0 -0.17067564842E+02 -0.16305697877E+02  0.18163970922E+01  0.23674392310E+02  0.00000000000E+00 0. -1.
         11    1    1    2    0    0  0.13635361749E+02  0.84263614636E+02 -0.53551511971E+02  0.10076727780E+03  0.00000000000E+00 0.  1.
</event>
<event>
 7    1  0.6473813E-006  0.1694033E+03  0.7561462E-02  0.1178472E+00
          1   -1    0    0  501    0  0.00000000000E+00  0.00000000000E+00  0.14666238069E+04  0.14666238069E+04  0.00000000000E+00 0. -1.
         -1   -1    0    0    0  501 -0.00000000000E+00 -0.00000000000E+00 -0.20558934785E+02  0.20558934785E+02  0.00000000000E+00 0.  1.
         23    2    1    2    0    0  0.10645221245E+03  0.84032907353E+02  0.81944683652E+03  0.83996112314E+03  0.12509183604E+03 0.  0.
          5    1    3    3  502    0  0.48375697547E+02 -0.24104070596E+02  0.37340590559E+03  0.37732036396E+03  0.41800000000E+01 0. -1.
         -5    1    3    3    0  502  0.58076514906E+02  0.10813697795E+03  0.44604093093E+03  0.46264075918E+03  0.41800000000E+01 0. -1.
        -11    1    1    2    0    0 -0.47120109600E+01 -0.56069322701E+02  0.20195982753E+03  0.20965148206E+03  0.00000000000E+00 0. -1.
         11    1    1    2    0    0 -0.10174020149E+03 -0.27963584652E+02  0.42465820807E+03  0.43757013649E+03  0.00000000000E+00 0.  1.
</event>
<event>
 7    1  0.6473813E-006  0.1129843E+03  0.7561462E-02  0.1255141E+00
          2   -1    0    0  501    0  0.00000000000E+00  0.00000000000E+00  0.69591958245E+03  0.69591958245E+03  0.00000000000E+00 0. -1.
         -2   -1    0    0    0  501 -0.00000000000E+00 -0.00000000000E+00 -0.21607838646E+02  0.21607838646E+02  0.00000000000E+00 0.  1.
         23    2    1    2    0    0 -0.24013000827E+02  0.42144730553E+02  0.29315359418E+03  0.32239486327E+03  0.12508643236E+03 0.  0.
          5    1    3    3  502    0 -0.43116182271E+02  0.73405437887E+02  0.13237359270E+03  0.15744079500E+03  0.41800000000E+01 0.  1.
         -5    1    3    3    0  502  0.19103181444E+02 -0.31260707334E+02  0.16078000148E+03  0.16495406827E+03  0.41800000000E+01 0.  1.
        -11    1    1    2    0    0  0.48465542439E+02  0.70009387514E+01  0.16497757481E+03  0.17209160973E+03  0.00000000000E+00 0. -1.
         11    1    1    2    0    0 -0.24452541611E+02 -0.49145669305E+02  0.21618057482E+03  0.22304094810E+03  0.00000000000E+00 0.  1.
</event>
<event>
 7    1  0.6473813E-006  0.1325438E+03  0.7561462E-02  0.1223729E+00
          3   -1    0    0  501    0  0.00000000000E+00  0.00000000000E+00  0.68302563270E+02  0.68302563270E+02  0.00000000000E+00 0. -1.
         -3   -1    0    0    0  501 -0.00000000000E+00 -0.00000000000E+00 -0.41253179662E+03  0.41253179662E+03  0.00000000000E+00 0.  1.
         23    2    1    2    0    0  0.96940679426E+02 -0.78580335210E+02 -0.16042849281E+03  0.23865800574E+03  0.12509187819E+03 0.  0.
          5    1    3    3  502    0  0.83446348845E+02 -0.30293305628E+02 -0.22265542531E+02  0.91619890229E+02  0.41800000000E+01 0.  1.
         -5    1    3    3    0  502  0.13494330581E+02 -0.48287029583E+02 -0.13816295028E+03  0.14703811551E+03  0.41800000000E+01 0.  1.
        -11    1    1    2    0    0 -0.80797328060E+01  0.13596802267E+02  0.10409831029E+02  0.18934616346E+02  0.00000000000E+00 0. -1.
         11    1    1    2    0    0 -0.88860946620E+02  0.64983532944E+02 -0.19421057157E+03  0.22324173780E+03  0.00000000000E+00 0.  1.
</event>
<event>
 7    1  0.6473813E-006  0.1147272E+03  0.7561462E-02  0.1252058E+00
          1   -1    0    0  501    0  0.00000000000E+00  0.00000000000E+00  0.86098212293E+02  0.86098212293E+02  0.00000000000E+00 0. -1.
         -1   -1    0    0    0  501 -0.00000000000E+00 -0.00000000000E+00 -0.26796809032E+03  0.26796809032E+03  0.00000000000E+00 0.  1.
         23    2    1    2    0    0  0.15000665818E+02  0.67481288688E+02 -0.19050567802E+03  0.23815554709E+03  0.12508759712E+03 0.  0.
          5    1    3    3  502    0  0.55200721827E+02  0.76183604785E+02 -0.16378622213E+03  0.18892977608E+03  0.41800000000E+01 0.  1.
         -5    1    3    3    0  502 -0.40200056009E+02 -0.87023160964E+01 -0.26719455889E+02  0.49225771011E+02  0.41800000000E+01 0.  1.
        -11    1    1    2    0    0 -0.29930886757E+02 -0.58150992265E+01 -0.29050757420E+02  0.42114366524E+02  0.00000000000E+00 0.  1.
         11    1    1    2    0    0  0.14930220939E+02 -0.61666189462E+02  0.37686557414E+02  0.73796389002E+02  0.00000000000E+00 0. -1.
</event>
<event>
 7    1  0.6473813E-006  0.1019361E+03  0.7561462E-02  0.1276276E+00
          1   -1    0    0  501    0  0.00000000000E+00  0.00000000000E+00  0.86865585459E+02  0.86865585459E+02  0.00000000000E+00 0. -1.
         -1   -1    0    0    0  501 -0.00000000000E+00 -0.00000000000E+00 -0.25377065313E+03  0.25377065313E+03  0.00000000000E+00 0.  1.
         23    2    1    2    0    0 -0.28495451553E+02  0.72093788598E+02 -0.17129934660E+03  0.22161026748E+03  0.11729509535E+03 0.  0.
          5    1    3    3  502    0  0.31886572747E+02  0.22022229001E+01 -0.99373659720E+02  0.10447104840E+03  0.41800000000E+01 0. -1.
         -5    1    3    3    0  502 -0.60382024300E+02  0.69891565698E+02 -0.71925686882E+02  0.11713921908E+03  0.41800000000E+01 0.  1.
        -11    1    1    2    0    0  0.23360905563E+02 -0.37311371600E+02 -0.41980641939E+02  0.60829636338E+02  0.00000000000E+00 0.  1.
         11    1    1    2    0    0  0.51345459901E+01 -0.34782416998E+02  0.46374920870E+02  0.58196334767E+02  0.00000000000E+00 0. -1.
</event>
<event>
 7    1  0.6473813E-006  0.8476039E+02  0.7561462E-02  0.1316060E+00
         -2   -1    0    0    0  501 -0.00000000000E+00  0.00000000000E+00  0.45626300110E+02  0.45626300110E+02  0.00000000000E+00 0.  1.
          2   -1    0    0  501    0  0.00000000000E+00 -0.00000000000E+00 -0.28907073097E+03  0.28907073097E+03  0.00000000000E+00 0. -1.
         23    2    1    2    0    0  0.25756788251E+02  0.23471293140E+02 -0.11612165237E+03  0.17419849614E+03  0.12508622692E+03 0.  0.
          5    1    3    3  502    0  0.44481918318E+02 -0.17002010651E+02 -0.12006814556E+03  0.12923444356E+03  0.41800000000E+01 0. -1.
         -5    1    3    3    0  502 -0.18725130067E+02  0.40473303792E+02  0.39464931879E+01  0.44964052579E+02  0.41800000000E+01 0. -1.
        -11    1    1    2    0    0 -0.68484191476E+01  0.24459991592E+02 -0.25779608301E+01  0.25531116613E+02  0.00000000000E+00 0.  1.
         11    1    1    2    0    0 -0.18908369103E+02 -0.47931284732E+02 -0.12474481766E+03  0.13496741834E+03  0.00000000000E+00 0. -1.
</event>
<event>
 7    1  0.6473813E-006  0.1124775E+03  0.7561462E-02  0.1256049E+00
          1   -1    0    0  501    0  0.00000000000E+00  0.00000000000E+00  0.70191786990E+02  0.70191786990E+02  0.00000000000E+00 0. -1.
         -1   -1    0    0    0  501 -0.00000000000E+00 -0.00000000000E+00 -0.26886281840E+03  0.26886281840E+03  0.00000000000E+00 0.  1.
         23    2    1    2    0    0  0.64857661021E+02 -0.14002108266E+02 -0.17304672630E+03  0.22359647490E+03  0.12509052272E+03 0.  0.
          5    1    3    3  502    0 -0.48218997323E+00  0.38762583428E+02 -0.11497011810E+03  0.12140169207E+03  0.41800000000E+01 0. -1.
         -5    1    3    3    0  502  0.65339850995E+02 -0.52764691695E+02 -0.58076608206E+02  0.10219478283E+03  0.41800000000E+01 0. -1.
        -11    1    1    2    0    0 -0.73095108647E+02 -0.12470814970E+02 -0.39974031473E+02  0.84239772829E+02  0.00000000000E+00 0.  1.
         11    1    1    2    0    0  0.82374476251E+01  0.26472923236E+02  0.14349726369E+02  0.31218357658E+02  0.00000000000E+00 0. -1.
</event>
<event>
 7    1  0.6473813E-006  0.7818548E+02  0.7561462E-02  0.1334281E+00
          1   -1    0    0  501    0  0.00000000000E+00  0.00000000000E+00  0.30987385402E+03  0.30987385402E+03  0.00000000000E+00 0. -1.
         -1   -1    0    0    0  501 -0.00000000000E+00 -0.00000000000E+00 -0.69052052134E+02  0.69052052134E+02  0.00000000000E+00 0.  1.
         23    2    1    2    0    0  0.28555461807E+02 -0.24431140317E+02  0.12003424428E+02  0.13085129271E+03  0.12476250875E+03 0.  0.
          5    1    3    3  502    0  0.83163246256E+01 -0.47042917410E+02 -0.45240039112E+02  0.65926708341E+02  0.41800000000E+01 0.  1.
         -5    1    3    3    0  502  0.20239137181E+02  0.22611777094E+02  0.57243463540E+02  0.64924584367E+02  0.41800000000E+01 0.  1.
        -11    1    1    2    0    0 -0.28774904833E+02  0.47056184369E+02  0.21408077195E+03  0.22107206191E+03  0.00000000000E+00 0.  1.
         11    1    1    2    0    0  0.21944302637E+00 -0.22625044052E+02  0.14737605505E+02  0.27002551539E+02  0.00000000000E+00 0. -1.
</event>
<event>
 7    1  0.6473813E-006  0.1155970E+03  0.7561462E-02  0.1250543E+00
          4   -1    0    0  501    0  0.00000000000E+00  0.00000000000E+00  0.22985051960E+03  0.22985051960E+03  0.00000000000E+00 0. -1.
         -4   -1    0    0    0  501 -0.00000000000E+00 -0.00000000000E+00 -0.71976857276E+02  0.71976857276E+02  0.00000000000E+00 0.  1.
         23    2    1    2    0    0  0.55540341916E+01  0.61327323923E+02  0.73294669869E+02  0.15751776238E+03  0.12509136213E+03 0.  0.
          5    1    3    3  502    0  0.49444386823E+02 -0.14357073896E+02  0.23341754118E+02  0.56684943720E+02  0.41800000000E+01 0. -1.
         -5    1    3    3    0  502 -0.43890352632E+02  0.75684397819E+02  0.49952915751E+02  0.10083281866E+03  0.41800000000E+01 0. -1.
        -11    1    1    2    0    0 -0.21481561480E+02  0.63670418181E+01 -0.11907762279E+02  0.25373046873E+02  0.00000000000E+00 0.  1.
         11    1    1    2    0    0  0.15927527288E+02 -0.67694365741E+02  0.96486754738E+02  0.11893656763E+03  0.00000000000E+00 0. -1.
</event>
<event>
 7    1  0.6473813E-006  0.1294341E+03  0.7561462E-02  0.1228298E+00
          2   -1    0    0  501    0  0.00000000000E+00  0.00000000000E+00  0.16071532015E+03  0.16071532015E+03  0.00000000000E+00 0. -1.
         -2   -1    0    0    0  501 -0.00000000000E+00 -0.00000000000E+00 -0.13810104159E+03  0.13810104159E+03  0.00000000000E+00 0.  1.
         23    2    1    2    0    0  0.79762549355E+02  0.38387901352E+02 -0.39410650912E+02  0.15821992374E+03  0.12507857376E+03 0.  0.
          5    1    3    3  502    0  0.21177695777E+02 -0.33590173759E+02 -0.50811417773E+02  0.64622497225E+02  0.41800000000E+01 0.  1.
         -5    1    3    3    0  502  0.58584853578E+02  0.71978075111E+02  0.11400766861E+02  0.93597426516E+02  0.41800000000E+01 0.  1.
        -11    1    1    2    0    0  0.15764034783E+02 -0.25034041207E+02  0.17362815542E+02  0.34302702158E+02  0.00000000000E+00 0.  1.
         11    1    1    2    0    0 -0.95526584138E+02 -0.13353860145E+02  0.44662113926E+02  0.10629373584E+03  0.00000000000E+00 0. -1.
</event>
<event>
 7    1  0.6473813E-006  0.1319767E+03  0.7561462E-02  0.1224552E+00
          3   -1    0    0  501    0  0.00000000000E+00  0.00000000000E+00  0.23384651089E+03  0.23384651089E+03  0.00000000000E+00 0. -1.
         -3   -1    0    0    0  501 -0.00000000000E+00 -0.00000000000E+00 -0.11465267917E+03  0.11465267917E+03  0.00000000000E+00 0.  1.
         23    2    1    2    0    0 -0.63014573852E+02  0.97703995535E+02  0.22646252400E+02  0.17227088632E+03  0.12508996068E+03 0.  0.
          5    1    3    3  502    0 -0.33799936660E+02  0.44442720321E+02  0.73875090362E+02  0.92696237700E+02  0.41800000000E+01 0.  1.
         -5    1    3    3    0  502 -0.29214637192E+02  0.53261275214E+02 -0.51228837962E+02  0.79574648617E+02  0.41800000000E+01 0.  1.
        -11    1    1    2    0    0  0.28858491546E+02 -0.10768596876E+03  0.67810637692E+02  0.13048893818E+03  0.00000000000E+00 0.  1.
         11    1    1    2    0    0  0.34156082306E+02  0.99819732264E+01  0.28736941628E+02  0.45739365563E+02  0.00000000000E+00 0. -1.
</event>
<event>
 7    1  0.6473813E-006  0.1292486E+03  0.7561462E-02  0.1228575E+00
          2   -1    0    0  501    0  0.00000000000E+00  0.00000000000E+00  0.34430216117E+02  0.34430216117E+02  0.00000000000E+00 0. -1.
         -2   -1    0    0    0  501 -0.00000000000E+00 -0.00000000000E+00 -0.54303634604E+03  0.54303634604E+03  0.00000000000E+00 0.  1.
         23    2    1    2    0    0 -0.82996790262E+02 -0.15132069524E+02 -0.29399410909E+03  0.33036174075E+03  0.12485550390E+03 0.  0.
          5    1    3    3  502    0  0.25349720003E+02  0.53876242229E+01 -0.14766031699E+02  0.30118812911E+02  0.41800000000E+01 0.  1.
         -5    1    3    3    0  502 -0.10834651027E+03 -0.20519693747E+02 -0.27922807739E+03  0.30024292784E+03  0.41800000000E+01 0.  1.
        -11    1    1    2    0    0  0.14909939715E+02  0.45102806280E+02 -0.95679736431E+02  0.10682313139E+03  0.00000000000E+00 0.  1.
         11    1    1    2    0    0  0.68086850548E+02 -0.29970736756E+02 -0.11893228441E+03  0.14028169001E+03  0.00000000000E+00 0. -1.
</event>
<event>
 7    1  0.6473813E-006  0.9564765E+02  0.7561462E-02  0.1289724E+00
         -2   -1    0    0    0  501 -0.00000000000E+00  0.00000000000E+00  0.10313477036E+03  0.10313477036E+03  0.00000000000E+00 0.  1.
          2   -1    0    0  501    0  0.00000000000E+00 -0.00000000000E+00 -0.13940415501E+03  0.13940415501E+03  0.00000000000E+00 0. -1.
         23    2    1    2    0    0  0.17568570892E+01  0.67771391953E+01  0.39128366708E+02  0.12481545059E+03  0.11831674210E+03 0.  0.
          5    1    3    3  502    0 -0.27631973534E+02 -0.42884774347E+02  0.42967993495E+02  0.66830761608E+02  0.41800000000E+01 0. -1.
         -5    1    3    3    0  502  0.29388830623E+02  0.49661913542E+02 -0.38396267867E+01  0.57984688978E+02  0.41800000000E+01 0.  1.
        -11    1    1    2    0    0 -0.41768252899E+02 -0.62707085182E+01 -0.62970698285E+02  0.75823595128E+02  0.00000000000E+00 0. -1.
         11    1    1    2    0    0  0.40011395810E+02 -0.50643067703E+00 -0.12427053077E+02  0.41899879652E+02  0.00000000000E+00 0.  1.
</event>
<event>
 7    1  0.6473813E-006  0.3687416E+03  0.7561462E-02  0.1055175E+00
          1   -1    0    0  501    0  0.00000000000E+00  0.00000000000E+00  0.39602833823E+03  0.39602833823E+03  0.00000000000E+00 0.  1.
         -1   -1    0    0    0  501 -0.00000000000E+00 -0.00000000000E+00 -0.39885296359E+03  0.39885296359E+03  0.00000000000E+00 0. -1.
         23    2    1    2    0    0 -0.21923982567E+03  0.27593050126E+03 -0.14886196103E+03  0.40250577252E+03  0.12508905144E+03 0.  0.
          5    1    3    3  502    0 -0.12849744350E+03  0.65588615419E+02 -0.67898701571E+02  0.15950286999E+03  0.41800000000E+01 0.  1.
         -5    1    3    3    0  502 -0.90742382165E+02  0.21034188584E+03 -0.80963259454E+02  0.24300290253E+03  0.41800000000E+01 0.  1.
        -11    1    1    2    0    0  0.19062448623E+03 -0.17376455329E+03  0.10858399545E+03  0.27986121346E+03  0.00000000000E+00 0.  1.
         11    1    1    2    0    0  0.28615339438E+02 -0.10216594797E+03  0.37453340206E+02  0.11251431584E+03  0.00000000000E+00 0. -1.
</event>
<event>
 7    1  0.6473813E-006  0.9962735E+02  0.7561462E-02  0.1281082E+00
         -1   -1    0    0    0  501 -0.00000000000E+00  0.00000000000E+00  0.77341601066E+02  0.77341601066E+02  0.00000000000E+00 0.  1.
          1   -1    0    0  501    0  0.00000000000E+00 -0.00000000000E+00 -0.22080676026E+03  0.22080676026E+03  0.00000000000E+00 0. -1.
         23    2    1    2    0    0 -0.38487186199E+02  0.47207292286E+02 -0.42011195383E+02  0.14524156278E+03  0.12498151493E+03 0.  0.
          5    1    3    3  502    0  0.28921069943E+02  0.81813187608E+01  0.27356846463E+02  0.40856232226E+02  0.41800000000E+01 0.  1.
         -5    1    3    3    0  502 -0.67408256141E+02  0.39025973525E+02 -0.69368041846E+02  0.10438533056E+03  0.41800000000E+01 0.  1.
        -11    1    1    2    0    0  0.57916175316E+02 -0.38955292374E+02 -0.25882480926E+02  0.74442601956E+02  0.00000000000E+00 0.  1.
         11    1    1    2    0    0 -0.19428989117E+02 -0.82519999113E+01 -0.75571482883E+02  0.78464196586E+02  0.00000000000E+00 0. -1.
</event>
<event>
 7    1  0.6473813E-006  0.2108901E+03  0.7561462E-02  0.1140863E+00
         -2   -1    0    0    0  501 -0.00000000000E+00  0.00000000000E+00  0.18220116285E+03  0.18220116285E+03  0.00000000000E+00 0.  1.
          2   -1    0    0  501    0  0.00000000000E+00 -0.00000000000E+00 -0.28264005005E+03  0.28264005005E+03  0.00000000000E+00 0. -1.
         23    2    1    2    0    0  0.11662297275E+03 -0.15101038334E+03  0.56418409250E+01  0.22821965152E+03  0.12508926940E+03 0.  0.
          5    1    3    3  502    0 -0.64210836670E+01 -0.77871694480E+02  0.28358072578E+02  0.83227902755E+02  0.41800000000E+01 0.  1.
         -5    1    3    3    0  502  0.12304405642E+03 -0.73138688863E+02 -0.22716231653E+02  0.14499174876E+03  0.41800000000E+01 0.  1.
        -11    1    1    2    0    0 -0.48919325134E+02  0.11194142367E+03 -0.10061422732E+03  0.15826308933E+03  0.00000000000E+00 0. -1.
         11    1    1    2    0    0 -0.67703647617E+02  0.39068959672E+02 -0.54665008045E+01  0.78358472047E+02  0.00000000000E+00 0.  1.
</event>
<event>
 7    1  0.6473813E-006  0.1434438E+03  0.7561462E-02  0.1208769E+00
         -1   -1    0    0    0  501 -0.00000000000E+00  0.00000000000E+00  0.12837732667E+04  0.12837732667E+04  0.00000000000E+00 0.  1.
          1   -1    0    0  501    0  0.00000000000E+00 -0.00000000000E+00 -0.18514454350E+02  0.18514454350E+02  0.00000000000E+00 0. -1.
         23    2    1    2    0    0 -0.95709705625E+02 -0.37603984526E+02  0.84216016491E+03  0.85758697024E+03  0.12508901132E+03 0.  0.
          5    1    3    3  502    0 -0.55419545871E+02  0.36819051149E+02  0.52832555594E+03  0.53251510219E+03  0.41800000000E+01 0.  1.
         -5    1    3    3    0  502 -0.40290159754E+02 -0.74423035676E+02  0.31383460897E+03  0.32507186805E+03  0.41800000000E+01 0.  1.
        -11    1    1    2    0    0  0.41910215425E+02  0.63261074551E+02  0.26824891599E+03  0.27877573539E+03  0.00000000000E+00 0.  1.
         11    1    1    2    0    0  0.53799490200E+02 -0.25657090025E+02  0.15484973141E+03  0.16592501539E+03  0.00000000000E+00 0. -1.
</event>
<event>
 7    1  0.6473813E-006  0.1247160E+03  0.7561462E-02  0.1235514E+00
         -1   -1    0    0    0  501 -0.00000000000E+00  0.00000000000E+00  0.21376666563E+02  0.21376666563E+02  0.00000000000E+00 0.  1.
          1   -1    0    0  501    0  0.00000000000E+00 -0.00000000000E+00 -0.88964770490E+03  0.88964770490E+03  0.00000000000E+00 0. -1.
         23    2    1    2    0    0  0.76292560391E+02  0.30469407412E+02 -0.53279827655E+03  0.55341751063E+03  0.12509195826E+03 0.  0.
          5    1    3    3  502    0  0.47345589933E+02  0.78540227391E+02 -0.28996621839E+03  0.30415136431E+03  0.41800000000E+01 0.  1.
         -5    1    3    3    0  502  0.28946970458E+02 -0.48070819979E+02 -0.24283205815E+03  0.24926614632E+03  0.41800000000E+01 0.  1.
        -11    1    1    2    0    0 -0.28608033563E+02 -0.43375886319E+02 -0.67837706467E+02  0.85450813437E+02  0.00000000000E+00 0.  1.
         11    1    1    2    0    0 -0.47684526829E+02  0.12906478907E+02 -0.26763505532E+03  0.27215604739E+03  0.00000000000E+00 0. -1.
</event>
<event>
 7    1  0.6473813E-006  0.9994031E+02  0.7561462E-02  0.1280422E+00
          1   -1    0    0  501    0  0.00000000000E+00  0.00000000000E+00  0.20316227117E+03  0.20316227117E+03  0.00000000000E+00 0. -1.
         -1   -1    0    0    0  501 -0.00000000000E+00 -0.00000000000E+00 -0.69744636499E+02  0.69744636499E+02  0.00000000000E+00 0.  1.
         23    2    1    2    0    0  0.77979588522E+01 -0.46485673464E+02  0.64261891968E+02  0.14895921504E+03  0.12584725260E+03 0.  0.
          5    1    3    3  502    0  0.65713107182E+02 -0.36942840666E+02  0.34340570670E+02  0.82944156671E+02  0.41800000000E+01 0. -1.
         -5    1    3    3    0  502 -0.57915148329E+02 -0.95428327974E+01  0.29921321298E+02  0.66015058373E+02  0.41800000000E+01 0.  1.
        -11    1    1    2    0    0  0.19186993940E+02  0.20311304382E+02  0.80067294911E+02  0.84802485438E+02  0.00000000000E+00 0. -1.
         11    1    1    2    0    0 -0.26984952792E+02  0.26174369082E+02 -0.10911552208E+02  0.39145207186E+02  0.00000000000E+00 0.  1.
</event>
<event>
 7    1  0.6473813E-006  0.1780793E+03  0.7561462E-02  0.1169675E+00
         -3   -1    0    0    0  501 -0.00000000000E+00  0.00000000000E+00  0.10926450408E+03  0.10926450408E+03  0.00000000000E+00 0.  1.
          3   -1    0    0  501    0  0.00000000000E+00 -0.00000000000E+00 -0.47900741007E+03  0.47900741007E+03  0.00000000000E+00 0. -1.
         23    2    1    2    0    0 -0.13779917422E+03 -0.52750994011E+02 -0.15866623984E+02  0.19408362841E+03  0.12508167443E+03 0.  0.
          5    1    3    3  502    0 -0.11368751491E+03 -0.92300178316E+02 -0.17549255794E+02  0.14754532437E+03  0.41800000000E+01 0.  1.
         -5    1    3    3    0  502 -0.24111659309E+02  0.39549184305E+02  0.16826318107E+01  0.46538304048E+02  0.41800000000E+01 0.  1.
        -11    1    1    2    0    0  0.89487243646E+02  0.68109569696E+02 -0.17297631754E+03  0.20631938031E+03  0.00000000000E+00 0. -1.
         11    1    1    2    0    0  0.48311930572E+02 -0.15358575685E+02 -0.18089996447E+03  0.18786890543E+03  0.00000000000E+00 0.  1.
</event>
<event>
 7    1  0.6473813E-006  0.1123756E+03  0.7561462E-02  0.1256233E+00
          2   -1    0    0  501    0  0.00000000000E+00  0.00000000000E+00  0.41512035420E+03  0.41512035420E+03  0.00000000000E+00 0. -1.
         -2   -1    0    0    0  501 -0.00000000000E+00 -0.00000000000E+00 -0.46923978896E+02  0.46923978896E+02  0.00000000000E+00 0.  1.
         23    2    1    2    0    0  0.29544564501E+02 -0.41730488090E+02  0.80259279530E+02  0.15717384224E+03  0.12509096612E+03 0.  0.
          5    1    3    3  502    0  0.53102308436E+02  0.24444455231E+02  0.60168292809E+02  0.83994537992E+02  0.41800000000E+01 0.  1.
         -5    1    3    3    0  502 -0.23557743935E+02 -0.66174943321E+02  0.20090986720E+02  0.73179304248E+02  0.41800000000E+01 0.  1.
        -11    1    1    2    0    0 -0.29957839214E+02  0.65488027320E+02  0.17103131585E+03  0.18557441864E+03  0.00000000000E+00 0.  1.
         11    1    1    2    0    0  0.41327471240E+00 -0.23757539231E+02  0.11690577992E+03  0.11929607221E+03  0.00000000000E+00 0. -1.
</event>
<event>
 7    1  0.6473813E-006  0.7958095E+02  0.7561462E-02  0.1330245E+00
          1   -1    0    0  501    0  0.00000000000E+00  0.00000000000E+00  0.63278437454E+02  0.63278437454E+02  0.00000000000E+00 0. -1.
         -1   -1    0    0    0  501 -0.00000000000E+00 -0.00000000000E+00 -0.17496784770E+03  0.17496784770E+03  0.00000000000E+00 0.  1.
         23    2    1    2    0    0  0.88411816898E+01 -0.16402859742E+02 -0.84369454277E+02  0.14168915571E+03  0.11229600051E+03 0.  0.
          5    1    3    3  502    0 -0.16860072537E+02  0.40964570857E+02 -0.58704382980E+02  0.73661625644E+02  0.41800000000E+01 0. -1.
         -5    1    3    3    0  502  0.25701254227E+02 -0.57367430600E+02 -0.25665071296E+02  0.68027530068E+02  0.41800000000E+01 0.  1.
        -11    1    1    2    0    0  0.16733395017E+02  0.19736385557E+02 -0.53734298792E+02  0.59639804580E+02  0.00000000000E+00 0.  1.
         11    1    1    2    0    0 -0.25574576707E+02 -0.33335258145E+01  0.26414342823E+02  0.36917324861E+02  0.00000000000E+00 0. -1.
</event>
<event>
 7    1  0.6473813E-006  0.9795956E+02  0.7561462E-02  0.1284646E+00
         -2   -1    0    0    0  501 -0.00000000000E+00  0.00000000000E+00  0.37836228287E+02  0.37836228287E+02  0.00000000000E+00 0.  1.
          2   -1    0    0  501    0  0.00000000000E+00 -0.00000000000E+00 -0.44024118878E+03  0.44024118878E+03  0.00000000000E+00 0. -1.
         23    2    1    2    0    0  0.68636697019E+02 -0.11920551513E+02 -0.21707112803E+03  0.26003618984E+03  0.12508337089E+03 0.  0.
          5    1    3    3  502    0  0.38730897590E+02 -0.40885483464E+02 -0.21017431015E+03  0.21762908407E+03  0.41800000000E+01 0. -1.
         -5    1    3    3    0  502  0.29905799429E+02  0.28964931951E+02 -0.68968178808E+01  0.42407105764E+02  0.41800000000E+01 0. -1.
        -11    1    1    2    0    0 -0.55452397036E+02  0.38790691924E+02 -0.17282474903E+03  0.18560193963E+03  0.00000000000E+00 0.  1.
         11    1    1    2    0    0 -0.13184299984E+02 -0.26870140411E+02 -0.12509083430E+02  0.32439287600E+02  0.00000000000E+00 0. -1.
</event>
<event>
 7    1  0.6473813E-006  0.2563117E+03  0.7561462E-02  0.1109380E+00
          1   -1    0    0  501    0  0.00000000000E+00  0.00000000000E+00  0.15077103714E+03  0.15077103714E+03  0.00000000000E+00 0. -1.
         -1   -1    0    0    0  501 -0.00000000000E+00 -0.00000000000E+00 -0.52370622873E+03  0.52370622873E+03  0.00000000000E+00 0.  1.
         23    2    1    2    0    0 -0.23642245780E+03  0.90411671053E+02 -0.25744172450E+03  0.38210075134E+03  0.12511951824E+03 0.  0.
          5    1    3    3  502    0 -0.53218183588E+02 -0.34526144285E+01 -0.13566681478E+01  0.53510826562E+02  0.41800000000E+01 0. -1.
         -5    1    3    3    0  502 -0.18320427421E+03  0.93864285481E+02 -0.25608505635E+03  0.32858992478E+03  0.41800000000E+01 0. -1.
        -11    1    1    2    0    0  0.72659198176E+02 -0.24005328620E+02  0.77747461779E+01  0.76915938270E+02  0.00000000000E+00 0. -1.
         11    1    1    2    0    0  0.16376325962E+03 -0.66406342433E+02 -0.12326821327E+03  0.21546057626E+03  0.00000000000E+00 0.  1.
</event>
<event>
 7    1  0.6473813E-006  0.1016198E+03  0.7561462E-02  0.1276926E+00
         -1   -1    0    0    0  501 -0.00000000000E+00  0.00000000000E+00  0.20363568932E+03  0.20363568932E+03  0.00000000000E+00 0.  1.
          1   -1    0    0  501    0  0.00000000000E+00 -0.00000000000E+00 -0.95879115032E+02  0.95879115032E+02  0.00000000000E+00 0. -1.
         23    2    1    2    0    0  0.18815147741E+02  0.36580805516E+02  0.14153791189E+03  0.19332029841E+03  0.12509033600E+03 0.  0.
          5    1    3    3  502    0 -0.32251303423E+02 -0.23070842652E+02  0.92291994502E+02  0.10053703299E+03  0.41800000000E+01 0. -1.
         -5    1    3    3    0  502  0.51066451165E+02  0.59651648167E+02  0.49245917387E+02  0.92783265425E+02  0.41800000000E+01 0. -1.
        -11    1    1    2    0    0 -0.40546637196E+02  0.18414871111E+01 -0.45049058988E+02  0.60636940707E+02  0.00000000000E+00 0. -1.
         11    1    1    2    0    0  0.21731489455E+02 -0.38422292627E+02  0.11267721390E+02  0.45557565233E+02  0.00000000000E+00 0.  1.
</event>
<event>
 7    1  0.6473813E-006  0.1063309E+03  0.7561462E-02  0.1267519E+00
          1   -1    0    0  501    0  0.00000000000E+00  0.00000000000E+00  0.37503162056E+03  0.37503162056E+03  0.00000000000E+00 0. -1.
         -1   -1    0    0    0  501 -0.00000000000E+00 -0.00000000000E+00 -0.32215277813E+02  0.32215277813E+02  0.00000000000E+00 0.  1.
         23    2    1    2    0    0  0.72882300980E+01 -0.17574129306E+02  0.16933042811E+03  0.21137674548E+03  0.12508143879E+03 0.  0.
          5    1    3    3  502    0  0.50430640583E+02  0.29511971843E+02  0.55003776022E+02  0.80356043757E+02  0.41800000000E+01 0.  1.
         -5    1    3    3    0  502 -0.43142410485E+02 -0.47086101149E+02  0.11432665208E+03  0.13102070172E+03  0.41800000000E+01 0.  1.
        -11    1    1    2    0    0 -0.32216055536E+02 -0.24979044872E+02  0.91919585836E+02  0.10055365323E+03  0.00000000000E+00 0. -1.
         11    1    1    2    0    0  0.24927825438E+02  0.42553174178E+02  0.81566328807E+02  0.95316499667E+02  0.00000000000E+00 0.  1.
</event>
<event>
 7    1  0.6473813E-006  0.1222118E+03  0.7561462E-02  0.1239492E+00
          1   -1    0    0  501    0  0.00000000000E+00  0.00000000000E+00  0.22952966435E+02  0.22952966435E+02  0.00000000000E+00 0. -1.
         -1   -1    0    0    0  501 -0.00000000000E+00 -0.00000000000E+00 -0.70028819017E+03  0.70028819017E+03  0.00000000000E+00 0.  1.
         23    2    1    2    0    0  0.59448887539E+02  0.64783459829E+01 -0.42695998081E+03  0.44890403116E+03  0.12507543635E+03 0.  0.
          5    1    3    3  502    0  0.40783566067E+02 -0.56685732342E+02 -0.26337935252E+03  0.27251188459E+03  0.41800000000E+01 0. -1.
         -5    1    3    3    0  502  0.18665321471E+02  0.63164078325E+02 -0.16358062829E+03  0.17639214656E+03  0.41800000000E+01 0. -1.
        -11    1    1    2    0    0 -0.46192213058E+02  0.39400738754E+02 -0.17371021684E+03  0.18401461409E+03  0.00000000000E+00 0.  1.
         11    1    1    2    0    0 -0.13256674481E+02 -0.45879084737E+02 -0.76665026076E+02  0.90322511357E+02  0.00000000000E+00 0. -1.
</event>
<event>
 7    1  0.6473813E-006  0.1877803E+03  0.7561462E-02  0.1160479E+00
         -1   -1    0    0    0  501 -0.00000000000E+00  0.00000000000E+00  0.22212646001E+03  0.22212646001E+03  0.00000000000E+00 0.  1.
          1   -1    0    0  501    0  0.00000000000E+00 -0.00000000000E+00 -0.19454790814E+03  0.19454790814E+03  0.00000000000E+00 0. -1.
         23    2    1    2    0    0  0.89764781513E+02  0.14148502377E+03  0.76711029353E+02  0.22272956675E+03  0.12509256544E+03 0.  0.
          5    1    3    3  502    0 -0.18039588593E+02  0.26353861824E+02 -0.19766547772E+02  0.37790760782E+02  0.41800000000E+01 0. -1.
         -5    1    3    3    0  502  0.10780437011E+03  0.11513116194E+03  0.96477577125E+02  0.18493880597E+03  0.41800000000E+01 0. -1.
        -11    1    1    2    0    0 -0.97169783244E+02 -0.86508596868E+02 -0.21125778005E+02  0.13180289300E+03  0.00000000000E+00 0. -1.
         11    1    1    2    0    0  0.74050017308E+01 -0.54976426897E+02 -0.28006699479E+02  0.62141908409E+02  0.00000000000E+00 0.  1.
</event>
<event>
 7    1  0.6473813E-006  0.1145189E+03  0.7561462E-02  0.1252423E+00
         -1   -1    0    0    0  501 -0.00000000000E+00  0.00000000000E+00  0.25093966963E+02  0.25093966963E+02  0.00000000000E+00 0.  1.
          1   -1    0    0  501    0  0.00000000000E+00 -0.00000000000E+00 -0.63281075683E+03  0.63281075683E+03  0.00000000000E+00 0. -1.
         23    2    1    2    0    0 -0.69915347357E+01  0.57941559504E+02 -0.26384435577E+03  0.29777041556E+03  0.12508905003E+03 0.  0.
          5    1    3    3  502    0  0.47644216771E+02  0.66483130511E+02 -0.14260586618E+03  0.16445024628E+03  0.41800000000E+01 0. -1.
         -5    1    3    3    0  502 -0.54635751506E+02 -0.85415710071E+01 -0.12123848959E+03  0.13332016928E+03  0.41800000000E+01 0. -1.
        -11    1    1    2    0    0 -0.30593028782E+02 -0.39078067382E+02 -0.89766666195E+02  0.10257233116E+03  0.00000000000E+00 0.  1.
         11    1    1    2    0    0  0.37584563518E+02 -0.18863492122E+02 -0.25410576790E+03  0.25756197706E+03  0.00000000000E+00 0. -1.
</event>
<event>
 7    1  0.6473813E-006  0.1293492E+03  0.7561462E-02  0.1228425E+00
         -4   -1    0    0    0  501 -0.00000000000E+00  0.00000000000E+00  0.76821229125E+02  0.76821229125E+02  0.00000000000E+00 0.  1.
          4   -1    0    0  501    0  0.00000000000E+00 -0.00000000000E+00 -0.34299704499E+03  0.34299704499E+03  0.00000000000E+00 0. -1.
         23    2    1    2    0    0  0.92329729480E+02  0.45796017311E+02 -0.66124229313E+02  0.17505597810E+03  0.12510047009E+03 0.  0.
          5    1    3    3  502    0  0.45515396535E+02  0.67679948201E+02 -0.86854126470E+02  0.11921970640E+03  0.41800000000E+01 0.  1.
         -5    1    3    3    0  502  0.46814332945E+02 -0.21883930890E+02  0.20729897157E+02  0.55836271692E+02  0.41800000000E+01 0.  1.
        -11    1    1    2    0    0 -0.68245443033E+02  0.55499997511E+01 -0.16358376653E+03  0.17733553413E+03  0.00000000000E+00 0. -1.
         11    1    1    2    0    0 -0.24084286447E+02 -0.51346017062E+02 -0.36467820016E+02  0.67426761887E+02  0.00000000000E+00 0.  1.
</event>
<event>
 7    1  0.6473813E-006  0.8893229E+02  0.7561462E-02  0.1305458E+00
         -4   -1    0    0    0  501 -0.00000000000E+00  0.00000000000E+00  0.29639770481E+02  0.29639770481E+02  0.00000000000E+00 0.  1.
          4   -1    0    0  501    0  0.00000000000E+00 -0.00000000000E+00 -0.46303581113E+03  0.46303581113E+03  0.00000000000E+00 0. -1.
         23    2    1    2    0    0 -0.10148995676E+02 -0.31399041838E+02 -0.18236383460E+03  0.22359156059E+03  0.12509083042E+03 0.  0.
          5    1    3    3  502    0  0.24911040783E+02  0.94604049259E+01 -0.16452270561E+03  0.16671908192E+03  0.41800000000E+01 0. -1.
         -5    1    3    3    0  502 -0.35060036459E+02 -0.40859446764E+02 -0.17841128987E+02  0.56872478668E+02  0.41800000000E+01 0. -1.
        -11    1    1    2    0    0 -0.40737225505E+02  0.15347035465E+02 -0.11438390545E+03  0.12238762546E+03  0.00000000000E+00 0. -1.
         11    1    1    2    0    0  0.50886221181E+02  0.16052006373E+02 -0.13664830060E+03  0.14669639557E+03  0.00000000000E+00 0.  1.
</event>
<event>
 7    1  0.6473813E-006  0.1707864E+03  0.7561462E-02  0.1177030E+00
          1   -1    0    0  501    0  0.00000000000E+00  0.00000000000E+00  0.91241257381E+02  0.91241257381E+02  0.00000000000E+00 0. -1.
         -1   -1    0    0    0  501 -0.00000000000E+00 -0.00000000000E+00 -0.36446182122E+03  0.36446182122E+03  0.00000000000E+00 0.  1.
         23    2    1    2    0    0  0.14430014960E+03 -0.64999993529E+01 -0.16914534479E+03  0.25518917097E+03  0.12508629881E+03 0.  0.
          5    1    3    3  502    0  0.83473944676E+01 -0.42281648670E+02 -0.13373477399E+02  0.45318198402E+02  0.41800000000E+01 0. -1.
         -5    1    3    3    0  502  0.13595275513E+03  0.35781649317E+02 -0.15577186739E+03  0.20987097257E+03  0.41800000000E+01 0. -1.
        -11    1    1    2    0    0 -0.44169947212E+02  0.31709016315E+02 -0.76113762043E+02  0.93540102227E+02  0.00000000000E+00 0.  1.
         11    1    1    2    0    0 -0.10013020238E+03 -0.25209016962E+02 -0.27961457005E+02  0.10697380541E+03  0.00000000000E+00 0. -1.
</event>
<event>
 7    1  0.6473813E-006  0.1105012E+03  0.7561462E-02  0.1259645E+00
         -1   -1    0    0    0  501 -0.00000000000E+00  0.00000000000E+00  0.10568477153E+04  0.10568477153E+04  0.00000000000E+00 0.  1.
          1   -1    0    0  501    0  0.00000000000E+00 -0.00000000000E+00 -0.12978175028E+02  0.12978175028E+02  0.00000000000E+00 0. -1.
         23    2    1    2    0    0  0.69343642491E+01 -0.20216125406E+02  0.74272822247E+03  0.75349082042E+03  0.12508567808E+03 0.  0.
          5    1    3    3  502    0 -0.48179777927E+02  0.25089196939E+02  0.36761045906E+03  0.37162572679E+03  0.41800000000E+01 0.  1.
         -5    1    3    3    0  502  0.55114142176E+02 -0.45305322346E+02  0.37511776342E+03  0.38186509363E+03  0.41800000000E+01 0.  1.
        -11    1    1    2    0    0 -0.40918825348E+02  0.38740006610E+02  0.20738037982E+03  0.21489941906E+03  0.00000000000E+00 0. -1.
         11    1    1    2    0    0  0.33984461099E+02 -0.18523881204E+02  0.93760937933E+02  0.10143565080E+03  0.00000000000E+00 0.  1.
</event>
<event>
 7    1  0.6473813E-006  0.9538395E+02  0.7561462E-02  0.1290314E+00
         -1   -1    0    0    0  501 -0.00000000000E+00  0.00000000000E+00  0.47264124128E+03  0.47264124128E+03  0.00000000000E+00 0.  1.
          1   -1    0    0  501    0  0.00000000000E+00 -0.00000000000E+00 -0.25349331979E+02  0.25349331979E+02  0.00000000000E+00 0. -1.
         23    2    1    2    0    0 -0.96098875796E+01  0.91431713323E+01  0.28641612009E+03  0.31282188851E+03  0.12508953817E+03 0.  0.
          5    1    3    3  502    0 -0.56088421067E+02 -0.11448928862E+02  0.70236962707E+02  0.90706627543E+02  0.41800000000E+01 0.  1.
         -5    1    3    3    0  502  0.46478533488E+02  0.20592100194E+02  0.21617915738E+03  0.22211526096E+03  0.41800000000E+01 0.  1.
        -11    1    1    2    0    0  0.44533921171E+02 -0.14915185252E+02  0.12990703266E+03  0.13813605619E+03  0.00000000000E+00 0.  1.
         11    1    1    2    0    0 -0.34924033592E+02  0.57720139200E+01  0.30968756552E+02  0.47032628561E+02  0.00000000000E+00 0. -1.
</event>
<event>
 7    1  0.6473813E-006  0.8683917E+02  0.7561462E-02  0.1310692E+00
         -3   -1    0    0    0  501 -0.00000000000E+00  0.00000000000E+00  0.45996529981E+03  0.45996529981E+03  0.00000000000E+00 0.  1.
          3   -1    0    0  501    0  0.00000000000E+00 -0.00000000000E+00 -0.26076071121E+02  0.26076071121E+02  0.00000000000E+00 0. -1.
         23    2    1    2    0    0 -0.25397671792E+02  0.24208844794E+02  0.40098778093E+03  0.42150788022E+03  0.12508630114E+03 0.  0.
          5    1    3    3  502    0 -0.53700088623E+01 -0.46966423203E+02  0.23506936345E+03  0.23981192617E+03  0.41800000000E+01 0.  1.
         -5    1    3    3    0  502 -0.20027662929E+02  0.71175267997E+02  0.16591841748E+03  0.18169595404E+03  0.41800000000E+01 0.  1.
        -11    1    1    2    0    0 -0.25069504512E+01 -0.24129452475E+02  0.26454558281E+02  0.35893717155E+02  0.00000000000E+00 0.  1.
         11    1    1    2    0    0  0.27904622243E+02 -0.79392318888E-01  0.64468894829E+01  0.28639773562E+02  0.00000000000E+00 0. -1.
</event>
<event>
 7    1  0.6473813E-006  0.1268414E+03  0.7561462E-02  0.1232219E+00
         -1   -1    0    0    0  501 -0.00000000000E+00  0.00000000000E+00  0.39374477710E+02  0.39374477710E+02  0.00000000000E+00 0.  1.
          1   -1    0    0  501    0  0.00000000000E+00 -0.00000000000E+00 -0.43319302561E+03  0.43319302561E+03  0.00000000000E+00 0. -1.
         23    2    1    2    0    0  0.53556435050E+02  0.48215167627E+02 -0.20345457985E+03  0.24946549959E+03  0.12508507225E+03 0.  0.
          5    1    3    3  502    0  0.38003640834E+02  0.89272594448E+02 -0.11420527303E+03  0.14991394073E+03  0.41800000000E+01 0.  1.
         -5    1    3    3    0  502  0.15552794216E+02 -0.41057426821E+02 -0.89249306814E+02  0.99551558862E+02  0.41800000000E+01 0.  1.
        -11    1    1    2    0    0 -0.73629425515E+02 -0.17349149733E+02 -0.15281678341E+03  0.17051467558E+03  0.00000000000E+00 0. -1.
         11    1    1    2    0    0  0.20072990466E+02 -0.30866017894E+02 -0.37547184644E+02  0.52587328146E+02  0.00000000000E+00 0.  1.
</event>
<event>
 7    1  0.6473813E-006  0.1168352E+03  0.7561462E-02  0.1248411E+00
         -2   -1    0    0    0  501 -0.00000000000E+00  0.00000000000E+00  0.27116721476E+02  0.27116721476E+02  0.00000000000E+00 0.  1.
          2   -1    0    0  501    0  0.00000000000E+00 -0.00000000000E+00 -0.52755091879E+03  0.52755091879E+03  0.00000000000E+00 0. -1.
         23    2    1    2    0    0  0.18976822939E+02  0.44717291167E+02 -0.26835830745E+03  0.30003885283E+03  0.12508947233E+03 0.  0.
          5    1    3    3  502    0  0.37036387968E+02 -0.32628860709E+02 -0.14532423179E+03  0.15353482123E+03  0.41800000000E+01 0.  1.
         -5    1    3    3    0  502 -0.18059565029E+02  0.77346151877E+02 -0.12303407567E+03  0.14650403160E+03  0.41800000000E+01 0.  1.
        -11    1    1    2    0    0 -0.52293342579E+00  0.28797601407E+02 -0.57572040031E+02  0.64374801744E+02  0.00000000000E+00 0.  1.
         11    1    1    2    0    0 -0.18453889514E+02 -0.73514892575E+02 -0.17450384983E+03  0.19025398570E+03  0.00000000000E+00 0. -1.
</event>
<event>
 7    1  0.6473813E-006  0.1740869E+03  0.7561462E-02  0.1173652E+00
         -1   -1    0    0    0  501 -0.00000000000E+00  0.00000000000E+00  0.23344066075E+02  0.23344066075E+02  0.00000000000E+00 0.  1.
          1   -1    0    0  501    0  0.00000000000E+00 -0.00000000000E+00 -0.14609735372E+04  0.14609735372E+04  0.00000000000E+00 0. -1.
         23    2    1    2    0    0 -0.13681213859E+03 -0.45865316825E+02 -0.61719196820E+03  0.64611237622E+03  0.12535584766E+03 0.  0.
          5    1    3    3  502    0 -0.60921609047E+02 -0.75602452355E+02 -0.21827938863E+03  0.23893626170E+03  0.41800000000E+01 0. -1.
         -5    1    3    3    0  502 -0.75890529541E+02  0.29737135531E+02 -0.39891257957E+03  0.40717611453E+03  0.41800000000E+01 0. -1.
        -11    1    1    2    0    0  0.61291683951E+01  0.37960920017E+02 -0.13466580801E+03  0.14004812745E+03  0.00000000000E+00 0.  1.
         11    1    1    2    0    0  0.13068297019E+03  0.79043968077E+01 -0.68577169487E+03  0.69815709957E+03  0.00000000000E+00 0. -1.
</event>
<event>
 7    1  0.6473813E-006  0.1545808E+03  0.7561462E-02  0.1194955E+00
          4   -1    0    0  501    0  0.00000000000E+00  0.00000000000E+00  0.21330989454E+03  0.21330989454E+03  0.00000000000E+00 0. -1.
         -4   -1    0    0    0  501 -0.00000000000E+00 -0.00000000000E+00 -0.13706614174E+03  0.13706614174E+03  0.00000000000E+00 0.  1.
         23    2    1    2    0    0 -0.39644817490E+02 -0.11387290314E+03 -0.80000921809E+00  0.17374380083E+03  0.12509004233E+03 0.  0.
          5    1    3    3  502    0 -0.65457896779E+02 -0.10576725080E+03  0.34428109914E+02  0.12912867515E+03  0.41800000000E+01 0. -1.
         -5    1    3    3    0  502  0.25813079288E+02 -0.81056523358E+01 -0.35228119133E+02  0.44615125683E+02  0.41800000000E+01 0. -1.
        -11    1    1    2    0    0  0.14435385758E+02  0.12774373876E+03  0.72230931441E+02  0.14745897942E+03  0.00000000000E+00 0. -1.
         11    1    1    2    0    0  0.25209431732E+02 -0.13870835620E+02  0.48128305799E+01  0.29173256027E+02  0.00000000000E+00 0.  1.
</event>
<event>
 7    1  0.6473813E-006  0.8838790E+02  0.7561462E-02  0.1306803E+00
          1   -1    0    0  501    0  0.00000000000E+00  0.00000000000E+00  0.60674724650E+03  0.60674724650E+03  0.00000000000E+00 0. -1.
         -1   -1    0    0    0  501 -0.00000000000E+00 -0.00000000000E+00 -0.45844787753E+02  0.45844787753E+02  0.00000000000E+00 0.  1.
         23    2    1    2    0    0  0.52374161470E+02 -0.12000266638E+02  0.75564043573E+02  0.15570669518E+03  0.12509033158E+03 0.  0.
          5    1    3    3  502    0  0.48477245400E+02 -0.27902925092E+02 -0.19324220662E+02  0.59325495821E+02  0.41800000000E+01 0.  1.
         -5    1    3    3    0  502  0.38969160702E+01  0.15902658454E+02  0.94888264235E+02  0.96381199361E+02  0.41800000000E+01 0.  1.
        -11    1    1    2    0    0  0.25222852800E+02  0.62018507927E+01  0.78906897834E+02  0.83071979526E+02  0.00000000000E+00 0.  1.
         11    1    1    2    0    0 -0.77597014270E+02  0.57984158454E+01  0.40643151734E+03  0.41381335955E+03  0.00000000000E+00 0. -1.
</event>
<event>
 6    1  0.6473813E-006  0.2280723E+03  0.7561462E-02  0.1128004E+00
          2   -1    0    0  501    0  0.00000000000E+00  0.00000000000E+00  0.11351808963E+04  0.11351808963E+04  0.00000000000E+00 0. -1.
         -2   -1    0    0    0  501 -0.00000000000E+00 -0.00000000000E+00 -0.52205911831E+02  0.52205911831E+02  0.00000000000E+00 0.  1.
          5    1    1    2  502    0  0.62579633872E+02 -0.46650166662E+02  0.12818573677E+03  0.15013828338E+03  0.41800000000E+01 0. -1.
         -5    1    1    2    0  502  0.72710766786E+02  0.16561406550E+03  0.28396185182E+03  0.33669968813E+03  0.41800000000E+01 0.  1.
        -11    1    1    2    0    0 -0.81611502182E+02 -0.11787228827E+03  0.41259178403E+03  0.43679090407E+03  0.00000000000E+00 0. -1.
         11    1    1    2    0    0 -0.53678898476E+02 -0.10916105626E+01  0.25823561182E+03  0.26375793252E+03  0.00000000000E+00 0.  1.
</event>
<event>
 7    1  0.6473813E-006  0.1000190E+03  0.7561462E-02  0.1280256E+00
          3   -1    0    0  501    0  0.00000000000E+00  0.00000000000E+00  0.15113525621E+03  0.15113525621E+03  0.00000000000E+00 0. -1.
         -3   -1    0    0    0  501 -0.00000000000E+00 -0.00000000000E+00 -0.11840937071E+03  0.11840937071E+03  0.00000000000E+00 0.  1.
         23    2    1    2    0    0  0.53487656326E+02 -0.70676423430E+02  0.12008009268E+02  0.15378105200E+03  0.12509329902E+03 0.  0.
          5    1    3    3  502    0  0.19574829373E+02 -0.54670546803E+02  0.65937745081E+02  0.87961930737E+02  0.41800000000E+01 0.  1.
         -5    1    3    3    0  502  0.33912826953E+02 -0.16005876627E+02 -0.53929735812E+02  0.65819121259E+02  0.41800000000E+01 0.  1.
        -11    1    1    2    0    0 -0.16564682015E+02  0.64570672822E+02 -0.99225865227E+01  0.67395980609E+02  0.00000000000E+00 0.  1.
         11    1    1    2    0    0 -0.36922974311E+02  0.61057506081E+01  0.30640462746E+02  0.48367594314E+02  0.00000000000E+00 0. -1.
</event>
<event>
 7    1  0.6473813E-006  0.9926816E+02  0.7561462E-02  0.1281842E+00
         -1   -1    0    0    0  501 -0.00000000000E+00  0.00000000000E+00  0.75069308917E+02  0.75069308917E+02  0.00000000000E+00 0.  1.
          1   -1    0    0  501    0  0.00000000000E+00 -0.00000000000E+00 -0.30140754537E+03  0.30140754537E+03  0.00000000000E+00 0. -1.
         23    2    1    2    0    0 -0.46922421492E+02  0.81978664889E+02 -0.57507051905E+02  0.16695794324E+03  0.12508268727E+03 0.  0.
          5    1    3    3  502    0 -0.23263082670E+02  0.53271866754E+02  0.34431231726E+02  0.67690803813E+02  0.41800000000E+01 0. -1.
         -5    1    3    3    0  502 -0.23659338822E+02  0.28706798135E+02 -0.91938283630E+02  0.99267139424E+02  0.41800000000E+01 0. -1.
        -11    1    1    2    0    0  0.52949307310E+02 -0.59955073893E+02 -0.16868038539E+03  0.18668506219E+03  0.00000000000E+00 0. -1.
         11    1    1    2    0    0 -0.60268858180E+01 -0.22023590996E+02 -0.15079915206E+00  0.22833848852E+02  0.00000000000E+00 0.  1.
</event>
<event>
 7    1  0.6473813E-006  0.1423087E+03  0.7561462E-02  0.1210256E+00
          2   -1    0    0  501    0  0.00000000000E+00  0.00000000000E+00  0.47540920318E+03  0.47540920318E+03  0.00000000000E+00 0. -1.
         -2   -1    0    0    0  501 -0.00000000000E+00 -0.00000000000E+00 -0.48003636552E+02  0.48003636552E+02  0.00000000000E+00 0.  1.
         23    2    1    2    0    0 -0.71407308273E+02  0.75604352467E+02  0.24901556588E+03  0.29744061601E+03  0.12508855349E+03 0.  0.
          5    1    3    3  502    0 -0.70557405590E+02 -0.66604414776E+01  0.16574447284E+03  0.18030921120E+03  0.41800000000E+01 0.  1.
         -5    1    3    3    0  502 -0.84990268331E+00  0.82264793945E+02  0.83271093035E+02  0.11713140481E+03  0.41800000000E+01 0.  1.
        -11    1    1    2    0    0 -0.75929915797E+01  0.11419914389E+02  0.17818105908E+01  0.13829056901E+02  0.00000000000E+00 0.  1.
         11    1    1    2    0    0  0.79000299853E+02 -0.87024266857E+02  0.17660819016E+03  0.21214316682E+03  0.00000000000E+00 0. -1.
</event>
<event>
 7    1  0.6473813E-006  0.1296101E+03  0.7561462E-02  0.1228035E+00
         -2   -1    0    0    0  501 -0.00000000000E+00  0.00000000000E+00  0.22298368070E+02  0.22298368070E+02  0.00000000000E+00 0.  1.
          2   -1    0    0  501    0  0.00000000000E+00 -0.00000000000E+00 -0.94434731771E+03  0.94434731771E+03  0.00000000000E+00 0. -1.
         23    2    1    2    0    0  0.75304079607E+02 -0.61710595062E+02 -0.50995913277E+03  0.53402555306E+03  0.12508426071E+03 0.  0.
          5    1    3    3  502    0  0.57779827836E+02 -0.92810774218E+02 -0.26895300280E+03  0.29035416035E+03  0.41800000000E+01 0. -1.
         -5    1    3    3    0  502  0.17524251772E+02  0.31100179156E+02 -0.24100612997E+03  0.24367139271E+03  0.41800000000E+01 0. -1.
        -11    1    1    2    0    0  0.38399497423E+01  0.27303706334E+02 -0.29342909966E+02  0.40264673833E+02  0.00000000000E+00 0.  1.
         11    1    1    2    0    0 -0.79144029350E+02  0.34406888728E+02 -0.38274690690E+03  0.39235545888E+03  0.00000000000E+00 0. -1.
</event>
<event>
 7    1  0.6473813E-006  0.1312456E+03  0.7561462E-02  0.1225619E+00
         -3   -1    0    0    0  501 -0.00000000000E+00  0.00000000000E+00  0.14091461930E+03  0.14091461930E+03  0.00000000000E+00 0.  1.
          3   -1    0    0  501    0  0.00000000000E+00 -0.00000000000E+00 -0.15611198024E+03  0.15611198024E+03  0.00000000000E+00 0. -1.
         23    2    1    2    0    0 -0.91363589739E+02  0.25546602108E+02  0.22470108241E+02  0.15859309516E+03  0.12508768788E+03 0.  0.
          5    1    3    3  502    0 -0.99463396851E+02 -0.67354460154E+01  0.53222283298E+02  0.11308588500E+03  0.41800000000E+01 0. -1.
         -5    1    3    3    0  502  0.80998071118E+01  0.32282048124E+02 -0.30752175057E+02  0.45507210165E+02  0.41800000000E+01 0. -1.
        -11    1    1    2    0    0 -0.11419272806E+02 -0.23769208608E+02  0.55035525448E+01  0.26938154352E+02  0.00000000000E+00 0.  1.
         11    1    1    2    0    0  0.10278286255E+03 -0.17773934998E+01 -0.43171021720E+02  0.11149535002E+03  0.00000000000E+00 0. -1.
</event>
<event>
 7    1  0.6473813E-006  0.1191631E+03  0.7561462E-02  0.1244484E+00
         -1   -1    0    0    0  501 -0.00000000000E+00  0.00000000000E+00  0.17426064894E+03  0.17426064894E+03  0.00000000000E+00 0.  1.
          1   -1    0    0  501    0  0.00000000000E+00 -0.00000000000E+00 -0.95428986227E+02  0.95428986227E+02  0.00000000000E+00 0. -1.
         23    2    1    2    0    0  0.54114461950E+02 -0.26648162970E+02  0.83059476370E+02  0.16181495979E+03  0.12508678993E+03 0.  0.
          5    1    3    3  502    0  0.34490598254E+02 -0.76880255847E+02  0.56649697543E+02  0.10162103984E+03  0.41800000000E+01 0. -1.
         -5    1    3    3    0  502  0.19623863696E+02  0.50232092877E+02  0.26409778827E+02  0.60193919949E+02  0.41800000000E+01 0. -1.
        -11    1    1    2    0    0 -0.14927602825E+00 -0.25100938784E+02  0.16801999449E+02  0.30205737810E+02  0.00000000000E+00 0.  1.
         11    1    1    2    0    0 -0.53965185922E+02  0.51749101754E+02 -0.21029813102E+02  0.77668937569E+02  0.00000000000E+00 0. -1.
</event>
<event>
 7    1  0.6473813E-006  0.1344034E+03  0.7561462E-02  0.1221064E+00
         -4   -1    0    0    0  501 -0.00000000000E+00  0.00000000000E+00  0.12904698480E+03  0.12904698480E+03  0.00000000000E+00 0. -1.
          4   -1    0    0  501    0  0.00000000000E+00 -0.00000000000E+00 -0.23476381243E+03  0.23476381243E+03  0.00000000000E+00 0.  1.
         23    2    1    2    0    0 -0.81147199588E+02 -0.18663223661E+02  0.56182977343E+02  0.16042633291E+03  0.12508755905E+03 0.  0.
          5    1    3    3  502    0 -0.26994322794E+02  0.53221305890E+02  0.27789876811E+02  0.65961735248E+02  0.41800000000E+01 0. -1.
         -5    1    3    3    0  502 -0.54152876794E+02 -0.71884529551E+02  0.28393100532E+02  0.94464597664E+02  0.41800000000E+01 0. -1.
        -11    1    1    2    0    0  0.98604852767E+02  0.92064741258E+01 -0.11104155358E+03  0.14878811369E+03  0.00000000000E+00 0. -1.
         11    1    1    2    0    0 -0.17457653178E+02  0.94567495351E+01 -0.50858251398E+02  0.54596350625E+02  0.00000000000E+00 0.  1.
</event>
<event>
 7    1  0.6473813E-006  0.9300752E+02  0.7561462E-02  0.1295728E+00
         -2   -1    0    0    0  501 -0.00000000000E+00  0.00000000000E+00  0.64474566933E+02  0.64474566933E+02  0.00000000000E+00 0.  1.
          2   -1    0    0  501    0  0.00000000000E+00 -0.00000000000E+00 -0.30342114890E+03  0.30342114890E+03  0.00000000000E+00 0. -1.
         23    2    1    2    0    0 -0.20884111279E+02 -0.22873846230E+02 -0.24830294173E+02  0.13123423143E+03  0.12508605456E+03 0.  0.
          5    1    3    3  502    0 -0.34478631149E+02 -0.53383188593E+02 -0.56410851668E+02  0.85077596441E+02  0.41800000000E+01 0. -1.
         -5    1    3    3    0  502  0.13594519869E+02  0.30509342363E+02  0.31580557496E+02  0.46156634990E+02  0.41800000000E+01 0. -1.
        -11    1    1    2    0    0 -0.21355428768E+02  0.38174010047E+02 -0.16225495833E+03  0.16804755542E+03  0.00000000000E+00 0.  1.
         11    1    1    2    0    0  0.42239540047E+02 -0.15300163817E+02 -0.51861329468E+02  0.68613928983E+02  0.00000000000E+00 0. -1.
</event>
<event>
 7    1  0.6473813E-006  0.9802602E+02  0.7561462E-02  0.1284503E+00
          1   -1    0    0  501    0  0.00000000000E+00  0.00000000000E+00  0.25697442161E+03  0.25697442161E+03  0.00000000000E+00 0. -1.
         -1   -1    0    0    0  501 -0.00000000000E+00 -0.00000000000E+00 -0.69126637308E+02  0.69126637308E+02  0.00000000000E+00 0.  1.
         23    2    1    2    0    0 -0.33014385339E+02  0.26838612123E+02  0.23464095520E+02  0.13419630216E+03  0.12509125866E+03 0.  0.
          5    1    3    3  502    0 -0.50454065708E+02 -0.31184323924E+02  0.39498542876E+02  0.71384046498E+02  0.41800000000E+01 0.  1.
         -5    1    3    3    0  502  0.17439680368E+02  0.58022936047E+02 -0.16034447357E+02  0.62812255658E+02  0.41800000000E+01 0.  1.
        -11    1    1    2    0    0  0.35149364579E+02  0.11865018046E+02  0.19470686399E+02  0.41897065678E+02  0.00000000000E+00 0.  1.
         11    1    1    2    0    0 -0.21349792401E+01 -0.38703630169E+02  0.14491300238E+03  0.15000769108E+03  0.00000000000E+00 0. -1.
</event>
<event>
 7    1  0.6473813E-006  0.9145975E+02  0.7561462E-02  0.1299355E+00
          1   -1    0    0  501    0  0.00000000000E+00  0.00000000000E+00  0.41216005474E+02  0.41216005474E+02  0.00000000000E+00 0. -1.
         -1   -1    0    0    0  501 -0.00000000000E+00 -0.00000000000E+00 -0.30511105693E+03  0.30511105693E+03  0.00000000000E+00 0.  1.
         23    2    1    2    0    0  0.14456365666E+01 -0.18189494095E+02 -0.13256623424E+03  0.18317661103E+03  0.12508763651E+03 0.  0.
          5    1    3    3  502    0 -0.36165281652E+02  0.28019623165E+02 -0.11021156183E+03  0.11940304703E+03  0.41800000000E+01 0.  1.
         -5    1    3    3    0  502  0.37610918219E+02 -0.46209117260E+02 -0.22354672414E+02  0.63773564006E+02  0.41800000000E+01 0.  1.
        -11    1    1    2    0    0 -0.26756931710E+02  0.37039390080E+02 -0.12194683840E+03  0.13022626927E+03  0.00000000000E+00 0.  1.
         11    1    1    2    0    0  0.25311295143E+02 -0.18849895985E+02 -0.93819788150E+01  0.32924182100E+02  0.00000000000E+00 0. -1.
</event>
<event>
 7    1  0.6473813E-006  0.9230456E+02  0.7561462E-02  0.1297365E+00
          2   -1    0    0  501    0  0.00000000000E+00  0.00000000000E+00  0.56766621673E+03  0.56766621673E+03  0.00000000000E+00 0. -1.
         -2   -1    0    0    0  501 -0.00000000000E+00 -0.00000000000E+00 -0.37958173558E+02  0.37958173558E+02  0.00000000000E+00 0.  1.
         23    2    1    2    0    0 -0.43784250937E+02 -0.41779037656E+02  0.12614009082E+03  0.18767450094E+03  0.12509135531E+03 0.  0.
          5    1    3    3  502    0  0.17271503367E+01 -0.48839130222E+02  0.13222676336E+03  0.14103061029E+03  0.41800000000E+01 0. -1.
         -5    1    3    3    0  502 -0.45511401274E+02  0.70600925655E+01 -0.60866725361E+01  0.46643890656E+02  0.41800000000E+01 0. -1.
        -11    1    1    2    0    0  0.16458863181E+02 -0.17511144084E+02  0.28668921307E+02  0.37409108427E+02  0.00000000000E+00 0.  1.
         11    1    1    2    0    0  0.27325387756E+02  0.59290181740E+02  0.37489903104E+03  0.38054078091E+03  0.00000000000E+00 0. -1.
</event>
<event>
 7    1  0.6473813E-006  0.1282910E+03  0.7561462E-02  0.1230014E+00
          2   -1    0    0  501    0  0.00000000000E+00  0.00000000000E+00  0.13309011072E+03  0.13309011072E+03  0.00000000000E+00 0. -1.
         -2   -1    0    0    0  501 -0.00000000000E+00 -0.00000000000E+00 -0.18966763949E+03  0.18966763949E+03  0.00000000000E+00 0.  1.
         23    2    1    2    0    0 -0.74713816972E+02 -0.86398825523E+02 -0.49669983438E+02  0.17654163323E+03  0.12511166816E+03 0.  0.
          5    1    3    3  502    0 -0.97285491687E+01 -0.68424052883E+02  0.27035161574E+02  0.74329456094E+02  0.41800000000E+01 0.  1.
         -5    1    3    3    0  502 -0.64985267803E+02 -0.17974772640E+02 -0.76705145012E+02  0.10221217713E+03  0.41800000000E+01 0.  1.
        -11    1    1    2    0    0  0.26996886835E+02  0.58710952508E+02  0.38101460473E+02  0.75016858994E+02  0.00000000000E+00 0. -1.
         11    1    1    2    0    0  0.47716930137E+02  0.27687873015E+02 -0.45009005813E+02  0.71199257988E+02  0.00000000000E+00 0.  1.
</event>
<event>
 7    1  0.6473813E-006  0.9504531E+02  0.7561462E-02  0.1291074E+00
          1   -1    0    0  501    0  0.00000000000E+00  0.00000000000E+00  0.32794070771E+03  0.32794070771E+03  0.00000000000E+00 0. -1.
         -1   -1    0    0    0  501 -0.00000000000E+00 -0.00000000000E+00 -0.54012129943E+02  0.54012129943E+02  0.00000000000E+00 0.  1.
         23    2    1    2    0    0 -0.17084387376E+02  0.92844386255E+01  0.43941086734E+02  0.13399810564E+03  0.12508635465E+03 0.  0.
          5    1    3    3  502    0 -0.42488414230E+02  0.51680701745E+02  0.50550825323E+02  0.83958433867E+02  0.41800000000E+01 0. -1.
         -5    1    3    3    0  502  0.25404026855E+02 -0.42396263120E+02 -0.66097385887E+01  0.50039671773E+02  0.41800000000E+01 0. -1.
        -11    1    1    2    0    0  0.33723424259E+02 -0.31197317618E+02  0.20719250212E+03  0.21222458600E+03  0.00000000000E+00 0. -1.
         11    1    1    2    0    0 -0.16639036884E+02  0.21912878993E+02  0.22794988917E+02  0.35730146010E+02  0.00000000000E+00 0.  1.
</event>
<event>
 7    1  0.6473813E-006  0.9303927E+02  0.7561462E-02  0.1295654E+00
          3   -1    0    0  501    0  0.00000000000E+00  0.00000000000E+00  0.79893448660E+03  0.79893448660E+03  0.00000000000E+00 0. -1.
         -3   -1    0    0    0  501 -0.00000000000E+00 -0.00000000000E+00 -0.15189604813E+02  0.15189604813E+02  0.00000000000E+00 0.  1.
         23    2    1    2    0    0  0.40284101140E+01  0.12465130402E+02  0.35924605014E+03  0.38062707101E+03  0.12509050758E+03 0.  0.
          5    1    3    3  502    0  0.15933647336E+02  0.53287292092E+02  0.76516871996E+02  0.94687489755E+02  0.41800000000E+01 0.  1.
         -5    1    3    3    0  502 -0.11905237222E+02 -0.40822161690E+02  0.28272917814E+03  0.28593958126E+03  0.41800000000E+01 0.  1.
        -11    1    1    2    0    0 -0.21974787545E+02  0.32459816708E+02  0.17264155428E+03  0.17703569485E+03  0.00000000000E+00 0.  1.
         11    1    1    2    0    0  0.17946377431E+02 -0.44924947111E+02  0.25185727737E+03  0.25646132555E+03  0.00000000000E+00 0. -1.
</event>
<event>
 7    1  0.6473813E-006  0.1545333E+03  0.7561462E-02  0.1195011E+00
         -2   -1    0    0    0  501 -0.00000000000E+00  0.00000000000E+00  0.36286615994E+02  0.36286615994E+02  0.00000000000E+00 0.  1.
          2   -1    0    0  501    0  0.00000000000E+00 -0.00000000000E+00 -0.70621905305E+03  0.70621905305E+03  0.00000000000E+00 0. -1.
         23    2    1    2    0    0  0.10710102526E+03 -0.33054195158E+02 -0.27609648563E+03  0.32316889282E+03  0.12508259063E+03 0.  0.
          5    1    3    3  502    0  0.10647332693E+03 -0.70873635588E+02 -0.19049332720E+03  0.22948817329E+03  0.41800000000E+01 0. -1.
         -5    1    3    3    0  502  0.62769833010E+00  0.37819440431E+02 -0.85603158429E+02  0.93680719535E+02  0.41800000000E+01 0. -1.
        -11    1    1    2    0    0 -0.57225913388E+02  0.62803342648E+02 -0.25723123073E+03  0.27090029729E+03  0.00000000000E+00 0. -1.
         11    1    1    2    0    0 -0.49875111874E+02 -0.29749147490E+02 -0.13660472069E+03  0.14843647893E+03  0.00000000000E+00 0.  1.
</event>
<event>
 7    1  0.6473813E-006  0.1075177E+03  0.7561462E-02  0.1265237E+00
         -1   -1    0    0    0  501 -0.00000000000E+00  0.00000000000E+00  0.33783121916E+02  0.33783121916E+02  0.00000000000E+00 0.  1.
          1   -1    0    0  501    0  0.00000000000E+00 -0.00000000000E+00 -0.45551756706E+03  0.45551756706E+03  0.00000000000E+00 0. -1.
         23    2    1    2    0    0  0.50115349090E+02 -0.16051914931E+02 -0.17646434254E+03  0.22260741462E+03  0.12508071262E+03 0.  0.
          5    1    3    3  502    0 -0.32281865476E+02 -0.30622881999E+02 -0.98492571257E+02  0.10815793421E+03  0.41800000000E+01 0. -1.
         -5    1    3    3    0  502  0.82397214566E+02  0.14570967067E+02 -0.77971771281E+02  0.11444948041E+03  0.41800000000E+01 0. -1.
        -11    1    1    2    0    0 -0.18312996098E+02 -0.27253837979E+02 -0.28867100546E+02  0.43720098406E+02  0.00000000000E+00 0.  1.
         11    1    1    2    0    0 -0.31802352992E+02  0.43305752910E+02 -0.21640300206E+03  0.22297317594E+03  0.00000000000E+00 0. -1.
</event>
<event>
 7    1  0.6473813E-006  0.1068469E+03  0.7561462E-02  0.1266523E+00
          1   -1    0    0  501    0  0.00000000000E+00  0.00000000000E+00  0.52956612791E+02  0.52956612791E+02  0.00000000000E+00 0. -1.
         -1   -1    0    0    0  501 -0.00000000000E+00 -0.00000000000E+00 -0.48003107014E+03  0.48003107014E+03  0.00000000000E+00 0.  1.
         23    2    1    2    0    0 -0.49813439644E+02 -0.33912163417E+02 -0.39447167157E+03  0.41819621022E+03  0.12509499178E+03 0.  0.
          5    1    3    3  502    0  0.22535593797E+02  0.24669243342E+02 -0.19680918562E+03  0.19966910752E+03  0.41800000000E+01 0. -1.
         -5    1    3    3    0  502 -0.72349033441E+02 -0.58581406759E+02 -0.19766248595E+03  0.21852710269E+03  0.41800000000E+01 0. -1.
        -11    1    1    2    0    0  0.12545380838E+02 -0.18603703458E+02 -0.44003466895E+02  0.49394224981E+02  0.00000000000E+00 0.  1.
         11    1    1    2    0    0  0.37268058806E+02  0.52515866874E+02  0.11400681122E+02  0.65397247731E+02  0.00000000000E+00 0. -1.
</event>
<event>
 7    1  0.6473813E-006  0.9812014E+02  0.7561462E-02  0.1284299E+00
          1   -1    0    0  501    0  0.00000000000E+00  0.00000000000E+00  0.52518940721E+02  0.52518940721E+02  0.00000000000E+00 0. -1.
         -1   -1    0    0    0  501 -0.00000000000E+00 -0.00000000000E+00 -0.44921069448E+03  0.44921069448E+03  0.00000000000E+00 0.  1.
         23    2    1    2    0    0  0.71555222962E+02  0.30211932427E+02 -0.33225546010E+03  0.36342000761E+03  0.12508996910E+03 0.  0.
          5    1    3    3  502    0  0.72230466010E+02  0.48316644500E+02 -0.10933738191E+03  0.13972785634E+03  0.41800000000E+01 0. -1.
         -5    1    3    3    0  502 -0.67524304756E+00 -0.18104712073E+02 -0.22291807820E+03  0.22369215127E+03  0.41800000000E+01 0. -1.
        -11    1    1    2    0    0 -0.47023348107E+02  0.54742123261E+01  0.13432180558E+02  0.49209610264E+02  0.00000000000E+00 0. -1.
         11    1    1    2    0    0 -0.24531874855E+02 -0.35686144753E+02 -0.77868474212E+02  0.89100017325E+02  0.00000000000E+00 0.  1.
</event>
<event>
 7    1  0.6473813E-006  0.9269671E+02  0.7561462E-02  0.1296450E+00
         -2   -1    0    0    0  501 -0.00000000000E+00  0.00000000000E+00  0.40063090327E+02  0.40063090327E+02  0.00000000000E+00 0.  1.
          2   -1    0    0  501    0  0.00000000000E+00 -0.00000000000E+00 -0.31838684484E+03  0.31838684484E+03  0.00000000000E+00 0. -1.
         23    2    1    2    0    0 -0.13694452317E+02  0.90536796983E+01 -0.11094892837E+03  0.16800782015E+03  0.12508979089E+03 0.  0.
          5    1    3    3  502    0  0.43275004566E+02  0.15414939968E+02 -0.36347586630E+01  0.46271268244E+02  0.41800000000E+01 0. -1.
         -5    1    3    3    0  502 -0.56969456883E+02 -0.63612602697E+01 -0.10731416971E+03  0.12173655190E+03  0.41800000000E+01 0. -1.
        -11    1    1    2    0    0  0.45174457421E+02 -0.18659501648E+02 -0.13773519308E+03  0.14615023783E+03  0.00000000000E+00 0. -1.
         11    1    1    2    0    0 -0.31480005104E+02  0.96058219493E+01 -0.29639633059E+02  0.44291877184E+02  0.00000000000E+00 0.  1.
</event>
<event>
 7    1  0.6473813E-006  0.8076562E+02  0.7561462E-02  0.1326893E+00
         -2   -1    0    0    0  501 -0.00000000000E+00  0.00000000000E+00  0.37791306299E+02  0.37791306299E+02  0.00000000000E+00 0.  1.
          2   -1    0    0  501    0  0.00000000000E+00 -0.00000000000E+00 -0.39571093384E+03  0.39571093384E+03  0.00000000000E+00 0. -1.
         23    2    1    2    0    0 -0.13914462684E+02 -0.38651260597E+02 -0.13204928226E+03  0.18647243552E+03  0.12508966402E+03 0.  0.
          5    1    3    3  502    0 -0.13698975389E+02  0.10024983743E+02 -0.13631426858E+03  0.13743076237E+03  0.41800000000E+01 0. -1.
         -5    1    3    3    0  502 -0.21548729522E+00 -0.48676244339E+02  0.42649863167E+01  0.49041673157E+02  0.41800000000E+01 0. -1.
        -11    1    1    2    0    0  0.29148715461E+02 -0.19506181142E+02 -0.12276669589E+03  0.12767850381E+03  0.00000000000E+00 0. -1.
         11    1    1    2    0    0 -0.15234252776E+02  0.58157441738E+02 -0.10310364939E+03  0.11935130081E+03  0.00000000000E+00 0.  1.
</event>
<event>
 7    1  0.6473813E-006  0.9439869E+02  0.7561462E-02  0.1292536E+00
          2   -1    0    0  501    0  0.00000000000E+00  0.00000000000E+00  0.24931227062E+03  0.24931227062E+03  0.00000000000E+00 0. -1.
         -2   -1    0    0    0  501 -0.00000000000E+00 -0.00000000000E+00 -0.52643388658E+02  0.52643388658E+02  0.00000000000E+00 0.  1.
         23    2    1    2    0    0  0.15477131744E+02  0.33033239937E+02  0.10508959857E+03  0.16739794041E+03  0.12509000831E+03 0.  0.
          5    1    3    3  502    0  0.53172810403E+02  0.11967585637E+02  0.10477546355E+01  0.54673037797E+02  0.41800000000E+01 0.  1.
         -5    1    3    3    0  502 -0.37695678659E+02  0.21065654300E+02  0.10404184394E+03  0.11272490262E+03  0.41800000000E+01 0.  1.
        -11    1    1    2    0    0  0.31596414871E+02 -0.30014457739E+02  0.17987311759E+02  0.47145991244E+02  0.00000000000E+00 0. -1.
         11    1    1    2    0    0 -0.47073546615E+02 -0.30187821979E+01  0.73591971634E+02  0.87411727622E+02  0.00000000000E+00 0.  1.
</event>
<event>
 7    1  0.6473813E-006  0.1308515E+03  0.7561462E-02  0.1226198E+00
         -3   -1    0    0    0  501 -0.00000000000E+00  0.00000000000E+00  0.25180968400E+03  0.25180968400E+03  0.00000000000E+00 0.  1.
          3   -1    0    0  501    0  0.00000000000E+00 -0.00000000000E+00 -0.80675298328E+02  0.80675298328E+02  0.00000000000E+00 0. -1.
         23    2    1    2    0    0 -0.92047726963E+02 -0.10121453357E+02  0.10127956955E+03  0.18569009485E+03  0.12509209512E+03 0.  0.
          5    1    3    3  502    0 -0.36986571635E+02  0.57018869883E+02  0.36354419635E+02  0.77189858343E+02  0.41800000000E+01 0. -1.
         -5    1    3    3    0  502 -0.55061155329E+02 -0.67140323240E+02  0.64925149914E+02  0.10850023651E+03  0.41800000000E+01 0. -1.
        -11    1    1    2    0    0  0.63362715095E+02 -0.18650705587E+02  0.76848103489E-01  0.66050650177E+02  0.00000000000E+00 0. -1.
         11    1    1    2    0    0  0.28685011868E+02  0.28772158944E+02  0.69777968016E+02  0.80744237296E+02  0.00000000000E+00 0.  1.
</event>
<event>
 7    1  0.6473813E-006  0.2014322E+03  0.7561462E-02  0.1148536E+00
          1   -1    0    0  501    0  0.00000000000E+00  0.00000000000E+00  0.92916900560E+03  0.92916900560E+03  0.00000000000E+00 0. -1.
         -1   -1    0    0    0  501 -0.00000000000E+00 -0.00000000000E+00 -0.45184974982E+02  0.45184974982E+02  0.00000000000E+00 0.  1.
         23    2    1    2    0    0  0.64085158941E+02 -0.17059809917E+03  0.51645080837E+03  0.56176431808E+03  0.12508833905E+03 0.  0.
          5    1    3    3  502    0 -0.66438040630E+01 -0.14348536580E+03  0.36777957771E+03  0.39485627830E+03  0.41800000000E+01 0. -1.
         -5    1    3    3    0  502  0.70728963004E+02 -0.27112733373E+02  0.14867123065E+03  0.16690803978E+03  0.41800000000E+01 0. -1.
        -11    1    1    2    0    0 -0.89394966276E+01  0.48651898451E+02  0.64227090793E+02  0.81068125762E+02  0.00000000000E+00 0.  1.
         11    1    1    2    0    0 -0.55145662314E+02  0.12194620072E+03  0.30330613146E+03  0.33152153674E+03  0.00000000000E+00 0. -1.
</event>
<event>
 7    1  0.6473813E-006  0.1062408E+03  0.7561462E-02  0.1267694E+00
          1   -1    0    0  501    0  0.00000000000E+00  0.00000000000E+00  0.26382565211E+03  0.26382565211E+03  0.00000000000E+00 0. -1.
         -1   -1    0    0    0  501 -0.00000000000E+00 -0.00000000000E+00 -0.86466081545E+02  0.86466081545E+02  0.00000000000E+00 0.  1.
         23    2    1    2    0    0  0.21510215136E+02  0.38707275209E+02 -0.13367805978E+02  0.13336685648E+03  0.12508827947E+03 0.  0.
          5    1    3    3  502    0  0.58652365691E+02  0.55971023043E+02  0.16067645738E+02  0.82755646703E+02  0.41800000000E+01 0. -1.
         -5    1    3    3    0  502 -0.37142150555E+02 -0.17263747835E+02 -0.29435451715E+02  0.50611209775E+02  0.41800000000E+01 0. -1.
        -11    1    1    2    0    0 -0.45193114187E+02 -0.46841767157E+02  0.17651177256E+03  0.18813020643E+03  0.00000000000E+00 0. -1.
         11    1    1    2    0    0  0.23682899051E+02  0.81344919489E+01  0.14215603985E+02  0.28794670746E+02  0.00000000000E+00 0.  1.
</event>
<event>
 7    1  0.6473813E-006  0.1663223E+03  0.7561462E-02  0.1181738E+00
          2   -1    0    0  501    0  0.00000000000E+00  0.00000000000E+00  0.25244234658E+03  0.25244234658E+03  0.00000000000E+00 0. -1.
         -2   -1    0    0    0  501 -0.00000000000E+00 -0.00000000000E+00 -0.12879824388E+03  0.12879824388E+03  0.00000000000E+00 0.  1.
         23    2    1    2    0    0  0.10919734796E+03  0.91281163442E+02  0.47936984283E+02  0.19545887010E+03  0.12509957568E+03 0.  0.
          5    1    3    3  502    0  0.10469913360E+03  0.98972817847E+01  0.10831672284E+02  0.10580483112E+03  0.41800000000E+01 0.  1.
         -5    1    3    3    0  502  0.44982143565E+01  0.81383881657E+02  0.37105311998E+02  0.89654038974E+02  0.41800000000E+01 0.  1.
        -11    1    1    2    0    0 -0.15056944261E+02 -0.29667942310E+02  0.64676240660E+02  0.72731798255E+02  0.00000000000E+00 0. -1.
         11    1    1    2    0    0 -0.94140403700E+02 -0.61613221131E+02  0.11030877758E+02  0.11304992212E+03  0.00000000000E+00 0.  1.
</event>
<event>
 7    1  0.6473813E-006  0.8345233E+02  0.7561462E-02  0.1319530E+00
          4   -1    0    0  501    0  0.00000000000E+00  0.00000000000E+00  0.30140781631E+02  0.30140781631E+02  0.00000000000E+00 0. -1.
         -4   -1    0    0    0  501 -0.00000000000E+00 -0.00000000000E+00 -0.59216424042E+03  0.59216424042E+03  0.00000000000E+00 0.  1.
         23    2    1    2    0    0 -0.37319741696E+02  0.13626172377E+02 -0.48075328191E+03  0.49834514539E+03  0.12508289320E+03 0.  0.
          5    1    3    3  502    0  0.41386944072E+02  0.23349437052E+02 -0.24424774542E+03  0.24886242965E+03  0.41800000000E+01 0. -1.
         -5    1    3    3    0  502 -0.78706685767E+02 -0.97232646743E+01 -0.23650553649E+03  0.24948271574E+03  0.41800000000E+01 0. -1.
        -11    1    1    2    0    0  0.20702941191E+02 -0.64270679622E+01  0.14767512057E+02  0.26229723386E+02  0.00000000000E+00 0. -1.
         11    1    1    2    0    0  0.16616800505E+02 -0.71991044151E+01 -0.96037688933E+02  0.97730153274E+02  0.00000000000E+00 0.  1.
</event>
<event>
 7    1  0.6473813E-006  0.1138340E+03  0.7561462E-02  0.1253630E+00
         -3   -1    0    0    0  501 -0.00000000000E+00  0.00000000000E+00  0.18969071506E+03  0.18969071506E+03  0.00000000000E+00 0.  1.
          3   -1    0    0  501    0  0.00000000000E+00 -0.00000000000E+00 -0.70212999135E+02  0.70212999135E+02  0.00000000000E+00 0. -1.
         23    2    1    2    0    0  0.32577604460E+02  0.22400275243E+02  0.86536593858E+02  0.15716988947E+03  0.12510283545E+03 0.  0.
          5    1    3    3  502    0 -0.34216176116E+02 -0.30328513397E+02  0.33050321155E+02  0.56571738186E+02  0.41800000000E+01 0.  1.
         -5    1    3    3    0  502  0.66793780576E+02  0.52728788641E+02  0.53486272703E+02  0.10059815129E+03  0.41800000000E+01 0.  1.
        -11    1    1    2    0    0 -0.62910024527E+02 -0.96307162778E+01  0.15569475863E+02  0.65519695212E+02  0.00000000000E+00 0. -1.
         11    1    1    2    0    0  0.30332420067E+02 -0.12769558966E+02  0.17371646206E+02  0.37214129510E+02  0.00000000000E+00 0.  1.
</event>
<event>
 7    1  0.6473813E-006  0.1507411E+03  0.7561462E-02  0.1199565E+00
         -2   -1    0    0    0  501 -0.00000000000E+00  0.00000000000E+00  0.46744313986E+03  0.46744313986E+03  0.00000000000E+00 0.  1.
          2   -1    0    0  501    0  0.00000000000E+00 -0.00000000000E+00 -0.57163190110E+02  0.57163190110E+02  0.00000000000E+00 0. -1.
         23    2    1    2    0    0  0.12707231502E+02  0.11903506549E+03  0.24501931604E+03  0.30002221875E+03  0.12509214987E+03 0.  0.
          5    1    3    3  502    0  0.51383774770E+02  0.50651707219E+01  0.60062099251E+02  0.79315045423E+02  0.41800000000E+01 0.  1.
         -5    1    3    3    0  502 -0.38676543268E+02  0.11396989477E+03  0.18495721679E+03  0.22070717332E+03  0.41800000000E+01 0.  1.
        -11    1    1    2    0    0 -0.31381255994E+02 -0.81437280532E+02  0.47067807154E+02  0.99157412020E+02  0.00000000000E+00 0.  1.
         11    1    1    2    0    0  0.18674024492E+02 -0.37597784959E+02  0.11819282655E+03  0.12542669920E+03  0.00000000000E+00 0. -1.
</event>
<event>
 7    1  0.6473813E-006  0.1327610E+03  0.7561462E-02  0.1223415E+00
          1   -1    0    0  501    0  0.00000000000E+00  0.00000000000E+00  0.43686422211E+03  0.43686422211E+03  0.00000000000E+00 0. -1.
         -1   -1    0    0    0  501 -0.00000000000E+00 -0.00000000000E+00 -0.67238747477E+02  0.67238747477E+02  0.00000000000E+00 0.  1.
         23    2    1    2    0    0  0.66449143958E+02  0.95286983364E+02  0.10305344314E+03  0.19940472677E+03  0.12508850859E+03 0.  0.
          5    1    3    3  502    0  0.65541723940E+02  0.10337171888E+03  0.12538534933E+03  0.17527232545E+03  0.41800000000E+01 0.  1.
         -5    1    3    3    0  502  0.90742001798E+00 -0.80847355132E+01 -0.22331906189E+02  0.24132401319E+02  0.41800000000E+01 0.  1.
        -11    1    1    2    0    0 -0.19741271076E+02 -0.83405696189E+02  0.10208086948E+03  0.13329190469E+03  0.00000000000E+00 0.  1.
         11    1    1    2    0    0 -0.46707872882E+02 -0.11881287174E+02  0.16449116200E+03  0.17140633813E+03  0.00000000000E+00 0. -1.
</event>
<event>
 7    1  0.6473813E-006  0.1751229E+03  0.7561462E-02  0.1172608E+00
          2   -1    0    0  501    0  0.00000000000E+00  0.00000000000E+00  0.17187653519E+03  0.17187653519E+03  0.00000000000E+00 0.  1.
         -2   -1    0    0    0  501 -0.00000000000E+00 -0.00000000000E+00 -0.20377357427E+03  0.20377357427E+03  0.00000000000E+00 0. -1.
         23    2    1    2    0    0 -0.65078494181E+02 -0.13749233437E+03 -0.15257381998E+02  0.19752317909E+03  0.12507304329E+03 0.  0.
          5    1    3    3  502    0  0.34737857309E+02 -0.13880882769E+02 -0.76145160534E+01  0.38403787464E+02  0.41800000000E+01 0. -1.
         -5    1    3    3    0  502 -0.99816351490E+02 -0.12361145161E+03 -0.76428659446E+01  0.15911939163E+03  0.41800000000E+01 0. -1.
        -11    1    1    2    0    0  0.54952167987E+01  0.32383393994E+02  0.33861426922E+02  0.47174970561E+02  0.00000000000E+00 0.  1.
         11    1    1    2    0    0  0.59583277382E+02  0.10510894038E+03 -0.50501084009E+02  0.13095195981E+03  0.00000000000E+00 0. -1.
</event>
<event>
 7    1  0.6473813E-006  0.1019296E+03  0.7561462E-02  0.1276290E+00
          1   -1    0    0  501    0  0.00000000000E+00  0.00000000000E+00  0.30682721408E+03  0.30682721408E+03  0.00000000000E+00 0. -1.
         -1   -1    0    0    0  501 -0.00000000000E+00 -0.00000000000E+00 -0.47577356117E+02  0.47577356117E+02  0.00000000000E+00 0.  1.
         23    2    1    2    0    0  0.92010768813E+01 -0.62764402559E+01  0.71639323665E+02  0.14457306656E+03  0.12508047554E+03 0.  0.
          5    1    3    3  502    0  0.61804960244E+02 -0.19542988731E+02  0.16311034663E+02  0.66972410522E+02  0.41800000000E+01 0.  1.
         -5    1    3    3    0  502 -0.52603883363E+02  0.13266548475E+02  0.55328289002E+02  0.77600656036E+02  0.41800000000E+01 0.  1.
        -11    1    1    2    0    0 -0.46679401425E+02  0.14303298840E+01  0.56077466921E+02  0.72977357154E+02  0.00000000000E+00 0.  1.
         11    1    1    2    0    0  0.37478324544E+02  0.48461103719E+01  0.13153306738E+03  0.13685414649E+03  0.00000000000E+00 0. -1.
</event>
<event>
 7    1  0.6473813E-006  0.8432515E+02  0.7561462E-02  0.1317207E+00
          3   -1    0    0  501    0  0.00000000000E+00  0.00000000000E+00  0.88194202464E+02  0.88194202464E+02  0.00000000000E+00 0. -1.
         -3   -1    0    0    0  501 -0.00000000000E+00 -0.00000000000E+00 -0.14714900795E+03  0.14714900795E+03  0.00000000000E+00 0.  1.
         23    2    1    2    0    0 -0.32722083021E+02  0.73952372210E+01 -0.49031060415E+02  0.13848031552E+03  0.12508928272E+03 0.  0.
          5    1    3    3  502    0 -0.49924827585E+02 -0.31827043265E+02  0.15104390078E+02  0.61245931228E+02  0.41800000000E+01 0.  1.
         -5    1    3    3    0  502  0.17202744564E+02  0.39222280486E+02 -0.64135450493E+02  0.77234384292E+02  0.41800000000E+01 0.  1.
        -11    1    1    2    0    0  0.20866140721E+01 -0.28810024906E+02 -0.39684521815E+02  0.49083935917E+02  0.00000000000E+00 0.  1.
         11    1    1    2    0    0  0.30635468948E+02  0.21414787685E+02  0.29760776739E+02  0.47778958982E+02  0.00000000000E+00 0. -1.
</event>
<event>
 7    1  0.6473813E-006  0.1042381E+03  0.7561462E-02  0.1271628E+00
         -2   -1    0    0    0  501 -0.00000000000E+00  0.00000000000E+00  0.51829128398E+02  0.51829128398E+02  0.00000000000E+00 0. -1.
          2   -1    0    0  501    0  0.00000000000E+00 -0.00000000000E+00 -0.50064000355E+03  0.50064000355E+03  0.00000000000E+00 0.  1.
         23    2    1    2    0    0  0.40887858015E+02  0.53875586508E+02 -0.80078801861E+02  0.16321760739E+03  0.12511185835E+03 0.  0.
          5    1    3    3  502    0  0.53179167970E+01  0.50297238819E+02 -0.10689683137E+03  0.11833214875E+03  0.41800000000E+01 0. -1.
         -5    1    3    3    0  502  0.35569941218E+02  0.35783476892E+01  0.26818029505E+02  0.44885458636E+02  0.41800000000E+01 0. -1.
        -11    1    1    2    0    0  0.16954206162E+02 -0.61130449361E+02 -0.14953058422E+03  0.16243082393E+03  0.00000000000E+00 0. -1.
         11    1    1    2    0    0 -0.57842064177E+02  0.72548628524E+01 -0.21920148907E+03  0.22682070063E+03  0.00000000000E+00 0.  1.
</event>
<event>
 7    1  0.6473813E-006  0.8845121E+02  0.7561462E-02  0.1306646E+00
         -2   -1    0    0    0  501 -0.00000000000E+00  0.00000000000E+00  0.45559810663E+02  0.45559810663E+02  0.00000000000E+00 0.  1.
          2   -1    0    0  501    0  0.00000000000E+00 -0.00000000000E+00 -0.25998126466E+03  0.25998126466E+03  0.00000000000E+00 0. -1.
         23    2    1    2    0    0 -0.58143607604E+01  0.29583979094E+01 -0.12315138567E+03  0.17565855830E+03  0.12508839435E+03 0.  0.
          5    1    3    3  502    0 -0.28524233562E+02 -0.32076982985E+02 -0.12641680906E+03  0.13357112993E+03  0.41800000000E+01 0.  1.
         -5    1    3    3    0  502  0.22709872802E+02  0.35035380895E+02  0.32654233842E+01  0.42087428372E+02  0.41800000000E+01 0.  1.
        -11    1    1    2    0    0 -0.36602762352E+02 -0.24692156344E+02 -0.36565601651E+02  0.57328073583E+02  0.00000000000E+00 0. -1.
         11    1    1    2    0    0  0.42417123112E+02  0.21733758435E+02 -0.54704466670E+02  0.72554443437E+02  0.00000000000E+00 0.  1.
</event>
<event>
 7    1  0.6473813E-006  0.1077160E+03  0.7561462E-02  0.1264859E+00
          1   -1    0    0  501    0  0.00000000000E+00  0.00000000000E+00  0.20010838349E+03  0.20010838349E+03  0.00000000000E+00 0. -1.
         -1   -1    0    0    0  501 -0.00000000000E+00 -0.00000000000E+00 -0.15089286295E+03  0.15089286295E+03  0.00000000000E+00 0.  1.
         23    2    1    2    0    0  0.80354628421E+02  0.23964050467E+02 -0.81088520586E+02  0.17103359323E+03  0.12508397107E+03 0.  0.
          5    1    3    3  502    0 -0.22063829912E+02  0.68887101120E+01  0.16319222595E+02  0.28601684277E+02  0.41800000000E+01 0. -1.
         -5    1    3    3    0  502  0.10241845833E+03  0.17075340355E+02 -0.97407743180E+02  0.14243190895E+03  0.41800000000E+01 0. -1.
        -11    1    1    2    0    0 -0.17921303957E+02 -0.17850805474E+02  0.11171013508E+03  0.11453811012E+03  0.00000000000E+00 0. -1.
         11    1    1    2    0    0 -0.62433324464E+02 -0.61132449933E+01  0.18593906047E+02  0.65429543098E+02  0.00000000000E+00 0.  1.
</event>
<event>
 7    1  0.6473813E-006  0.1125215E+03  0.7561462E-02  0.1255970E+00
         -1   -1    0    0    0  501 -0.00000000000E+00  0.00000000000E+00  0.37707070340E+02  0.37707070340E+02  0.00000000000E+00 0.  1.
          1   -1    0    0  501    0  0.00000000000E+00 -0.00000000000E+00 -0.48275920910E+03  0.48275920910E+03  0.00000000000E+00 0. -1.
         23    2    1    2    0    0 -0.40467362342E+02 -0.68124732261E+02 -0.20454528962E+03  0.25126646228E+03  0.12254579961E+03 0.  0.
          5    1    3    3  502    0 -0.32988097283E+02 -0.85535696501E+02 -0.21158013721E+03  0.23062566380E+03  0.41800000000E+01 0. -1.
         -5    1    3    3    0  502 -0.74792650596E+01  0.17410964240E+02  0.70348475924E+01  0.20640798488E+02  0.41800000000E+01 0.  1.
        -11    1    1    2    0    0  0.65477879305E+02  0.42513972131E+02 -0.11735120699E+03  0.14094714004E+03  0.00000000000E+00 0. -1.
         11    1    1    2    0    0 -0.25010516963E+02  0.25610760130E+02 -0.12315564215E+03  0.12825267711E+03  0.00000000000E+00 0.  1.
</event>
<event>
 7    1  0.6473813E-006  0.1015337E+03  0.7561462E-02  0.1277104E+00
         -1   -1    0    0    0  501 -0.00000000000E+00  0.00000000000E+00  0.49005621358E+02  0.49005621358E+02  0.00000000000E+00 0.  1.
          1   -1    0    0  501    0  0.00000000000E+00 -0.00000000000E+00 -0.26322186706E+03  0.26322186706E+03  0.00000000000E+00 0. -1.
         23    2    1    2    0    0 -0.12251256475E+02  0.21853874302E+02 -0.93574805456E+02  0.15821362174E+03  0.12509045040E+03 0.  0.
          5    1    3    3  502    0  0.35248394750E+02 -0.32760766022E+02 -0.13417577033E+02  0.50132034630E+02  0.41800000000E+01 0.  1.
         -5    1    3    3    0  502 -0.47499651224E+02  0.54614640324E+02 -0.80157228423E+02  0.10808158711E+03  0.41800000000E+01 0.  1.
        -11    1    1    2    0    0  0.45335037120E+02 -0.65314037969E+01 -0.26172722410E+02  0.52753542294E+02  0.00000000000E+00 0.  1.
         11    1    1    2    0    0 -0.33083780646E+02 -0.15322470505E+02 -0.94468717834E+02  0.10126032438E+03  0.00000000000E+00 0. -1.
</event>
<event>
 7    1  0.6473813E-006  0.7365984E+02  0.7561462E-02  0.1348072E+00
         -1   -1    0    0    0  501 -0.00000000000E+00  0.00000000000E+00  0.29310538898E+03  0.29310538898E+03  0.00000000000E+00 0.  1.
          1   -1    0    0  501    0  0.00000000000E+00 -0.00000000000E+00 -0.49518379467E+02  0.49518379467E+02  0.00000000000E+00 0. -1.
         23    2    1    2    0    0 -0.12820031236E+02  0.97642281379E+01  0.20871863959E+03  0.24386626634E+03  0.12509033534E+03 0.  0.
          5    1    3    3  502    0 -0.12763275194E+02 -0.23815812012E+02 -0.47335614553E+01  0.27748389134E+02  0.41800000000E+01 0. -1.
         -5    1    3    3    0  502 -0.56756042212E-01  0.33580040150E+02  0.21345220105E+03  0.21611787721E+03  0.41800000000E+01 0. -1.
        -11    1    1    2    0    0 -0.52338789227E+01 -0.45659764071E+02  0.62176431468E+00  0.45962964814E+02  0.00000000000E+00 0. -1.
         11    1    1    2    0    0  0.18053910159E+02  0.35895535933E+02  0.34246605608E+02  0.52794537290E+02  0.00000000000E+00 0.  1.
</event>
<event>
 7    1  0.6473813E-006  0.1366779E+03  0.7561462E-02  0.1217870E+00
         -2   -1    0    0    0  501 -0.00000000000E+00  0.00000000000E+00  0.39462958811E+03  0.39462958811E+03  0.00000000000E+00 0.  1.
          2   -1    0    0  501    0  0.00000000000E+00 -0.00000000000E+00 -0.55088121026E+02  0.55088121026E+02  0.00000000000E+00 0. -1.
         23    2    1    2    0    0 -0.86370623661E+02  0.37338864149E+02  0.14031790847E+03  0.21021661409E+03  0.12509130263E+03 0.  0.
          5    1    3    3  502    0  0.20183242534E+02 -0.14751330683E+02  0.64718029479E+02  0.69504393931E+02  0.41800000000E+01 0. -1.
         -5    1    3    3    0  502 -0.10655386619E+03  0.52090194832E+02  0.75599878994E+02  0.14071222016E+03  0.41800000000E+01 0. -1.
        -11    1    1    2    0    0  0.89162263446E+02  0.26918926187E+01  0.10966325102E+03  0.14136189066E+03  0.00000000000E+00 0. -1.
         11    1    1    2    0    0 -0.27916397848E+01 -0.40030756767E+02  0.89560307596E+02  0.98139204383E+02  0.00000000000E+00 0.  1.
</event>
<event>
 7    1  0.6473813E-006  0.5775280E+02  0.7561462E-02  0.1407512E+00
          2   -1    0    0  501    0  0.00000000000E+00  0.00000000000E+00  0.25390824383E+03  0.25390824383E+03  0.00000000000E+00 0. -1.
         -2   -1    0    0    0  501 -0.00000000000E+00 -0.00000000000E+00 -0.46984692398E+02  0.46984692398E+02  0.00000000000E+00 0.  1.
         23    2    1    2    0    0 -0.13014962378E+02 -0.70509344592E+01  0.12576504431E+03  0.17799752357E+03  0.12508863700E+03 0.  0.
          5    1    3    3  502    0 -0.30390498519E+02 -0.56878896448E+01 -0.16028350071E+02  0.35075844891E+02  0.41800000000E+01 0. -1.
         -5    1    3    3    0  502  0.17375536141E+02 -0.13630448144E+01  0.14179339438E+03  0.14292167868E+03  0.41800000000E+01 0. -1.
        -11    1    1    2    0    0 -0.14455576727E+02 -0.22048899875E+02 -0.59555979285E+01  0.27029369784E+02  0.00000000000E+00 0.  1.
         11    1    1    2    0    0  0.27470539105E+02  0.29099834334E+02  0.87114105055E+02  0.95866042875E+02  0.00000000000E+00 0. -1.
</event>
<event>
 7    1  0.6473813E-006  0.1454784E+03  0.7561462E-02  0.1206142E+00
         -2   -1    0    0    0  501 -0.00000000000E+00  0.00000000000E+00  0.43239538135E+03  0.43239538135E+03  0.00000000000E+00 0.  1.
          2   -1    0    0  501    0  0.00000000000E+00 -0.00000000000E+00 -0.56378118909E+02  0.56378118909E+02  0.00000000000E+00 0. -1.
         23    2    1    2    0    0  0.63391557009E+02 -0.92620961196E+02  0.19070190439E+03  0.25418872782E+03  0.12509021168E+03 0.  0.
          5    1    3    3  502    0 -0.37006985910E+02 -0.22238779934E+02  0.33647216552E+02  0.54897066595E+02  0.41800000000E+01 0.  1.
         -5    1    3    3    0  502  0.10039854292E+03 -0.70382181262E+02  0.15705468784E+03  0.19929166122E+03  0.41800000000E+01 0.  1.
        -11    1    1    2    0    0 -0.51068005205E+02  0.26302386636E+02  0.29026383950E+02  0.64360606458E+02  0.00000000000E+00 0.  1.
         11    1    1    2    0    0 -0.12323551804E+02  0.66318574560E+02  0.15628897410E+03  0.17022416599E+03  0.00000000000E+00 0. -1.
</event>
<event>
 7    1  0.6473813E-006  0.2176970E+03  0.7561462E-02  0.1135612E+00
          2   -1    0    0  501    0  0.00000000000E+00  0.00000000000E+00  0.10975453129E+03  0.10975453129E+03  0.00000000000E+00 0. -1.
         -2   -1    0    0    0  501 -0.00000000000E+00 -0.00000000000E+00 -0.48017530166E+03  0.48017530166E+03  0.00000000000E+00 0.  1.
         23    2    1    2    0    0 -0.17215506775E+03  0.77810729498E+02 -0.28094533082E+03  0.36092465282E+03  0.12507777231E+03 0.  0.
          5    1    3    3  502    0 -0.16461444206E+03  0.19269894068E+02 -0.22506320895E+03  0.27953562166E+03  0.41800000000E+01 0.  1.
         -5    1    3    3    0  502 -0.75406256910E+01  0.58540835430E+02 -0.55882121863E+02  0.81389031157E+02  0.41800000000E+01 0.  1.
        -11    1    1    2    0    0  0.14620720441E+03 -0.20652867201E+02 -0.68940653841E+02  0.16295981497E+03  0.00000000000E+00 0. -1.
         11    1    1    2    0    0  0.25947863343E+02 -0.57157862297E+02 -0.20534785709E+02  0.66045365156E+02  0.00000000000E+00 0.  1.
</event>
<event>
 7    1  0.6473813E-006  0.1641749E+03  0.7561462E-02  0.1184062E+00
         -1   -1    0    0    0  501 -0.00000000000E+00  0.00000000000E+00  0.34189120245E+02  0.34189120245E+02  0.00000000000E+00 0.  1.
          1   -1    0    0  501    0  0.00000000000E+00 -0.00000000000E+00 -0.98589941986E+03  0.98589941986E+03  0.00000000000E+00 0. -1.
         23    2    1    2    0    0  0.46535648293E+02  0.13078410982E+03 -0.36673787751E+03  0.41160022634E+03  0.12509206842E+03 0.  0.
          5    1    3    3  502    0  0.21668677939E+02 -0.22499631955E+02 -0.62888292695E+02  0.70343264069E+02  0.41800000000E+01 0.  1.
         -5    1    3    3    0  502  0.24866970354E+02  0.15328374178E+03 -0.30384958481E+03  0.34125696227E+03  0.41800000000E+01 0.  1.
        -11    1    1    2    0    0 -0.48883868982E+02 -0.10755597684E+03 -0.56658171559E+03  0.57876831396E+03  0.00000000000E+00 0. -1.
         11    1    1    2    0    0  0.23482206885E+01 -0.23228132984E+02 -0.18390706518E+02  0.29719999808E+02  0.00000000000E+00 0.  1.
</event>
<event>
 7    1  0.6473813E-006  0.7367105E+02  0.7561462E-02  0.1348036E+00
         -2   -1    0    0    0  501 -0.00000000000E+00  0.00000000000E+00  0.42195761347E+02  0.42195761347E+02  0.00000000000E+00 0.  1.
          2   -1    0    0  501    0  0.00000000000E+00 -0.00000000000E+00 -0.38241333978E+03  0.38241333978E+03  0.00000000000E+00 0. -1.
         23    2    1    2    0    0 -0.23390568629E+02  0.43316990833E+02 -0.11093474651E+03  0.17429249981E+03  0.12509147498E+03 0.  0.
          5    1    3    3  502    0 -0.37735352234E+02  0.24409853093E+02  0.13841278014E+02  0.47210709731E+02  0.41800000000E+01 0. -1.
         -5    1    3    3    0  502  0.14344783605E+02  0.18907137739E+02 -0.12477602452E+03  0.12708179008E+03  0.41800000000E+01 0. -1.
        -11    1    1    2    0    0  0.39431534873E+02 -0.93223683080E+01 -0.38591735289E+02  0.55956005271E+02  0.00000000000E+00 0.  1.
         11    1    1    2    0    0 -0.16040966245E+02 -0.33994622525E+02 -0.19069109663E+03  0.19436059604E+03  0.00000000000E+00 0. -1.
</event>
<event>
 7    1  0.6473813E-006  0.1546882E+03  0.7561462E-02  0.1194828E+00
          1   -1    0    0  501    0  0.00000000000E+00  0.00000000000E+00  0.24663888490E+03  0.24663888490E+03  0.00000000000E+00 0. -1.
         -1   -1    0    0    0  501 -0.00000000000E+00 -0.00000000000E+00 -0.10037919265E+03  0.10037919265E+03  0.00000000000E+00 0.  1.
         23    2    1    2    0    0  0.10641605499E+03 -0.38786606880E+02  0.76607922854E+02  0.18532265829E+03  0.12508771402E+03 0.  0.
          5    1    3    3  502    0 -0.25661291182E+02  0.98167652772E+01  0.96989515934E+01  0.29434890991E+02  0.41800000000E+01 0. -1.
         -5    1    3    3    0  502  0.13207734618E+03 -0.48603372158E+02  0.66908971260E+02  0.15588776730E+03  0.41800000000E+01 0. -1.
        -11    1    1    2    0    0 -0.76106231636E+01  0.41254664093E+02  0.21459307654E+01  0.42005641445E+02  0.00000000000E+00 0.  1.
         11    1    1    2    0    0 -0.98805431830E+02 -0.24680572124E+01  0.67505838630E+02  0.11968977782E+03  0.00000000000E+00 0. -1.
</event>
<event>
 7    1  0.6473813E-006  0.1444285E+03  0.7561462E-02  0.1207491E+00
         -2   -1    0    0    0  501 -0.00000000000E+00  0.00000000000E+00  0.64453716396E+02  0.64453716396E+02  0.00000000000E+00 0. -1.
          2   -1    0    0  501    0  0.00000000000E+00 -0.00000000000E+00 -0.43310423999E+03  0.43310423999E+03  0.00000000000E+00 0.  1.
         23    2    1    2    0    0 -0.99606551149E+02 -0.81969157192E+02 -0.19259931697E+03  0.26339742989E+03  0.12507318421E+03 0.  0.
          5    1    3    3  502    0 -0.35406641451E+00 -0.51353219753E+02 -0.88452757758E+01  0.52278005371E+02  0.41800000000E+01 0.  1.
         -5    1    3    3    0  502 -0.99252484734E+02 -0.30615937439E+02 -0.18375404120E+03  0.21111942452E+03  0.41800000000E+01 0.  1.
        -11    1    1    2    0    0  0.17721377672E+02  0.34362751963E+02 -0.11535887479E+03  0.12166559063E+03  0.00000000000E+00 0.  1.
         11    1    1    2    0    0  0.81885173477E+02  0.47606405228E+02 -0.60692331826E+02  0.11249493587E+03  0.00000000000E+00 0. -1.
</event>
<event>
 7    1  0.6473813E-006  0.1637131E+03  0.7561462E-02  0.1184567E+00
         -2   -1    0    0    0  501 -0.00000000000E+00  0.00000000000E+00  0.39395027084E+02  0.39395027084E+02  0.00000000000E+00 0.  1.
          2   -1    0    0  501    0  0.00000000000E+00 -0.00000000000E+00 -0.95087857561E+03  0.95087857561E+03  0.00000000000E+00 0. -1.
         23    2    1    2    0    0  0.12350928063E+03 -0.87420803101E+02 -0.34604797912E+03  0.39786049850E+03  0.12508730230E+03 0.  0.
          5    1    3    3  502    0  0.37385035311E+02 -0.21698085737E+02 -0.24771267897E+03  0.25149053961E+03  0.41800000000E+01 0.  1.
         -5    1    3    3    0  502  0.86124245323E+02 -0.65722717364E+02 -0.98335300145E+02  0.14636995889E+03  0.41800000000E+01 0.  1.
        -11    1    1    2    0    0 -0.56352294570E+02  0.92413038358E+02 -0.38060522971E+03  0.39569696946E+03  0.00000000000E+00 0. -1.
         11    1    1    2    0    0 -0.67156986064E+02 -0.49922352564E+01 -0.18483033970E+03  0.19671613474E+03  0.00000000000E+00 0.  1.
</event>
<event>
 7    1  0.6473813E-006  0.1169698E+03  0.7561462E-02  0.1248181E+00
         -2   -1    0    0    0  501 -0.00000000000E+00  0.00000000000E+00  0.47598158399E+02  0.47598158399E+02  0.00000000000E+00 0. -1.
          2   -1    0    0  501    0  0.00000000000E+00 -0.00000000000E+00 -0.55103890731E+03  0.55103890731E+03  0.00000000000E+00 0.  1.
         23    2    1    2    0    0  0.19447489107E+02  0.97432811386E+02 -0.14627593826E+03  0.21659994367E+03  0.12509007921E+03 0.  0.
          5    1    3    3  502    0 -0.79228904749E+01  0.78531951030E+02 -0.16148196437E+03  0.17978858902E+03  0.41800000000E+01 0. -1.
         -5    1    3    3    0  502  0.27370379582E+02  0.18900860357E+02  0.15206026110E+02  0.36811354644E+02  0.41800000000E+01 0. -1.
        -11    1    1    2    0    0  0.24406669588E+02 -0.55806602736E+02 -0.26426330448E+03  0.27119210262E+03  0.00000000000E+00 0.  1.
         11    1    1    2    0    0 -0.43854158696E+02 -0.41626208650E+02 -0.92901506169E+02  0.11084501942E+03  0.00000000000E+00 0. -1.
</event>
<event>
 7    1  0.6473813E-006  0.1313755E+03  0.7561462E-02  0.1225429E+00
         -2   -1    0    0    0  501 -0.00000000000E+00  0.00000000000E+00  0.61861614163E+02  0.61861614163E+02  0.00000000000E+00 0.  1.
          2   -1    0    0  501    0  0.00000000000E+00 -0.00000000000E+00 -0.49489428829E+03  0.49489428829E+03  0.00000000000E+00 0. -1.
         23    2    1    2    0    0 -0.13009555906E+03  0.78719237228E+01 -0.15592307007E+03  0.23863504666E+03  0.12509140676E+03 0.  0.
          5    1    3    3  502    0 -0.72625516130E+02 -0.80052212374E+00 -0.16437484966E+03  0.17975447151E+03  0.41800000000E+01 0.  1.
         -5    1    3    3    0  502 -0.57470042934E+02  0.86724458465E+01  0.84517795889E+01  0.58880575150E+02  0.41800000000E+01 0.  1.
        -11    1    1    2    0    0  0.51039037391E+02 -0.12468818504E+02 -0.34352276341E+02  0.62773670137E+02  0.00000000000E+00 0.  1.
         11    1    1    2    0    0  0.79056521673E+02  0.45968947816E+01 -0.24275732772E+03  0.25534718566E+03  0.00000000000E+00 0. -1.
</event>
<event>
 7    1  0.6473813E-006  0.1375861E+03  0.7561462E-02  0.1216614E+00
         -2   -1    0    0    0  501 -0.00000000000E+00  0.00000000000E+00  0.30356620555E+02  0.30356620555E+02  0.00000000000E+00 0. -1.
          2   -1    0    0  501    0  0.00000000000E+00 -0.00000000000E+00 -0.63460094275E+03  0.63460094275E+03  0.00000000000E+00 0.  1.
         23    2    1    2    0    0 -0.42460138384E+02  0.76526770290E+02 -0.29826172801E+03  0.33503962865E+03  0.12502913439E+03 0.  0.
          5    1    3    3  502    0  0.15532738728E+02  0.91098166999E+02 -0.18856662443E+03  0.21003567852E+03  0.41800000000E+01 0. -1.
         -5    1    3    3    0  502 -0.57992877112E+02 -0.14571396709E+02 -0.10969510359E+03  0.12500395013E+03  0.41800000000E+01 0. -1.
        -11    1    1    2    0    0  0.62465895373E+02 -0.24704645122E+02 -0.18414051271E+03  0.19601029564E+03  0.00000000000E+00 0.  1.
         11    1    1    2    0    0 -0.20005756989E+02 -0.51822125167E+02 -0.12184208148E+03  0.13390763903E+03  0.00000000000E+00 0. -1.
</event>
<event>
 7    1  0.6473813E-006  0.1869342E+03  0.7561462E-02  0.1161256E+00
          1   -1    0    0  501    0  0.00000000000E+00  0.00000000000E+00  0.37908802896E+03  0.37908802896E+03  0.00000000000E+00 0. -1.
         -1   -1    0    0    0  501 -0.00000000000E+00 -0.00000000000E+00 -0.14697283645E+03  0.14697283645E+03  0.00000000000E+00 0.  1.
         23    2    1    2    0    0  0.74217965406E+02 -0.16660743560E+03  0.61856813334E+01  0.22125169919E+03  0.12509079803E+03 0.  0.
          5    1    3    3  502    0  0.73058293198E+02 -0.13279718235E+03 -0.46416543184E+02  0.15857040621E+03  0.41800000000E+01 0.  1.
         -5    1    3    3    0  502  0.11596722081E+01 -0.33810253252E+02  0.52602224517E+02  0.62681292973E+02  0.41800000000E+01 0.  1.
        -11    1    1    2    0    0 -0.61761433293E+02  0.82107032270E+02  0.62102419873E+02  0.12005311302E+03  0.00000000000E+00 0.  1.
         11    1    1    2    0    0 -0.12456532113E+02  0.84500403333E+02  0.16382709130E+03  0.18475605322E+03  0.00000000000E+00 0. -1.
</event>
<event>
 7    1  0.6473813E-006  0.6808426E+02  0.7561462E-02  0.1366731E+00
          1   -1    0    0  501    0  0.00000000000E+00  0.00000000000E+00  0.45763837120E+03  0.45763837120E+03  0.00000000000E+00 0. -1.
         -1   -1    0    0    0  501 -0.00000000000E+00 -0.00000000000E+00 -0.30561292137E+02  0.30561292137E+02  0.00000000000E+00 0.  1.
         23    2    1    2    0    0  0.42511317734E+02 -0.17523813215E+02  0.21730860804E+03  0.25492156180E+03  0.12509066864E+03 0.  0.
          5    1    3    3  502    0  0.34371569890E+02 -0.26375636910E+01 -0.21280768691E+01  0.34790266887E+02  0.41800000000E+01 0. -1.
         -5    1    3    3    0  502  0.81397478446E+01 -0.14886249524E+02  0.21943668490E+03  0.22013129492E+03  0.41800000000E+01 0. -1.
        -11    1    1    2    0    0 -0.52121227937E+02 -0.11518489750E+02  0.18877439636E+03  0.19617612171E+03  0.00000000000E+00 0. -1.
         11    1    1    2    0    0  0.96099102026E+01  0.29042302965E+02  0.20994074665E+02  0.37101979821E+02  0.00000000000E+00 0.  1.
</event>
<event>
 7    1  0.6473813E-006  0.1294419E+03  0.7561462E-02  0.1228286E+00
         -1   -1    0    0    0  501 -0.00000000000E+00  0.00000000000E+00  0.21625319858E+03  0.21625319858E+03  0.00000000000E+00 0.  1.
          1   -1    0    0  501    0  0.00000000000E+00 -0.00000000000E+00 -0.96163340378E+02  0.96163340378E+02  0.00000000000E+00 0. -1.
         23    2    1    2    0    0 -0.81228094002E+02 -0.10043942215E+02  0.11778415785E+03  0.19031362630E+03  0.12508910618E+03 0.  0.
          5    1    3    3  502    0  0.26225170146E+02 -0.29920469293E+02  0.28154564371E+02  0.48919790748E+02  0.41800000000E+01 0. -1.
         -5    1    3    3    0  502 -0.10745326415E+03  0.19876527077E+02  0.89629593481E+02  0.14139383555E+03  0.41800000000E+01 0. -1.
        -11    1    1    2    0    0  0.35987948175E+02 -0.31704962150E+02  0.27841076329E+02  0.55456853228E+02  0.00000000000E+00 0.  1.
         11    1    1    2    0    0  0.45240145827E+02  0.41748904366E+02 -0.25535375983E+02  0.66646059424E+02  0.00000000000E+00 0. -1.
</event>
<event>
 7    1  0.6473813E-006  0.1051637E+03  0.7561462E-02  0.1269797E+00
         -3   -1    0    0    0  501 -0.00000000000E+00  0.00000000000E+00  0.58637433821E+02  0.58637433821E+02  0.00000000000E+00 0.  1.
          3   -1    0    0  501    0  0.00000000000E+00 -0.00000000000E+00 -0.22039742018E+03  0.22039742018E+03  0.00000000000E+00 0. -1.
         23    2    1    2    0    0 -0.38134711079E+02  0.28919487100E+02 -0.77756963662E+02  0.14414983252E+03  0.11154566730E+03 0.  0.
          5    1    3    3  502    0  0.36125818494E+02  0.29561521205E+02 -0.33357190773E+02  0.57525063008E+02  0.41800000000E+01 0. -1.
         -5    1    3    3    0  502 -0.74260529572E+02 -0.64203410582E+00 -0.44399772890E+02  0.86624769511E+02  0.41800000000E+01 0.  1.
        -11    1    1    2    0    0  0.21062552625E+02 -0.54442114553E+02 -0.16398763719E+02  0.60634102711E+02  0.00000000000E+00 0.  1.
         11    1    1    2    0    0  0.17072158453E+02  0.25522627453E+02 -0.67604258977E+02  0.74250918771E+02  0.00000000000E+00 0. -1.
</event>
<event>
 7    1  0.6473813E-006  0.1120113E+03  0.7561462E-02  0.1256890E+00
          1   -1    0    0  501    0  0.00000000000E+00  0.00000000000E+00  0.52806565304E+03  0.52806565304E+03  0.00000000000E+00 0. -1.
         -1   -1    0    0    0  501 -0.00000000000E+00 -0.00000000000E+00 -0.36778761099E+02  0.36778761099E+02  0.00000000000E+00 0.  1.
         23    2    1    2    0    0  0.61074411547E+02  0.67155759943E+02  0.20982469006E+03  0.26059866393E+03  0.12508110667E+03 0.  0.
          5    1    3    3  502    0 -0.35058505435E+01  0.36731308079E+02 -0.18407073680E+01  0.37179841109E+02  0.41800000000E+01 0. -1.
         -5    1    3    3    0  502  0.64580262091E+02  0.30424451864E+02  0.21166539743E+03  0.22341882283E+03  0.41800000000E+01 0. -1.
        -11    1    1    2    0    0 -0.16466470062E+02 -0.68796667141E+02  0.17979655753E+03  0.19321213251E+03  0.00000000000E+00 0.  1.
         11    1    1    2    0    0 -0.44607941485E+02  0.16409071976E+01  0.10166564435E+03  0.11103361770E+03  0.00000000000E+00 0. -1.
</event>
<event>
 7    1  0.6473813E-006  0.1022377E+03  0.7561462E-02  0.1275660E+00
          3   -1    0    0  501    0  0.00000000000E+00  0.00000000000E+00  0.31192305396E+03  0.31192305396E+03  0.00000000000E+00 0. -1.
         -3   -1    0    0    0  501 -0.00000000000E+00 -0.00000000000E+00 -0.55649149162E+02  0.55649149162E+02  0.00000000000E+00 0.  1.
         23    2    1    2    0    0 -0.44460714798E+02 -0.42844709518E+02  0.93759487851E+02  0.16807952652E+03  0.12508981325E+03 0.  0.
          5    1    3    3  502    0 -0.10626920251E+02  0.25321037687E+02 -0.17785504248E+02  0.32983070581E+02  0.41800000000E+01 0.  1.
         -5    1    3    3    0  502 -0.33833794547E+02 -0.68165747205E+02  0.11154499210E+03  0.13509645594E+03  0.41800000000E+01 0.  1.
        -11    1    1    2    0    0  0.67484362952E+02  0.27838008179E+02  0.63562066599E+02  0.96794784223E+02  0.00000000000E+00 0.  1.
         11    1    1    2    0    0 -0.23023648154E+02  0.15006701339E+02  0.98952350346E+02  0.10269789238E+03  0.00000000000E+00 0. -1.
</event>
<event>
 7    1  0.6473813E-006  0.9374004E+02  0.7561462E-02  0.1294039E+00
          1   -1    0    0  501    0  0.00000000000E+00  0.00000000000E+00  0.19800580695E+02  0.19800580695E+02  0.00000000000E+00 0. -1.
         -1   -1    0    0    0  501 -0.00000000000E+00 -0.00000000000E+00 -0.77759124480E+03  0.77759124480E+03  0.00000000000E+00 0.  1.
         23    2    1    2    0    0  0.52007353048E+02  0.13491735688E+02 -0.51337548945E+03  0.53111998050E+03  0.12508896363E+03 0.  0.
          5    1    3    3  502    0  0.78543009214E+02  0.43836827333E+02 -0.27621579051E+03  0.29052247254E+03  0.41800000000E+01 0.  1.
         -5    1    3    3    0  502 -0.26535656166E+02 -0.30345091645E+02 -0.23715969894E+03  0.24059750796E+03  0.41800000000E+01 0.  1.
        -11    1    1    2    0    0 -0.15300467645E+02  0.46104953163E+01  0.23356122702E+01  0.16149800677E+02  0.00000000000E+00 0. -1.
         11    1    1    2    0    0 -0.36706885403E+02 -0.18102231004E+02 -0.24675078693E+03  0.25012204431E+03  0.00000000000E+00 0.  1.
</event>
<event>
 7    1  0.6473813E-006  0.1227422E+03  0.7561462E-02  0.1238641E+00
         -1   -1    0    0    0  501 -0.00000000000E+00  0.00000000000E+00  0.48335608989E+02  0.48335608989E+02  0.00000000000E+00 0.  1.
          1   -1    0    0  501    0  0.00000000000E+00 -0.00000000000E+00 -0.41086991802E+03  0.41086991802E+03  0.00000000000E+00 0. -1.
         23    2    1    2    0    0  0.24188869676E+02  0.82678821555E+02 -0.16374649254E+03  0.22334082507E+03  0.12508925363E+03 0.  0.
          5    1    3    3  502    0  0.18128651907E+02 -0.30262579559E+02 -0.60414510949E+02  0.70084643644E+02  0.41800000000E+01 0. -1.
         -5    1    3    3    0  502  0.60602177686E+01  0.11294140111E+03 -0.10333198159E+03  0.15325618143E+03  0.41800000000E+01 0. -1.
        -11    1    1    2    0    0 -0.23282402644E+02 -0.12182148280E+02 -0.14453502771E+03  0.14690421793E+03  0.00000000000E+00 0. -1.
         11    1    1    2    0    0 -0.90646703178E+00 -0.70496673275E+02 -0.54252788774E+02  0.88960484009E+02  0.00000000000E+00 0.  1.
</event>
<event>
 7    1  0.6473813E-006  0.9185823E+02  0.7561462E-02  0.1298413E+00
          3   -1    0    0  501    0  0.00000000000E+00  0.00000000000E+00  0.22250132763E+02  0.22250132763E+02  0.00000000000E+00 0. -1.
         -3   -1    0    0    0  501 -0.00000000000E+00 -0.00000000000E+00 -0.89839313311E+03  0.89839313311E+03  0.00000000000E+00 0.  1.
         23    2    1    2    0    0 -0.77878292382E+02 -0.23562270294E+02 -0.62689823180E+03  0.64441379884E+03  0.12509013588E+03 0.  0.
          5    1    3    3  502    0 -0.23966144382E+02  0.21071507331E+02 -0.48569931907E+03  0.48676450717E+03  0.41800000000E+01 0.  1.
         -5    1    3    3    0  502 -0.53912148000E+02 -0.44633777625E+02 -0.14119891273E+03  0.15764929167E+03  0.41800000000E+01 0.  1.
        -11    1    1    2    0    0  0.66676578186E+02  0.19097299171E+02 -0.25397576626E+03  0.26327583018E+03  0.00000000000E+00 0.  1.
         11    1    1    2    0    0  0.11201714196E+02  0.44649711229E+01  0.47309977155E+01  0.12953636842E+02  0.00000000000E+00 0. -1.
</event>
<event>
 7    1  0.6473813E-006  0.8995350E+02  0.7561462E-02  0.1302964E+00
          2   -1    0    0  501    0  0.00000000000E+00  0.00000000000E+00  0.18526038908E+02  0.18526038908E+02  0.00000000000E+00 0. -1.
         -2   -1    0    0    0  501 -0.00000000000E+00 -0.00000000000E+00 -0.82917964138E+03  0.82917964138E+03  0.00000000000E+00 0.  1.
         23    2    1    2    0    0 -0.69636659757E+01  0.19867221490E+02 -0.65070560755E+03  0.66295404983E+03  0.12508831028E+03 0.  0.
          5    1    3    3  502    0 -0.12878693538E+02  0.56262632018E+02 -0.58197697791E+03  0.58484700540E+03  0.41800000000E+01 0. -1.
         -5    1    3    3    0  502  0.59150275628E+01 -0.36395410529E+02 -0.68728629632E+02  0.78107044430E+02  0.41800000000E+01 0. -1.
        -11    1    1    2    0    0 -0.14138500305E+02  0.28689995417E+02 -0.98900423718E+02  0.10394376768E+03  0.00000000000E+00 0.  1.
         11    1    1    2    0    0  0.21102166281E+02 -0.48557216906E+02 -0.61047571207E+02  0.80807862772E+02  0.00000000000E+00 0. -1.
</event>
<event>
 7    1  0.6473813E-006  0.8368637E+02  0.7561462E-02  0.1318904E+00
         -1   -1    0    0    0  501 -0.00000000000E+00  0.00000000000E+00  0.26448090944E+03  0.26448090944E+03  0.00000000000E+00 0.  1.
          1   -1    0    0  501    0  0.00000000000E+00 -0.00000000000E+00 -0.51869812149E+02  0.51869812149E+02  0.00000000000E+00 0. -1.
         23    2    1    2    0    0 -0.53880740815E+02  0.39557749592E+01  0.14276060604E+03  0.18861261496E+03  0.11079415824E+03 0.  0.
          5    1    3    3  502    0  0.10468074876E+02 -0.10292999631E+02 -0.12603630882E+02  0.19795210139E+02  0.41800000000E+01 0. -1.
         -5    1    3    3    0  502 -0.64348815691E+02  0.14248774590E+02  0.15536423692E+03  0.16881740482E+03  0.41800000000E+01 0.  1.
        -11    1    1    2    0    0 -0.64904132283E+01  0.20069171924E+02 -0.11181074596E+02  0.23872862307E+02  0.00000000000E+00 0.  1.
         11    1    1    2    0    0  0.60371154043E+02 -0.24024946884E+02  0.81031565847E+02  0.10386524432E+03  0.00000000000E+00 0. -1.
</event>
<event>
 7    1  0.6473813E-006  0.1146672E+03  0.7561462E-02  0.1252163E+00
         -1   -1    0    0    0  501 -0.00000000000E+00  0.00000000000E+00  0.11867434953E+03  0.11867434953E+03  0.00000000000E+00 0.  1.
          1   -1    0    0  501    0  0.00000000000E+00 -0.00000000000E+00 -0.15678284041E+03  0.15678284041E+03  0.00000000000E+00 0. -1.
         23    2    1    2    0    0 -0.82130326157E+02 -0.44085522685E+01 -0.26561553624E+02  0.15204670064E+03  0.12509139554E+03 0.  0.
          5    1    3    3  502    0  0.31189803702E+02 -0.11346937890E+02  0.57261387240E+01  0.33938443086E+02  0.41800000000E+01 0.  1.
         -5    1    3    3    0  502 -0.11332012986E+03  0.69383856211E+01 -0.32287692348E+02  0.11810825756E+03  0.41800000000E+01 0.  1.
        -11    1    1    2    0    0  0.71950398238E+02  0.45267430000E+01 -0.47307847800E+02  0.86228670825E+02  0.00000000000E+00 0. -1.
         11    1    1    2    0    0  0.10179927919E+02 -0.11819073147E+00  0.35760910545E+02  0.37181818466E+02  0.00000000000E+00 0.  1.
</event>
<event>
 7    1  0.6473813E-006  0.9390852E+02  0.7561462E-02  0.1293653E+00
         -2   -1    0    0    0  501 -0.00000000000E+00  0.00000000000E+00  0.28383602898E+02  0.28383602898E+02  0.00000000000E+00 0.  1.
          2   -1    0    0  501    0  0.00000000000E+00 -0.00000000000E+00 -0.52016116373E+03  0.52016116373E+03  0.00000000000E+00 0. -1.
         23    2    1    2    0    0 -0.57548008263E+02 -0.33670963825E+01 -0.29452468131E+03  0.32513621716E+03  0.12508261755E+03 0.  0.
          5    1    3    3  502    0 -0.67722241829E+02 -0.40048825269E+02 -0.26589340390E+03  0.27732108662E+03  0.41800000000E+01 0. -1.
         -5    1    3    3    0  502  0.10174233566E+02  0.36681728886E+02 -0.28631277414E+02  0.47815130545E+02  0.41800000000E+01 0. -1.
        -11    1    1    2    0    0  0.35415892632E+02 -0.18210009833E+02 -0.22090474373E+02  0.45539861298E+02  0.00000000000E+00 0.  1.
         11    1    1    2    0    0  0.22132115631E+02  0.21577106216E+02 -0.17516240514E+03  0.17786868817E+03  0.00000000000E+00 0. -1.
</event>
<event>
 7    1  0.6473813E-006  0.1431108E+03  0.7561462E-02  0.1209203E+00
          2   -1    0    0  501    0  0.00000000000E+00  0.00000000000E+00  0.32007268633E+02  0.32007268633E+02  0.00000000000E+00 0. -1.
         -2   -1    0    0    0  501 -0.00000000000E+00 -0.00000000000E+00 -0.10276267424E+04  0.10276267424E+04  0.00000000000E+00 0.  1.
         23    2    1    2    0    0 -0.81693820778E+01  0.11425026991E+03 -0.78472386813E+03  0.80283726378E+03  0.12504503161E+03 0.  0.
          5    1    3    3  502    0  0.37547634428E+02  0.85689964548E+02 -0.66384305691E+03  0.67041604358E+03  0.41800000000E+01 0. -1.
         -5    1    3    3    0  502 -0.45717016506E+02  0.28560305363E+02 -0.12088081121E+03  0.13242122020E+03  0.41800000000E+01 0. -1.
        -11    1    1    2    0    0  0.39181684583E+02 -0.92986329979E+02 -0.18628169316E+03  0.21185497676E+03  0.00000000000E+00 0.  1.
         11    1    1    2    0    0 -0.31012302506E+02 -0.21263939933E+02 -0.24613912494E+02  0.44941770508E+02  0.00000000000E+00 0. -1.
</event>
<event>
 7    1  0.6473813E-006  0.1395590E+03  0.7561462E-02  0.1213924E+00
          1   -1    0    0  501    0  0.00000000000E+00  0.00000000000E+00  0.31952773841E+03  0.31952773841E+03  0.00000000000E+00 0. -1.
         -1   -1    0    0    0  501 -0.00000000000E+00 -0.00000000000E+00 -0.71482567784E+02  0.71482567784E+02  0.00000000000E+00 0.  1.
         23    2    1    2    0    0 -0.21314850859E+02 -0.97140545754E+02  0.93916979385E+02  0.18536120505E+03  0.12509104214E+03 0.  0.
          5    1    3    3  502    0 -0.37185159060E+02 -0.11380247441E+03  0.39515218445E+02  0.12614540866E+03  0.41800000000E+01 0.  1.
         -5    1    3    3    0  502  0.15870308202E+02  0.16661928658E+02  0.54401760940E+02  0.59215796392E+02  0.41800000000E+01 0.  1.
        -11    1    1    2    0    0  0.53092341911E+02  0.28415961759E+02  0.62594470332E+02  0.86858110551E+02  0.00000000000E+00 0. -1.
         11    1    1    2    0    0 -0.31777491052E+02  0.68724583995E+02  0.91533720909E+02  0.11879099059E+03  0.00000000000E+00 0.  1.
</event>
<event>
 7    1  0.6473813E-006  0.8586700E+02  0.7561462E-02  0.1313181E+00
          3   -1    0    0  501    0  0.00000000000E+00  0.00000000000E+00  0.19223701336E+03  0.19223701336E+03  0.00000000000E+00 0. -1.
         -3   -1    0    0    0  501 -0.00000000000E+00 -0.00000000000E+00 -0.63990629495E+02  0.63990629495E+02  0.00000000000E+00 0.  1.
         23    2    1    2    0    0  0.24228178756E+02  0.15182470112E+02  0.30147443309E+02  0.12099491019E+03  0.11363708861E+03 0.  0.
          5    1    3    3  502    0  0.29556924306E+02 -0.27115362220E+02  0.57454316842E+02  0.70194911257E+02  0.41800000000E+01 0. -1.
         -5    1    3    3    0  502 -0.53287455496E+01  0.42297832332E+02 -0.27306873532E+02  0.50799998929E+02  0.41800000000E+01 0.  1.
        -11    1    1    2    0    0  0.25797164765E+02  0.15295858285E+02  0.14921109597E+02  0.33497708909E+02  0.00000000000E+00 0.  1.
         11    1    1    2    0    0 -0.50025343521E+02 -0.30478328397E+02  0.83177830959E+02  0.10173502376E+03  0.00000000000E+00 0. -1.
</event>
<event>
 7    1  0.6473813E-006  0.1241864E+03  0.7561462E-02  0.1236346E+00
         -1   -1    0    0    0  501 -0.00000000000E+00  0.00000000000E+00  0.63847040586E+02  0.63847040586E+02  0.00000000000E+00 0.  1.
          1   -1    0    0  501    0  0.00000000000E+00 -0.00000000000E+00 -0.33044349519E+03  0.33044349519E+03  0.00000000000E+00 0. -1.
         23    2    1    2    0    0 -0.92126079202E+02  0.20119247057E+02 -0.16990987993E+03  0.23110333545E+03  0.12508951110E+03 0.  0.
          5    1    3    3  502    0 -0.58629966074E+02  0.69955504067E+02 -0.12993817377E+03  0.15884787337E+03  0.41800000000E+01 0. -1.
         -5    1    3    3    0  502 -0.33496113129E+02 -0.49836257010E+02 -0.39971706164E+02  0.72255462085E+02  0.41800000000E+01 0. -1.
        -11    1    1    2    0    0  0.39883659164E+02 -0.19885896085E+02  0.88419369980E+01  0.45434953299E+02  0.00000000000E+00 0.  1.
         11    1    1    2    0    0  0.52242420038E+02 -0.23335097185E+00 -0.10552851166E+03  0.11775224702E+03  0.00000000000E+00 0. -1.
</event>
<event>
 7    1  0.6473813E-006  0.9197305E+02  0.7561462E-02  0.1298143E+00
         -1   -1    0    0    0  501 -0.00000000000E+00  0.00000000000E+00  0.68655611397E+02  0.68655611397E+02  0.00000000000E+00 0.  1.
          1   -1    0    0  501    0  0.00000000000E+00 -0.00000000000E+00 -0.28057674913E+03  0.28057674913E+03  0.00000000000E+00 0. -1.
         23    2    1    2    0    0 -0.11741576606E+02  0.76753816708E+02 -0.66981132731E+02  0.16174913339E+03  0.12508915624E+03 0.  0.
          5    1    3    3  502    0 -0.83838405621E+01  0.74374461961E+02  0.17570889406E+02  0.76993882414E+02  0.41800000000E+01 0.  1.
         -5    1    3    3    0  502 -0.33577360434E+01  0.23793547467E+01 -0.84552022136E+02  0.84755250974E+02  0.41800000000E+01 0.  1.
        -11    1    1    2    0    0  0.42656648969E+00 -0.87507270793E+02 -0.14765575033E+03  0.17163893791E+03  0.00000000000E+00 0. -1.
         11    1    1    2    0    0  0.11315010116E+02  0.10753454084E+02  0.27157453245E+01  0.15844289234E+02  0.00000000000E+00 0.  1.
</event>
<event>
 7    1  0.6473813E-006  0.9215256E+02  0.7561462E-02  0.1297721E+00
          1   -1    0    0  501    0  0.00000000000E+00  0.00000000000E+00  0.17352187069E+03  0.17352187069E+03  0.00000000000E+00 0. -1.
         -1   -1    0    0    0  501 -0.00000000000E+00 -0.00000000000E+00 -0.17532900138E+03  0.17532900138E+03  0.00000000000E+00 0.  1.
         23    2    1    2    0    0  0.16323105433E+02  0.59606485200E+02 -0.11477658231E+03  0.18071064761E+03  0.12515309610E+03 0.  0.
          5    1    3    3  502    0  0.28226544963E+01  0.31076492248E+02  0.23200235789E+02  0.39108043795E+02  0.41800000000E+01 0.  1.
         -5    1    3    3    0  502  0.13500450937E+02  0.28529992953E+02 -0.13797681810E+03  0.14160260381E+03  0.41800000000E+01 0.  1.
        -11    1    1    2    0    0 -0.59734750325E+02 -0.46302751252E+02  0.89121667303E+02  0.11685399759E+03  0.00000000000E+00 0. -1.
         11    1    1    2    0    0  0.43411644892E+02 -0.13303733948E+02  0.23847784318E+02  0.51286226865E+02  0.00000000000E+00 0.  1.
</event>
<event>
 7    1  0.6473813E-006  0.8191269E+02  0.7561462E-02  0.1323709E+00
         -2   -1    0    0    0  501 -0.00000000000E+00  0.00000000000E+00  0.16979611347E+02  0.16979611347E+02  0.00000000000E+00 0.  1.
          2   -1    0    0  501    0  0.00000000000E+00 -0.00000000000E+00 -0.74079218833E+03  0.74079218833E+03  0.00000000000E+00 0. -1.
         23    2    1    2    0    0 -0.33802936035E+02  0.88064405810E+01 -0.40171921914E+03  0.42102510729E+03  0.12109342701E+03 0.  0.
          5    1    3    3  502    0  0.17878728596E+02 -0.44733127846E+01 -0.33480400234E+03  0.33533692288E+03  0.41800000000E+01 0. -1.
         -5    1    3    3    0  502 -0.51681664632E+02  0.13279753366E+02 -0.66915216793E+02  0.85688184407E+02  0.41800000000E+01 0.  1.
        -11    1    1    2    0    0  0.38656730708E+02  0.32077405576E+02 -0.23637627585E+03  0.24165480869E+03  0.00000000000E+00 0. -1.
         11    1    1    2    0    0 -0.48537946722E+01 -0.40883846157E+02 -0.85717081996E+02  0.95091883698E+02  0.00000000000E+00 0.  1.
</event>
<event>
 7    1  0.6473813E-006  0.1140801E+03  0.7561462E-02  0.1253195E+00
          3   -1    0    0  501    0  0.00000000000E+00  0.00000000000E+00  0.19134760873E+03  0.19134760873E+03  0.00000000000E+00 0. -1.
         -3   -1    0    0    0  501 -0.00000000000E+00 -0.00000000000E+00 -0.11838997562E+03  0.11838997562E+03  0.00000000000E+00 0.  1.
         23    2    1    2    0    0  0.92689910308E+01  0.79059237425E+02 -0.27619035116E+02  0.15082178083E+03  0.12509245084E+03 0.  0.
          5    1    3    3  502    0 -0.23392011207E+02  0.87165881893E+02 -0.56262212583E+02  0.10643301236E+03  0.41800000000E+01 0. -1.
         -5    1    3    3    0  502  0.32661002237E+02 -0.81066444678E+01  0.28643177467E+02  0.44388768479E+02  0.41800000000E+01 0. -1.
        -11    1    1    2    0    0  0.80796653518E+01 -0.85137557282E+02  0.10912460561E+03  0.13864293780E+03  0.00000000000E+00 0.  1.
         11    1    1    2    0    0 -0.17348656383E+02  0.60783198568E+01 -0.85479373922E+01  0.20272865713E+02  0.00000000000E+00 0. -1.
</event>
<event>
 7    1  0.6473813E-006  0.1257013E+03  0.7561462E-02  0.1233977E+00
         -1   -1    0    0    0  501 -0.00000000000E+00  0.00000000000E+00  0.35198535572E+02  0.35198535572E+02  0.00000000000E+00 0.  1.
          1   -1    0    0  501    0  0.00000000000E+00 -0.00000000000E+00 -0.49836740721E+03  0.49836740721E+03  0.00000000000E+00 0. -1.
         23    2    1    2    0    0 -0.38134791928E+02 -0.53556000130E+02 -0.17422389411E+03  0.22432181632E+03  0.12507519535E+03 0.  0.
          5    1    3    3  502    0 -0.97528565360E+01 -0.92401273787E+02 -0.11395453855E+03  0.14709256563E+03  0.41800000000E+01 0. -1.
         -5    1    3    3    0  502 -0.28381935392E+02  0.38845273656E+02 -0.60269355555E+02  0.77229250683E+02  0.41800000000E+01 0. -1.
        -11    1    1    2    0    0 -0.28989296069E+02  0.18326006912E+02 -0.84293767052E+02  0.91003631684E+02  0.00000000000E+00 0.  1.
         11    1    1    2    0    0  0.67124087997E+02  0.35229993218E+02 -0.20465121048E+03  0.21824049478E+03  0.00000000000E+00 0. -1.
</event>
<event>
 7    1  0.6473813E-006  0.5898810E+02  0.7561462E-02  0.1402128E+00
         -2   -1    0    0    0  501 -0.00000000000E+00  0.00000000000E+00  0.44855668935E+02  0.44855668935E+02  0.00000000000E+00 0.  1.
          2   -1    0    0  501    0  0.00000000000E+00 -0.00000000000E+00 -0.29485131283E+03  0.29485131283E+03  0.00000000000E+00 0. -1.
         23    2    1    2    0    0 -0.23180801330E+01 -0.31610357824E+02 -0.11296836338E+03  0.17150099223E+03  0.12508457537E+03 0.  0.
          5    1    3    3  502    0 -0.29482136338E+01 -0.83220288116E+01 -0.13724703180E+03  0.13759421596E+03  0.41800000000E+01 0. -1.
         -5    1    3    3    0  502  0.63013350077E+00 -0.23288329012E+02  0.24278668427E+02  0.33906776270E+02  0.41800000000E+01 0. -1.
        -11    1    1    2    0    0  0.33540247973E+02 -0.76257513497E+01 -0.17510759325E+02  0.38596981875E+02  0.00000000000E+00 0.  1.
         11    1    1    2    0    0 -0.31222167840E+02  0.39236109174E+02 -0.11951652119E+03  0.12960900766E+03  0.00000000000E+00 0. -1.
</event>
<event>
 7    1  0.6473813E-006  0.5801468E+02  0.7561462E-02  0.1406357E+00
          1   -1    0    0  501    0  0.00000000000E+00  0.00000000000E+00  0.14250543344E+03  0.14250543344E+03  0.00000000000E+00 0. -1.
         -1   -1    0    0    0  501 -0.00000000000E+00 -0.00000000000E+00 -0.87020336293E+02  0.87020336293E+02  0.00000000000E+00 0.  1.
         23    2    1    2    0    0  0.21238652006E+01 -0.14104237482E+02  0.82275314576E+01  0.12616833393E+03  0.12508923172E+03 0.  0.
          5    1    3    3  502    0 -0.99472734639E+01 -0.14625297057E+02 -0.56933931037E+02  0.59764474955E+02  0.41800000000E+01 0.  1.
         -5    1    3    3    0  502  0.12071138665E+02  0.52105957504E+00  0.65161462494E+02  0.66403858970E+02  0.41800000000E+01 0.  1.
        -11    1    1    2    0    0 -0.42721949046E+02  0.12187469140E+02  0.44089886714E+02  0.62590873495E+02  0.00000000000E+00 0. -1.
         11    1    1    2    0    0  0.40598083846E+02  0.19167683416E+01  0.31676789756E+01  0.40766562314E+02  0.00000000000E+00 0.  1.
</event>
<event>
 7    1  0.6473813E-006  0.1476537E+03  0.7561462E-02  0.1203386E+00
         -2   -1    0    0    0  501 -0.00000000000E+00  0.00000000000E+00  0.21774241187E+02  0.21774241187E+02  0.00000000000E+00 0.  1.
          2   -1    0    0  501    0  0.00000000000E+00 -0.00000000000E+00 -0.10208515751E+04  0.10208515751E+04  0.00000000000E+00 0. -1.
         23    2    1    2    0    0 -0.63028676459E+01 -0.10109131184E+03 -0.56102863510E+03  0.58365970348E+03  0.12508533328E+03 0.  0.
          5    1    3    3  502    0 -0.49379657174E-01 -0.13051474659E+03 -0.45455972452E+03  0.47294409508E+03  0.41800000000E+01 0. -1.
         -5    1    3    3    0  502 -0.62534879887E+01  0.29423434753E+02 -0.10646891058E+03  0.11071560841E+03  0.41800000000E+01 0. -1.
        -11    1    1    2    0    0  0.46771810810E+02  0.42834977029E+02 -0.16261894324E+03  0.17454901387E+03  0.00000000000E+00 0.  1.
         11    1    1    2    0    0 -0.40468943164E+02  0.58256334808E+02 -0.27542975556E+03  0.28441709892E+03  0.00000000000E+00 0. -1.
</event>
<event>
 7    1  0.6473813E-006  0.1782671E+03  0.7561462E-02  0.1169491E+00
         -2   -1    0    0    0  501 -0.00000000000E+00  0.00000000000E+00  0.51135312208E+02  0.51135312208E+02  0.00000000000E+00 0.  1.
          2   -1    0    0  501    0  0.00000000000E+00 -0.00000000000E+00 -0.79757286402E+03  0.79757286402E+03  0.00000000000E+00 0. -1.
         23    2    1    2    0    0  0.16048903132E+03  0.37404116162E+02 -0.30466524323E+03  0.36827231830E+03  0.12509113842E+03 0.  0.
          5    1    3    3  502    0  0.38340044760E+02  0.25486210612E+02 -0.20491213950E+03  0.21006180824E+03  0.41800000000E+01 0. -1.
         -5    1    3    3    0  502  0.12214898656E+03  0.11917905551E+02 -0.99753103730E+02  0.15821051007E+03  0.41800000000E+01 0. -1.
        -11    1    1    2    0    0 -0.55973541167E+02  0.29638696660E+02 -0.12336889209E+03  0.13867722663E+03  0.00000000000E+00 0.  1.
         11    1    1    2    0    0 -0.10451549016E+03 -0.67042812822E+02 -0.31840341649E+03  0.34175863130E+03  0.00000000000E+00 0. -1.
</event>
<event>
 7    1  0.6473813E-006  0.1232238E+03  0.7561462E-02  0.1237872E+00
          2   -1    0    0  501    0  0.00000000000E+00  0.00000000000E+00  0.21551074979E+03  0.21551074979E+03  0.00000000000E+00 0. -1.
         -2   -1    0    0    0  501 -0.00000000000E+00 -0.00000000000E+00 -0.10000446093E+03  0.10000446093E+03  0.00000000000E+00 0.  1.
         23    2    1    2    0    0 -0.61203983153E+02  0.51313119223E+02  0.17047336207E+01  0.14844985105E+03  0.12512189418E+03 0.  0.
          5    1    3    3  502    0 -0.69102694566E+02 -0.38017209100E+01 -0.38817687426E+02  0.79460183333E+02  0.41800000000E+01 0. -1.
         -5    1    3    3    0  502  0.78987114130E+01  0.55114840133E+02  0.40522421047E+02  0.68989667722E+02  0.41800000000E+01 0. -1.
        -11    1    1    2    0    0  0.81538985051E+02 -0.20021592326E+02  0.68408403146E+02  0.10830133823E+03  0.00000000000E+00 0. -1.
         11    1    1    2    0    0 -0.20335001897E+02 -0.31291526896E+02  0.45393152098E+02  0.58764021434E+02  0.00000000000E+00 0.  1.
</event>
<event>
 7    1  0.6473813E-006  0.1004130E+03  0.7561462E-02  0.1279430E+00
          1   -1    0    0  501    0  0.00000000000E+00  0.00000000000E+00  0.51174714412E+03  0.51174714412E+03  0.00000000000E+00 0. -1.
         -1   -1    0    0    0  501 -0.00000000000E+00 -0.00000000000E+00 -0.31480205652E+02  0.31480205652E+02  0.00000000000E+00 0.  1.
         23    2    1    2    0    0  0.51506352614E+02 -0.24642934252E+02  0.21953592914E+03  0.25904252067E+03  0.12508726859E+03 0.  0.
          5    1    3    3  502    0  0.58766671179E+02  0.32388614776E+02  0.62630396731E+02  0.91883529554E+02  0.41800000000E+01 0.  1.
         -5    1    3    3    0  502 -0.72603185656E+01 -0.57031549028E+02  0.15690553240E+03  0.16715899111E+03  0.41800000000E+01 0.  1.
        -11    1    1    2    0    0 -0.40220126287E+02  0.40111452029E+02  0.25877610524E+03  0.26493708646E+03  0.00000000000E+00 0. -1.
         11    1    1    2    0    0 -0.11286226327E+02 -0.15468517777E+02  0.19549040980E+01  0.19247742645E+02  0.00000000000E+00 0.  1.
</event>
<event>
 7    1  0.6473813E-006  0.1050750E+03  0.7561462E-02  0.1269972E+00
          1   -1    0    0  501    0  0.00000000000E+00  0.00000000000E+00  0.25065404386E+03  0.25065404386E+03  0.00000000000E+00 0. -1.
         -1   -1    0    0    0  501 -0.00000000000E+00 -0.00000000000E+00 -0.56863749002E+02  0.56863749002E+02  0.00000000000E+00 0.  1.
         23    2    1    2    0    0  0.24688489503E+02 -0.42626838577E+02  0.11321444427E+03  0.17576487225E+03  0.12509680670E+03 0.  0.
          5    1    3    3  502    0  0.91207595978E+01 -0.79356497011E+02  0.10932962091E+03  0.13546615918E+03  0.41800000000E+01 0.  1.
         -5    1    3    3    0  502  0.15567729905E+02  0.36729658435E+02  0.38848233533E+01  0.40298713076E+02  0.41800000000E+01 0.  1.
        -11    1    1    2    0    0 -0.25280674516E+02 -0.16971738204E+02 -0.13048325161E+01  0.30477122395E+02  0.00000000000E+00 0.  1.
         11    1    1    2    0    0  0.59218501298E+00  0.59598576780E+02  0.81880683110E+02  0.10127579821E+03  0.00000000000E+00 0. -1.
</event>
<event>
 7    1  0.6473813E-006  0.2278572E+03  0.7561462E-02  0.1128157E+00
         -1   -1    0    0    0  501 -0.00000000000E+00  0.00000000000E+00  0.96745247322E+02  0.96745247322E+02  0.00000000000E+00 0.  1.
          1   -1    0    0  501    0  0.00000000000E+00 -0.00000000000E+00 -0.72323926494E+03  0.72323926494E+03  0.00000000000E+00 0. -1.
         23    2    1    2    0    0  0.21033068496E+03 -0.32560559261E+02 -0.14752708424E+03  0.28759519667E+03  0.12509024546E+03 0.  0.
          5    1    3    3  502    0  0.22226387211E+03 -0.40432710396E+02 -0.15167074955E+03  0.27213511641E+03  0.41800000000E+01 0. -1.
         -5    1    3    3    0  502 -0.11933187155E+02  0.78721511343E+01  0.41436653145E+01  0.15460080252E+02  0.41800000000E+01 0. -1.
        -11    1    1    2    0    0 -0.14220356812E+03  0.79217186941E+01 -0.20931092614E+03  0.25317123101E+03  0.00000000000E+00 0.  1.
         11    1    1    2    0    0 -0.68127116839E+02  0.24638840567E+02 -0.26965600725E+03  0.27921808458E+03  0.00000000000E+00 0. -1.
</event>
<event>
 7    1  0.6473813E-006  0.1318163E+03  0.7561462E-02  0.1224785E+00
          1   -1    0    0  501    0  0.00000000000E+00  0.00000000000E+00  0.63958697204E+02  0.63958697204E+02  0.00000000000E+00 0. -1.
         -1   -1    0    0    0  501 -0.00000000000E+00 -0.00000000000E+00 -0.36392323136E+03  0.36392323136E+03  0.00000000000E+00 0.  1.
         23    2    1    2    0    0  0.72050516409E+02 -0.33820552934E+02 -0.26132180538E+03  0.30045099621E+03  0.12508640389E+03 0.  0.
          5    1    3    3  502    0  0.65152661951E+02  0.35725700226E+02 -0.10054691677E+03  0.12509336468E+03  0.41800000000E+01 0. -1.
         -5    1    3    3    0  502  0.68978544571E+01 -0.69546253160E+02 -0.16077488861E+03  0.17535763152E+03  0.41800000000E+01 0. -1.
        -11    1    1    2    0    0  0.21105692510E+02  0.74384116958E+01  0.19138893623E+01  0.22459812942E+02  0.00000000000E+00 0. -1.
         11    1    1    2    0    0 -0.93156208919E+02  0.26382141238E+02 -0.40556618132E+02  0.10497111941E+03  0.00000000000E+00 0.  1.
</event>
<event>
 7    1  0.6473813E-006  0.9726691E+02  0.7561462E-02  0.1286151E+00
          1   -1    0    0  501    0  0.00000000000E+00  0.00000000000E+00  0.59403159492E+02  0.59403159492E+02  0.00000000000E+00 0. -1.
         -1   -1    0    0    0  501 -0.00000000000E+00 -0.00000000000E+00 -0.21745999867E+03  0.21745999867E+03  0.00000000000E+00 0.  1.
         23    2    1    2    0    0 -0.12128284984E+01 -0.20547461334E+02 -0.12407074215E+03  0.17738289117E+03  0.12508985531E+03 0.  0.
          5    1    3    3  502    0 -0.23129578722E+02 -0.69269837623E+02 -0.69545822454E+02  0.10093255985E+03  0.41800000000E+01 0. -1.
         -5    1    3    3    0  502  0.21916750223E+02  0.48722376289E+02 -0.54524919692E+02  0.76450331321E+02  0.41800000000E+01 0. -1.
        -11    1    1    2    0    0  0.30190437045E+02 -0.31621191906E+01 -0.50211785845E+02  0.58674397521E+02  0.00000000000E+00 0.  1.
         11    1    1    2    0    0 -0.28977608547E+02  0.23709580524E+02  0.16225688815E+02  0.40805869471E+02  0.00000000000E+00 0. -1.
</event>
<event>
 7    1  0.6473813E-006  0.1435456E+03  0.7561462E-02  0.1208636E+00
         -1   -1    0    0    0  501 -0.00000000000E+00  0.00000000000E+00  0.14382137420E+03  0.14382137420E+03  0.00000000000E+00 0.  1.
          1   -1    0    0  501    0  0.00000000000E+00 -0.00000000000E+00 -0.18624938268E+03  0.18624938268E+03  0.00000000000E+00 0. -1.
         23    2    1    2    0    0 -0.10696742252E+03 -0.55872415573E+02  0.27621039060E+01  0.17381234152E+03  0.12505736501E+03 0.  0.
          5    1    3    3  502    0 -0.75138337558E+02 -0.71808602302E+00 -0.50548641235E+02  0.90658275679E+02  0.41800000000E+01 0.  1.
         -5    1    3    3    0  502 -0.31829084961E+02 -0.55154329550E+02  0.53310745141E+02  0.83154065836E+02  0.41800000000E+01 0.  1.
        -11    1    1    2    0    0  0.11934762447E+03  0.36099442309E+02 -0.46034317903E+02  0.13291419649E+03  0.00000000000E+00 0. -1.
         11    1    1    2    0    0 -0.12380201955E+02  0.19772973264E+02  0.84420551524E+00  0.23344218880E+02  0.00000000000E+00 0.  1.
</event>
<event>
 7    1  0.6473813E-006  0.1157096E+03  0.7561462E-02  0.1250348E+00
          1   -1    0    0  501    0  0.00000000000E+00  0.00000000000E+00  0.41182565575E+02  0.41182565575E+02  0.00000000000E+00 0. -1.
         -1   -1    0    0    0  501 -0.00000000000E+00 -0.00000000000E+00 -0.36447386232E+03  0.36447386232E+03  0.00000000000E+00 0.  1.
         23    2    1    2    0    0 -0.19623329193E+02 -0.42363754494E+02 -0.23789585275E+03  0.27280207472E+03  0.12508705958E+03 0.  0.
          5    1    3    3  502    0  0.39069226149E+02  0.23000007167E+02 -0.78004047757E+02  0.90318927297E+02  0.41800000000E+01 0.  1.
         -5    1    3    3    0  502 -0.58692555342E+02 -0.65363761661E+02 -0.15989180499E+03  0.18248314742E+03  0.41800000000E+01 0.  1.
        -11    1    1    2    0    0 -0.24084929883E+02  0.48165376585E+02 -0.28668365383E+02  0.61007069449E+02  0.00000000000E+00 0.  1.
         11    1    1    2    0    0  0.43708259075E+02 -0.58016220910E+01 -0.56727078615E+02  0.71847283724E+02  0.00000000000E+00 0. -1.
</event>
<event>
 7    1  0.6473813E-006  0.1205373E+03  0.7561462E-02  0.1242213E+00
          2   -1    0    0  501    0  0.00000000000E+00  0.00000000000E+00  0.97995575005E+03  0.97995575005E+03  0.00000000000E+00 0. -1.
         -2   -1    0    0    0  501 -0.00000000000E+00 -0.00000000000E+00 -0.18650594336E+02  0.18650594336E+02  0.00000000000E+00 0.  1.
         23    2    1    2    0    0  0.64171765924E+02  0.48853607167E+02  0.46664476247E+03  0.48983593878E+03  0.12520871418E+03 0.  0.
          5    1    3    3  502    0 -0.28209866962E+02 -0.86238430920E+01  0.19364911050E+03  0.19592758270E+03  0.41800000000E+01 0. -1.
         -5    1    3    3    0  502  0.92381632886E+02  0.57477450259E+02  0.27299565197E+03  0.29390835608E+03  0.41800000000E+01 0. -1.
        -11    1    1    2    0    0 -0.19071864935E+02  0.14972001089E+02  0.35397377494E+02  0.42905374747E+02  0.00000000000E+00 0.  1.
         11    1    1    2    0    0 -0.45099900989E+02 -0.63825608256E+02  0.45926301575E+03  0.46586503086E+03  0.00000000000E+00 0. -1.
</event>
<event>
 7    1  0.6473813E-006  0.9163424E+02  0.7561462E-02  0.1298942E+00
         -1   -1    0    0    0  501 -0.00000000000E+00  0.00000000000E+00  0.92786273660E+03  0.92786273660E+03  0.00000000000E+00 0.  1.
          1   -1    0    0  501    0  0.00000000000E+00 -0.00000000000E+00 -0.14503552886E+02  0.14503552886E+02  0.00000000000E+00 0. -1.
         23    2    1    2    0    0 -0.38267129950E+01 -0.34536137255E+02  0.59389212916E+03  0.60791628538E+03  0.12508781089E+03 0.  0.
          5    1    3    3  502    0 -0.10729703728E+02 -0.58443478528E+02  0.12628201486E+03  0.13962588013E+03  0.41800000000E+01 0. -1.
         -5    1    3    3    0  502  0.69029907325E+01  0.23907341273E+02  0.46761011431E+03  0.46829040525E+03  0.41800000000E+01 0. -1.
        -11    1    1    2    0    0  0.43666937710E+02  0.38782645369E+02  0.20589772815E+03  0.21402048848E+03  0.00000000000E+00 0.  1.
         11    1    1    2    0    0 -0.39840224715E+02 -0.42465081135E+01  0.11356932640E+03  0.12042951564E+03  0.00000000000E+00 0. -1.
</event>
<event>
 7    1  0.6473813E-006  0.1172280E+03  0.7561462E-02  0.1247741E+00
         -2   -1    0    0    0  501 -0.00000000000E+00  0.00000000000E+00  0.26309880665E+03  0.26309880665E+03  0.00000000000E+00 0.  1.
          2   -1    0    0  501    0  0.00000000000E+00 -0.00000000000E+00 -0.57486741758E+02  0.57486741758E+02  0.00000000000E+00 0. -1.
         23    2    1    2    0    0  0.20842160849E+02  0.10006729466E+02  0.14363888757E+03  0.19187097618E+03  0.12509121142E+03 0.  0.
          5    1    3    3  502    0  0.67095532013E+02  0.26641107369E+02  0.56618701946E+02  0.91840670882E+02  0.41800000000E+01 0. -1.
         -5    1    3    3    0  502 -0.46253371164E+02 -0.16634377903E+02  0.87020185627E+02  0.10003030530E+03  0.41800000000E+01 0. -1.
        -11    1    1    2    0    0  0.17177140768E+02  0.43732289716E+02  0.25762266935E+02  0.53584155554E+02  0.00000000000E+00 0. -1.
         11    1    1    2    0    0 -0.38019301617E+02 -0.53739019182E+02  0.36210910379E+02  0.75130416667E+02  0.00000000000E+00 0.  1.
</event>
<event>
 7    1  0.6473813E-006  0.1700151E+03  0.7561462E-02  0.1177832E+00
         -2   -1    0    0    0  501 -0.00000000000E+00  0.00000000000E+00  0.39627630951E+02  0.39627630951E+02  0.00000000000E+00 0.  1.
          2   -1    0    0  501    0  0.00000000000E+00 -0.00000000000E+00 -0.96085720379E+03  0.96085720379E+03  0.00000000000E+00 0. -1.
         23    2    1    2    0    0 -0.12908994726E+03  0.96747863576E+02 -0.41904602879E+03  0.46612439367E+03  0.12509201627E+03 0.  0.
          5    1    3    3  502    0 -0.26389844654E+02 -0.14331791376E+01 -0.21952127022E+03  0.22114596623E+03  0.41800000000E+01 0.  1.
         -5    1    3    3    0  502 -0.10270010261E+03  0.98181042714E+02 -0.19952475858E+03  0.24497842744E+03  0.41800000000E+01 0.  1.
        -11    1    1    2    0    0  0.27556247395E+02  0.42933449948E+01 -0.30146871741E+02  0.41068399744E+02  0.00000000000E+00 0. -1.
         11    1    1    2    0    0  0.10153369987E+03 -0.10104120857E+03 -0.47203667230E+03  0.49329204132E+03  0.00000000000E+00 0.  1.
</event>
<event>
 7    1  0.6473813E-006  0.1872136E+03  0.7561462E-02  0.1160999E+00
         -1   -1    0    0    0  501 -0.00000000000E+00  0.00000000000E+00  0.27368575240E+03  0.27368575240E+03  0.00000000000E+00 0.  1.
          1   -1    0    0  501    0  0.00000000000E+00 -0.00000000000E+00 -0.14609545880E+03  0.14609545880E+03  0.00000000000E+00 0. -1.
         23    2    1    2    0    0 -0.53212596867E+02  0.15086575163E+03  0.11367451694E+03  0.23272570206E+03  0.12508917267E+03 0.  0.
          5    1    3    3  502    0 -0.72424718746E+02  0.52888230320E+02  0.95649341147E+02  0.13118221546E+03  0.41800000000E+01 0.  1.
         -5    1    3    3    0  502  0.19212121879E+02  0.97977521308E+02  0.18025175793E+02  0.10154348660E+03  0.41800000000E+01 0.  1.
        -11    1    1    2    0    0  0.59354676497E+02 -0.35440150007E+02  0.17857610208E+02  0.71399412441E+02  0.00000000000E+00 0.  1.
         11    1    1    2    0    0 -0.61420796296E+01 -0.11542560162E+03 -0.39418335523E+01  0.11565609670E+03  0.00000000000E+00 0. -1.
</event>
<event>
 7    1  0.6473813E-006  0.9668812E+02  0.7561462E-02  0.1287419E+00
         -2   -1    0    0    0  501 -0.00000000000E+00  0.00000000000E+00  0.38126360845E+03  0.38126360845E+03  0.00000000000E+00 0.  1.
          2   -1    0    0  501    0  0.00000000000E+00 -0.00000000000E+00 -0.28903140448E+02  0.28903140448E+02  0.00000000000E+00 0. -1.
         23    2    1    2    0    0  0.17081078151E+01  0.17474401170E+02  0.24118088112E+03  0.27225745835E+03  0.12509050276E+03 0.  0.
          5    1    3    3  502    0  0.59096982306E+01 -0.47595645042E+02  0.46612140100E+02  0.67010700376E+02  0.41800000000E+01 0. -1.
         -5    1    3    3    0  502 -0.42015904155E+01  0.65070046212E+02  0.19456874102E+03  0.20524675797E+03  0.41800000000E+01 0. -1.
        -11    1    1    2    0    0 -0.30730457966E+02 -0.34535391473E+02  0.50122157236E+02  0.68185665333E+02  0.00000000000E+00 0.  1.
         11    1    1    2    0    0  0.29022350150E+02  0.17060990303E+02  0.61057429649E+02  0.69723625219E+02  0.00000000000E+00 0. -1.
</event>
<event>
 7    1  0.6473813E-006  0.1264509E+03  0.7561462E-02  0.1232819E+00
          1   -1    0    0  501    0  0.00000000000E+00  0.00000000000E+00  0.60643450170E+03  0.60643450170E+03  0.00000000000E+00 0. -1.
         -1   -1    0    0    0  501 -0.00000000000E+00 -0.00000000000E+00 -0.38357926591E+02  0.38357926591E+02  0.00000000000E+00 0.  1.
         23    2    1    2    0    0  0.10154595810E+02 -0.10641591299E+03  0.29196086885E+03  0.33513767429E+03  0.12509456197E+03 0.  0.
          5    1    3    3  502    0 -0.89308747275E+01 -0.10464397092E+03  0.11007755726E+03  0.15219941585E+03  0.41800000000E+01 0. -1.
         -5    1    3    3    0  502  0.19085470538E+02 -0.17719420677E+01  0.18188331160E+03  0.18293825844E+03  0.41800000000E+01 0. -1.
        -11    1    1    2    0    0  0.30531714871E+02  0.40584179250E+02  0.17560876313E+03  0.18280508447E+03  0.00000000000E+00 0. -1.
         11    1    1    2    0    0 -0.40686310681E+02  0.65831733739E+02  0.10050694312E+03  0.12684966953E+03  0.00000000000E+00 0.  1.
</event>
<event>
 7    1  0.6473813E-006  0.7631611E+02  0.7561462E-02  0.1339843E+00
          2   -1    0    0  501    0  0.00000000000E+00  0.00000000000E+00  0.32418076765E+03  0.32418076765E+03  0.00000000000E+00 0.  1.
         -2   -1    0    0    0  501 -0.00000000000E+00 -0.00000000000E+00 -0.42211585953E+02  0.42211585953E+02  0.00000000000E+00 0. -1.
         23    2    1    2    0    0 -0.92027149454E+01 -0.11952954418E+02  0.95944302490E+02  0.15836895422E+03  0.12509138019E+03 0.  0.
          5    1    3    3  502    0 -0.32823655543E+02 -0.19290379936E+02  0.11856068503E+03  0.12459381829E+03  0.41800000000E+01 0. -1.
         -5    1    3    3    0  502  0.23620940598E+02  0.73374255185E+01 -0.22616382538E+02  0.33775135930E+02  0.41800000000E+01 0. -1.
        -11    1    1    2    0    0  0.23193574290E+02  0.46505511224E+02  0.13634275533E+03  0.14591110785E+03  0.00000000000E+00 0.  1.
         11    1    1    2    0    0 -0.13990859344E+02 -0.34552556806E+02  0.49682123875E+02  0.62112291535E+02  0.00000000000E+00 0. -1.
</event>
<event>
 7    1  0.6473813E-006  0.1356609E+03  0.7561462E-02  0.1219290E+00
         -1   -1    0    0    0  501 -0.00000000000E+00  0.00000000000E+00  0.13383615043E+03  0.13383615043E+03  0.00000000000E+00 0.  1.
          1   -1    0    0  501    0  0.00000000000E+00 -0.00000000000E+00 -0.21364957817E+03  0.21364957817E+03  0.00000000000E+00 0. -1.
         23    2    1    2    0    0  0.44402274230E+02 -0.10014372707E+03  0.27528594653E+02  0.16854012001E+03  0.12509044928E+03 0.  0.
          5    1    3    3  502    0 -0.46800738592E+01 -0.83626429709E+02 -0.31790566892E+02  0.89684978566E+02  0.41800000000E+01 0.  1.
         -5    1    3    3    0  502  0.49082348089E+02 -0.16517297364E+02  0.59319161545E+02  0.78855141447E+02  0.41800000000E+01 0.  1.
        -11    1    1    2    0    0 -0.31630345400E+02 -0.28163804864E+01 -0.53103902291E+02  0.61874349998E+02  0.00000000000E+00 0.  1.
         11    1    1    2    0    0 -0.12771928830E+02  0.10296010756E+03 -0.54238120106E+02  0.11707125859E+03  0.00000000000E+00 0. -1.
</event>
<event>
 7    1  0.6473813E-006  0.9595501E+02  0.7561462E-02  0.1289040E+00
         -3   -1    0    0    0  501 -0.00000000000E+00  0.00000000000E+00  0.33693947469E+03  0.33693947469E+03  0.00000000000E+00 0.  1.
          3   -1    0    0  501    0  0.00000000000E+00 -0.00000000000E+00 -0.36460346962E+02  0.36460346962E+02  0.00000000000E+00 0. -1.
         23    2    1    2    0    0  0.17509856049E+02 -0.33687480879E+01  0.18563370941E+03  0.22454881770E+03  0.12507739180E+03 0.  0.
          5    1    3    3  502    0  0.52535556422E+02  0.33852572460E+02  0.14869472841E+03  0.16134923616E+03  0.41800000000E+01 0. -1.
         -5    1    3    3    0  502 -0.35025700373E+02 -0.37221320548E+02  0.36938980996E+02  0.63199581541E+02  0.41800000000E+01 0. -1.
        -11    1    1    2    0    0 -0.40816315742E+02 -0.19592239044E+02  0.10553254357E+03  0.11483442521E+03  0.00000000000E+00 0.  1.
         11    1    1    2    0    0  0.23306459692E+02  0.22960987132E+02  0.93128747544E+01  0.34016578747E+02  0.00000000000E+00 0. -1.
</event>
<event>
 7    1  0.6473813E-006  0.1780796E+03  0.7561462E-02  0.1169675E+00
         -1   -1    0    0    0  501 -0.00000000000E+00  0.00000000000E+00  0.14066342918E+03  0.14066342918E+03  0.00000000000E+00 0.  1.
          1   -1    0    0  501    0  0.00000000000E+00 -0.00000000000E+00 -0.23598437610E+03  0.23598437610E+03  0.00000000000E+00 0. -1.
         23    2    1    2    0    0 -0.63097050841E+02 -0.12951234592E+03 -0.22239433461E+02  0.19208657697E+03  0.12509186657E+03 0.  0.
          5    1    3    3  502    0  0.11967376332E+02  0.18163159854E+02 -0.13933413374E+02  0.26167362886E+02  0.41800000000E+01 0.  1.
         -5    1    3    3    0  502 -0.75064427173E+02 -0.14767550578E+03 -0.83060200866E+01  0.16591921409E+03  0.41800000000E+01 0.  1.
        -11    1    1    2    0    0  0.77189283139E+02  0.61085660969E+02 -0.53359047097E+02  0.11196799237E+03  0.00000000000E+00 0.  1.
         11    1    1    2    0    0 -0.14092232298E+02  0.68426684955E+02 -0.19722466366E+02  0.72593235943E+02  0.00000000000E+00 0. -1.
</event>
<event>
 7    1  0.6473813E-006  0.1183286E+03  0.7561462E-02  0.1245880E+00
         -1   -1    0    0    0  501 -0.00000000000E+00  0.00000000000E+00  0.90910304588E+02  0.90910304588E+02  0.00000000000E+00 0.  1.
          1   -1    0    0  501    0  0.00000000000E+00 -0.00000000000E+00 -0.18425396267E+03  0.18425396267E+03  0.00000000000E+00 0. -1.
         23    2    1    2    0    0 -0.57880434454E+02 -0.25751623947E+01 -0.92569048168E+01  0.13816961763E+03  0.12509347223E+03 0.  0.
          5    1    3    3  502    0  0.35178761743E+02 -0.42771063245E+01  0.19500012430E+02  0.40664011128E+02  0.41800000000E+01 0. -1.
         -5    1    3    3    0  502 -0.93059196197E+02  0.17019439297E+01 -0.28756917246E+02  0.97505606503E+02  0.41800000000E+01 0. -1.
        -11    1    1    2    0    0  0.54524147925E+02  0.41634067510E+02 -0.58713810989E+02  0.90297230772E+02  0.00000000000E+00 0.  1.
         11    1    1    2    0    0  0.33562865294E+01 -0.39058905115E+02 -0.25372942281E+02  0.46697418859E+02  0.00000000000E+00 0. -1.
</event>
<event>
 7    1  0.6473813E-006  0.1200952E+03  0.7561462E-02  0.1242940E+00
          1   -1    0    0  501    0  0.00000000000E+00  0.00000000000E+00  0.27672623632E+03  0.27672623632E+03  0.00000000000E+00 0. -1.
         -1   -1    0    0    0  501 -0.00000000000E+00 -0.00000000000E+00 -0.81324959862E+02  0.81324959862E+02  0.00000000000E+00 0.  1.
         23    2    1    2    0    0 -0.79172070706E+02  0.56164896863E+02  0.63993640198E+02  0.17077867868E+03  0.12508980249E+03 0.  0.
          5    1    3    3  502    0  0.16454953215E+02 -0.15914854768E+02  0.43335370912E+02  0.49188157717E+02  0.41800000000E+01 0.  1.
         -5    1    3    3    0  502 -0.95627023920E+02  0.72079751630E+02  0.20658269286E+02  0.12159052097E+03  0.41800000000E+01 0.  1.
        -11    1    1    2    0    0  0.55830777492E+02 -0.40861018976E+02  0.14156802994E+03  0.15756968519E+03  0.00000000000E+00 0. -1.
         11    1    1    2    0    0  0.23341293214E+02 -0.15303877887E+02 -0.10160393688E+02  0.29702832309E+02  0.00000000000E+00 0.  1.
</event>
<event>
 7    1  0.6473813E-006  0.1037446E+03  0.7561462E-02  0.1272613E+00
         -2   -1    0    0    0  501 -0.00000000000E+00  0.00000000000E+00  0.43733813371E+03  0.43733813371E+03  0.00000000000E+00 0.  1.
          2   -1    0    0  501    0  0.00000000000E+00 -0.00000000000E+00 -0.50322160592E+02  0.50322160592E+02  0.00000000000E+00 0. -1.
         23    2    1    2    0    0 -0.25129622466E+02 -0.51759963472E+02  0.34688155760E+03  0.37320833782E+03  0.12508819556E+03 0.  0.
          5    1    3    3  502    0  0.20738800006E+01 -0.68127999506E+02  0.83410616348E+02  0.10779855572E+03  0.41800000000E+01 0.  1.
         -5    1    3    3    0  502 -0.27203502467E+02  0.16368036034E+02  0.26347094126E+03  0.26540978211E+03  0.41800000000E+01 0.  1.
        -11    1    1    2    0    0 -0.28165108869E+02 -0.57777536187E+01  0.10281507751E+02  0.30534655657E+02  0.00000000000E+00 0.  1.
         11    1    1    2    0    0  0.53294731335E+02  0.57537717091E+02  0.29852907765E+02  0.83917300827E+02  0.00000000000E+00 0. -1.
</event>
<event>
 7    1  0.6473813E-006  0.1757606E+03  0.7561462E-02  0.1171970E+00
         -2   -1    0    0    0  501 -0.00000000000E+00  0.00000000000E+00  0.89801566141E+02  0.89801566141E+02  0.00000000000E+00 0.  1.
          2   -1    0    0  501    0  0.00000000000E+00 -0.00000000000E+00 -0.36525679202E+03  0.36525679202E+03  0.00000000000E+00 0. -1.
         23    2    1    2    0    0  0.58127537151E+02 -0.13224896268E+03 -0.15256098911E+03  0.24452081692E+03  0.12508787233E+03 0.  0.
          5    1    3    3  502    0  0.16666401293E+02 -0.13754611035E+03 -0.14716747840E+03  0.20216933621E+03  0.41800000000E+01 0. -1.
         -5    1    3    3    0  502  0.41461135858E+02  0.52971476782E+01 -0.53935107078E+01  0.42351480705E+02  0.41800000000E+01 0. -1.
        -11    1    1    2    0    0 -0.44914471441E+01  0.11422883117E+03 -0.79842324986E+02  0.13943886053E+03  0.00000000000E+00 0.  1.
         11    1    1    2    0    0 -0.53636090007E+02  0.18020131507E+02 -0.43051911787E+02  0.71098680714E+02  0.00000000000E+00 0. -1.
</event>
<event>
 7    1  0.6473813E-006  0.1064471E+03  0.7561462E-02  0.1267294E+00
         -2   -1    0    0    0  501 -0.00000000000E+00  0.00000000000E+00  0.42413887721E+02  0.42413887721E+02  0.00000000000E+00 0.  1.
          2   -1    0    0  501    0  0.00000000000E+00 -0.00000000000E+00 -0.29104843664E+03  0.29104843664E+03  0.00000000000E+00 0. -1.
         23    2    1    2    0    0  0.21704811003E+02  0.28180295948E+02 -0.11896520355E+03  0.17622788988E+03  0.12505327511E+03 0.  0.
          5    1    3    3  502    0 -0.50350809409E+02  0.27328047790E+02 -0.59539913896E+02  0.82731493102E+02  0.41800000000E+01 0. -1.
         -5    1    3    3    0  502  0.72055620411E+02  0.85224815784E+00 -0.59425289654E+02  0.93496396777E+02  0.41800000000E+01 0. -1.
        -11    1    1    2    0    0  0.13911000835E+02  0.19378557274E+02 -0.65851283985E+02  0.70038818014E+02  0.00000000000E+00 0. -1.
         11    1    1    2    0    0 -0.35615811838E+02 -0.47558853222E+02 -0.63818061384E+02  0.87195616470E+02  0.00000000000E+00 0.  1.
</event>
<event>
 7    1  0.6473813E-006  0.1117246E+03  0.7561462E-02  0.1257409E+00
          1   -1    0    0  501    0  0.00000000000E+00  0.00000000000E+00  0.55109531959E+02  0.55109531959E+02  0.00000000000E+00 0. -1.
         -1   -1    0    0    0  501 -0.00000000000E+00 -0.00000000000E+00 -0.27463388782E+03  0.27463388782E+03  0.00000000000E+00 0.  1.
         23    2    1    2    0    0 -0.44985143469E+02 -0.37423868938E+02 -0.13988368106E+03  0.19657938650E+03  0.12510716155E+03 0.  0.
          5    1    3    3  502    0 -0.77654574237E+02 -0.28038625575E+02 -0.41689515609E+02  0.92584477834E+02  0.41800000000E+01 0.  1.
         -5    1    3    3    0  502  0.32669430768E+02 -0.93852433627E+01 -0.98194165451E+02  0.10399490866E+03  0.41800000000E+01 0.  1.
        -11    1    1    2    0    0  0.66276900639E+02  0.33570607098E+01 -0.45734974914E+02  0.80595194307E+02  0.00000000000E+00 0. -1.
         11    1    1    2    0    0 -0.21291757170E+02  0.34066808228E+02 -0.33905699887E+02  0.52568838974E+02  0.00000000000E+00 0.  1.
</event>
<event>
 7    1  0.6473813E-006  0.1739430E+03  0.7561462E-02  0.1173797E+00
         -2   -1    0    0    0  501 -0.00000000000E+00  0.00000000000E+00  0.54420115046E+02  0.54420115046E+02  0.00000000000E+00 0. -1.
          2   -1    0    0  501    0  0.00000000000E+00 -0.00000000000E+00 -0.63435508972E+03  0.63435508972E+03  0.00000000000E+00 0.  1.
         23    2    1    2    0    0 -0.11063631008E+03 -0.85002607925E+02 -0.19931383184E+03  0.27356805190E+03  0.12509052320E+03 0.  0.
          5    1    3    3  502    0 -0.46434386545E+02 -0.10477513800E+03 -0.15566239575E+03  0.19334486196E+03  0.41800000000E+01 0.  1.
         -5    1    3    3    0  502 -0.64201923534E+02  0.19772530071E+02 -0.43651436085E+02  0.80223189934E+02  0.41800000000E+01 0.  1.
        -11    1    1    2    0    0  0.40903530431E+02 -0.15356688229E+02 -0.98628595534E+02  0.10787273303E+03  0.00000000000E+00 0.  1.
         11    1    1    2    0    0  0.69732779648E+02  0.10035929615E+03 -0.28199254730E+03  0.30733441984E+03  0.00000000000E+00 0. -1.
</event>
<event>
 7    1  0.6473813E-006  0.1299238E+03  0.7561462E-02  0.1227569E+00
          2   -1    0    0  501    0  0.00000000000E+00  0.00000000000E+00  0.20157268571E+03  0.20157268571E+03  0.00000000000E+00 0.  1.
         -2   -1    0    0    0  501 -0.00000000000E+00 -0.00000000000E+00 -0.13537335835E+03  0.13537335835E+03  0.00000000000E+00 0. -1.
         23    2    1    2    0    0  0.14174226484E+02 -0.53336331992E+02 -0.61889379783E+02  0.15007532165E+03  0.12508650540E+03 0.  0.
          5    1    3    3  502    0  0.58538486382E+02 -0.62045768253E+02 -0.18735384252E+02  0.87435226134E+02  0.41800000000E+01 0. -1.
         -5    1    3    3    0  502 -0.44364259898E+02  0.87094362606E+01 -0.43153995531E+02  0.62640095518E+02  0.41800000000E+01 0. -1.
        -11    1    1    2    0    0  0.37704597355E+02  0.65661013105E+02  0.44806906928E+02  0.87981044619E+02  0.00000000000E+00 0. -1.
         11    1    1    2    0    0 -0.51878823839E+02 -0.12324681113E+02  0.83281800210E+02  0.98889677791E+02  0.00000000000E+00 0.  1.
</event>
<event>
 7    1  0.6473813E-006  0.9404345E+02  0.7561462E-02  0.1293345E+00
         -2   -1    0    0    0  501 -0.00000000000E+00  0.00000000000E+00  0.15005823286E+03  0.15005823286E+03  0.00000000000E+00 0.  1.
          2   -1    0    0  501    0  0.00000000000E+00 -0.00000000000E+00 -0.97696852131E+02  0.97696852131E+02  0.00000000000E+00 0. -1.
         23    2    1    2    0    0  0.26995841375E+02  0.10068468932E+02  0.72497258955E+02  0.14741752556E+03  0.12508367107E+03 0.  0.
          5    1    3    3  502    0  0.16976382918E+01 -0.56428762449E+02  0.25792217198E+02  0.62207701094E+02  0.41800000000E+01 0.  1.
         -5    1    3    3    0  502  0.25298203084E+02  0.66497231382E+02  0.46705041757E+02  0.85209824470E+02  0.41800000000E+01 0.  1.
        -11    1    1    2    0    0 -0.42252065838E+02 -0.60675885127E+00  0.26832129650E+02  0.50055653082E+02  0.00000000000E+00 0.  1.
         11    1    1    2    0    0  0.15256224463E+02 -0.94617100810E+01 -0.46968007873E+02  0.50281906349E+02  0.00000000000E+00 0. -1.
</event>
<event>
 7    1  0.6473813E-006  0.1064651E+03  0.7561462E-02  0.1267260E+00
          2   -1    0    0  501    0  0.00000000000E+00  0.00000000000E+00  0.20401175773E+03  0.20401175773E+03  0.00000000000E+00 0. -1.
         -2   -1    0    0    0  501 -0.00000000000E+00 -0.00000000000E+00 -0.98816184393E+02  0.98816184393E+02  0.00000000000E+00 0.  1.
         23    2    1    2    0    0  0.74499217036E+02 -0.44124778293E+02  0.27993459106E+02  0.15468974976E+03  0.12509258783E+03 0.  0.
          5    1    3    3  502    0  0.53590912689E+02 -0.47810630894E+02  0.74396319749E+02  0.10348974414E+03  0.41800000000E+01 0. -1.
         -5    1    3    3    0  502  0.20908304347E+02  0.36858526013E+01 -0.46402860643E+02  0.51200005624E+02  0.41800000000E+01 0. -1.
        -11    1    1    2    0    0 -0.23410422964E+02 -0.24442312378E+02  0.46013919099E+02  0.57120532986E+02  0.00000000000E+00 0. -1.
         11    1    1    2    0    0 -0.51088794072E+02  0.68567090670E+02  0.31188195132E+02  0.91017659376E+02  0.00000000000E+00 0.  1.
</event>
<event>
 7    1  0.6473813E-006  0.3314955E+03  0.7561462E-02  0.1070477E+00
         -1   -1    0    0    0  501 -0.00000000000E+00  0.00000000000E+00  0.12927429160E+03  0.12927429160E+03  0.00000000000E+00 0.  1.
          1   -1    0    0  501    0  0.00000000000E+00 -0.00000000000E+00 -0.95888669563E+03  0.95888669563E+03  0.00000000000E+00 0. -1.
         23    2    1    2    0    0  0.20098458292E+03 -0.25361488399E+03 -0.28904041613E+03  0.45156091408E+03  0.12509030743E+03 0.  0.
          5    1    3    3  502    0  0.14805193273E+03 -0.13249927405E+03 -0.23738310432E+03  0.30958624489E+03  0.41800000000E+01 0. -1.
         -5    1    3    3    0  502  0.52932650190E+02 -0.12111560994E+03 -0.51657311812E+02  0.14197466919E+03  0.41800000000E+01 0. -1.
        -11    1    1    2    0    0 -0.15603504113E+02  0.67693449830E+02 -0.15804980512E+03  0.17264302300E+03  0.00000000000E+00 0.  1.
         11    1    1    2    0    0 -0.18538107881E+03  0.18592143416E+03 -0.38252218278E+03  0.46395705015E+03  0.00000000000E+00 0. -1.
</event>
<event>
 7    1  0.6473813E-006  0.1370599E+03  0.7561462E-02  0.1217341E+00
          1   -1    0    0  501    0  0.00000000000E+00  0.00000000000E+00  0.39868108200E+03  0.39868108200E+03  0.00000000000E+00 0. -1.
         -1   -1    0    0    0  501 -0.00000000000E+00 -0.00000000000E+00 -0.63653357468E+02  0.63653357468E+02  0.00000000000E+00 0.  1.
         23    2    1    2    0    0  0.88281643994E+02  0.74010298939E+02  0.17865548803E+03  0.24665158439E+03  0.12509215668E+03 0.  0.
          5    1    3    3  502    0  0.72163950783E+02  0.84731680524E+01  0.22010963024E+02  0.76035421105E+02  0.41800000000E+01 0.  1.
         -5    1    3    3    0  502  0.16117693211E+02  0.65537130886E+02  0.15664452500E+03  0.17061616328E+03  0.41800000000E+01 0.  1.
        -11    1    1    2    0    0 -0.70742578857E+02 -0.86827237689E+02  0.83658279604E+02  0.13979338115E+03  0.00000000000E+00 0.  1.
         11    1    1    2    0    0 -0.17539065137E+02  0.12816938751E+02  0.72713956902E+02  0.75889473929E+02  0.00000000000E+00 0. -1.
</event>
<event>
 7    1  0.6473813E-006  0.1396842E+03  0.7561462E-02  0.1213754E+00
          1   -1    0    0  501    0  0.00000000000E+00  0.00000000000E+00  0.71829183842E+02  0.71829183842E+02  0.00000000000E+00 0. -1.
         -1   -1    0    0    0  501 -0.00000000000E+00 -0.00000000000E+00 -0.31021160671E+03  0.31021160671E+03  0.00000000000E+00 0.  1.
         23    2    1    2    0    0 -0.17061776822E+02 -0.10049625655E+03 -0.12446757055E+03  0.20378974702E+03  0.12508989993E+03 0.  0.
          5    1    3    3  502    0 -0.15024880073E+02  0.21858372513E+02  0.30263593197E+01  0.27021597304E+02  0.41800000000E+01 0.  1.
         -5    1    3    3    0  502 -0.20368967493E+01 -0.12235462906E+03 -0.12749392987E+03  0.17676814972E+03  0.41800000000E+01 0.  1.
        -11    1    1    2    0    0  0.47780571677E+02  0.40356907436E+02 -0.83141513817E+02  0.10403929223E+03  0.00000000000E+00 0.  1.
         11    1    1    2    0    0 -0.30718794855E+02  0.60139349113E+02 -0.30773338507E+02  0.74211751306E+02  0.00000000000E+00 0. -1.
</event>
<event>
 7    1  0.6473813E-006  0.1283526E+03  0.7561462E-02  0.1229921E+00
         -2   -1    0    0    0  501 -0.00000000000E+00  0.00000000000E+00  0.38876264848E+02  0.38876264848E+02  0.00000000000E+00 0.  1.
          2   -1    0    0  501    0  0.00000000000E+00 -0.00000000000E+00 -0.53514224801E+03  0.53514224801E+03  0.00000000000E+00 0. -1.
         23    2    1    2    0    0  0.58287547332E+02 -0.75144147402E+02 -0.26397844825E+03  0.30720431097E+03  0.12508311825E+03 0.  0.
          5    1    3    3  502    0  0.33953177427E+02  0.11150306014E+02 -0.18239588178E+03  0.18591094016E+03  0.41800000000E+01 0.  1.
         -5    1    3    3    0  502  0.24334369906E+02 -0.86294453415E+02 -0.81582566474E+02  0.12129337081E+03  0.41800000000E+01 0.  1.
        -11    1    1    2    0    0 -0.65909328559E+02  0.11544821004E+02 -0.10958421956E+03  0.12839791143E+03  0.00000000000E+00 0.  1.
         11    1    1    2    0    0  0.76217812262E+01  0.63599326398E+02 -0.12270331534E+03  0.13841629046E+03  0.00000000000E+00 0. -1.
</event>
<event>
 6    1  0.6473813E-006  0.1182213E+03  0.7561462E-02  0.1246060E+00
         -2   -1    0    0    0  501 -0.00000000000E+00  0.00000000000E+00  0.52072890516E+02  0.52072890516E+02  0.00000000000E+00 0.  1.
          2   -1    0    0  501    0  0.00000000000E+00 -0.00000000000E+00 -0.58138418531E+03  0.58138418531E+03  0.00000000000E+00 0. -1.
          5    1    1    2  502    0 -0.61733202648E+01  0.33884980357E+02 -0.24840682596E+03  0.25081811211E+03  0.41800000000E+01 0. -1.
         -5    1    1    2    0  502  0.84195201006E+02  0.15899631647E+02 -0.14911728718E+02  0.87071592453E+02  0.41800000000E+01 0.  1.
        -11    1    1    2    0    0 -0.30657736208E+02 -0.60117898997E+02 -0.21441130062E+03  0.22478048047E+03  0.00000000000E+00 0.  1.
         11    1    1    2    0    0 -0.47364144534E+02  0.10333286993E+02 -0.51581439500E+02  0.70786890794E+02  0.00000000000E+00 0. -1.
</event>
<event>
 7    1  0.6473813E-006  0.1051696E+03  0.7561462E-02  0.1269786E+00
          2   -1    0    0  501    0  0.00000000000E+00  0.00000000000E+00  0.24698793889E+03  0.24698793889E+03  0.00000000000E+00 0. -1.
         -2   -1    0    0    0  501 -0.00000000000E+00 -0.00000000000E+00 -0.56580898514E+02  0.56580898514E+02  0.00000000000E+00 0.  1.
         23    2    1    2    0    0  0.37339749668E+02  0.95987506019E+01  0.74643771923E+02  0.15067764540E+03  0.12508264155E+03 0.  0.
          5    1    3    3  502    0  0.67742689090E+02 -0.20610805580E+02  0.80416364149E+02  0.10722938615E+03  0.41800000000E+01 0.  1.
         -5    1    3    3    0  502 -0.30402939422E+02  0.30209556182E+02 -0.57725922262E+01  0.43448259242E+02  0.41800000000E+01 0.  1.
        -11    1    1    2    0    0  0.18763727612E+02 -0.31050289610E+02  0.25022421407E+02  0.44071754354E+02  0.00000000000E+00 0.  1.
         11    1    1    2    0    0 -0.56103477280E+02  0.21451539008E+02  0.90740847047E+02  0.10881943765E+03  0.00000000000E+00 0. -1.
</event>
<event>
 7    1  0.6473813E-006  0.1946240E+03  0.7561462E-02  0.1154356E+00
         -1   -1    0    0    0  501 -0.00000000000E+00  0.00000000000E+00  0.26367862607E+03  0.26367862607E+03  0.00000000000E+00 0.  1.
          1   -1    0    0  501    0  0.00000000000E+00 -0.00000000000E+00 -0.18661315969E+03  0.18661315969E+03  0.00000000000E+00 0. -1.
         23    2    1    2    0    0  0.30230514394E+01 -0.19084035979E+03  0.68687924795E+02  0.23831575195E+03  0.12508870792E+03 0.  0.
          5    1    3    3  502    0 -0.13010093852E+02 -0.11460606058E+03 -0.23252631574E+02  0.11773686313E+03  0.41800000000E+01 0.  1.
         -5    1    3    3    0  502  0.16033145291E+02 -0.76234299205E+02  0.91940556369E+02  0.12057888882E+03  0.41800000000E+01 0.  1.
        -11    1    1    2    0    0  0.19012805364E+02  0.12368201866E+03 -0.33861705312E+02  0.12963542569E+03  0.00000000000E+00 0. -1.
         11    1    1    2    0    0 -0.22035856804E+02  0.67158341131E+02  0.42239246897E+02  0.82340608128E+02  0.00000000000E+00 0.  1.
</event>
<event>
 7    1  0.6473813E-006  0.1553490E+03  0.7561462E-02  0.1194050E+00
         -1   -1    0    0    0  501 -0.00000000000E+00  0.00000000000E+00  0.96571984855E+02  0.96571984855E+02  0.00000000000E+00 0.  1.
          1   -1    0    0  501    0  0.00000000000E+00 -0.00000000000E+00 -0.43054342787E+03  0.43054342787E+03  0.00000000000E+00 0. -1.
         23    2    1    2    0    0  0.13162344611E+03  0.53476036298E+02 -0.45179679686E+02  0.19460809683E+03  0.12508672940E+03 0.  0.
          5    1    3    3  502    0  0.48067209005E+02  0.36570907377E+02  0.41154779174E+02  0.73205710821E+02  0.41800000000E+01 0. -1.
         -5    1    3    3    0  502  0.83556237106E+02  0.16905128921E+02 -0.86334458859E+02  0.12140238601E+03  0.41800000000E+01 0. -1.
        -11    1    1    2    0    0 -0.49485271126E+02 -0.65179795187E+02 -0.14344474595E+03  0.16514718556E+03  0.00000000000E+00 0. -1.
         11    1    1    2    0    0 -0.82138174985E+02  0.11703758888E+02 -0.14534701738E+03  0.16736013033E+03  0.00000000000E+00 0.  1.
</event>
<event>
 7    1  0.6473813E-006  0.1364892E+03  0.7561462E-02  0.1218133E+00
          1   -1    0    0  501    0  0.00000000000E+00  0.00000000000E+00  0.29961580291E+03  0.29961580291E+03  0.00000000000E+00 0. -1.
         -1   -1    0    0    0  501 -0.00000000000E+00 -0.00000000000E+00 -0.18844956950E+03  0.18844956950E+03  0.00000000000E+00 0.  1.
         23    2    1    2    0    0 -0.11509796255E+03 -0.19572404711E+02 -0.12320611664E+03  0.21085031910E+03  0.12508992716E+03 0.  0.
          5    1    3    3  502    0 -0.23572750484E+02 -0.51397087566E+02 -0.35336714836E+01  0.56809281019E+02  0.41800000000E+01 0. -1.
         -5    1    3    3    0  502 -0.91525212070E+02  0.31824682856E+02 -0.11967244515E+03  0.15404103808E+03  0.41800000000E+01 0. -1.
        -11    1    1    2    0    0  0.68300501830E+02  0.23733644925E+02  0.52456986343E+02  0.89330733054E+02  0.00000000000E+00 0.  1.
         11    1    1    2    0    0  0.46797460724E+02 -0.41612402141E+01  0.18191536370E+03  0.18788432026E+03  0.00000000000E+00 0. -1.
</event>
<event>
 7    1  0.6473813E-006  0.9671232E+02  0.7561462E-02  0.1287365E+00
         -2   -1    0    0    0  501 -0.00000000000E+00  0.00000000000E+00  0.29070807655E+02  0.29070807655E+02  0.00000000000E+00 0.  1.
          2   -1    0    0  501    0  0.00000000000E+00 -0.00000000000E+00 -0.53812421874E+03  0.53812421874E+03  0.00000000000E+00 0. -1.
         23    2    1    2    0    0  0.15596346518E+02 -0.45650826226E+02 -0.19629235235E+03  0.23770943613E+03  0.12509134453E+03 0.  0.
          5    1    3    3  502    0  0.40697005414E+01  0.36607709572E+02 -0.18506309417E+02  0.41432387704E+02  0.41800000000E+01 0. -1.
         -5    1    3    3    0  502  0.11526645977E+02 -0.82258535797E+02 -0.17778604293E+03  0.19627704843E+03  0.41800000000E+01 0. -1.
        -11    1    1    2    0    0  0.27865999133E+01 -0.12185555075E+02 -0.17656180946E+01  0.12624194977E+02  0.00000000000E+00 0.  1.
         11    1    1    2    0    0 -0.18382946431E+02  0.57836381301E+02 -0.31099544064E+03  0.31686139528E+03  0.00000000000E+00 0. -1.
</event>
<event>
 7    1  0.6473813E-006  0.1027059E+03  0.7561462E-02  0.1274707E+00
         -2   -1    0    0    0  501 -0.00000000000E+00  0.00000000000E+00  0.49705695582E+02  0.49705695582E+02  0.00000000000E+00 0.  1.
          2   -1    0    0  501    0  0.00000000000E+00 -0.00000000000E+00 -0.41225046163E+03  0.41225046163E+03  0.00000000000E+00 0. -1.
         23    2    1    2    0    0 -0.64835401433E+02  0.15834258070E+02 -0.92223978797E+02  0.16909029837E+03  0.12502765186E+03 0.  0.
          5    1    3    3  502    0 -0.80111514660E+02  0.26557159450E+02 -0.10492857076E+02  0.85151100691E+02  0.41800000000E+01 0.  1.
         -5    1    3    3    0  502  0.15276113227E+02 -0.10722901381E+02 -0.81731121721E+02  0.83939197680E+02  0.41800000000E+01 0.  1.
        -11    1    1    2    0    0 -0.16823579552E+02 -0.10753081837E+02 -0.12066173151E+03  0.12230255536E+03  0.00000000000E+00 0. -1.
         11    1    1    2    0    0  0.81658980985E+02 -0.50811762327E+01 -0.14965905574E+03  0.17056330347E+03  0.00000000000E+00 0.  1.
</event>
<event>
 7    1  0.6473813E-006  0.1078942E+03  0.7561462E-02  0.1264520E+00
         -1   -1    0    0    0  501 -0.00000000000E+00  0.00000000000E+00  0.13939953947E+03  0.13939953947E+03  0.00000000000E+00 0.  1.
          1   -1    0    0  501    0  0.00000000000E+00 -0.00000000000E+00 -0.11188214187E+03  0.11188214187E+03  0.00000000000E+00 0. -1.
         23    2    1    2    0    0  0.58919022962E+02 -0.13320507344E+02  0.22644500210E+02  0.14074281434E+03  0.12508748625E+03 0.  0.
          5    1    3    3  502    0  0.86955695859E+02 -0.43657320671E+02  0.16024789925E+02  0.98699143779E+02  0.41800000000E+01 0. -1.
         -5    1    3    3    0  502 -0.28036672898E+02  0.30336813326E+02  0.66197102852E+01  0.42043670561E+02  0.41800000000E+01 0. -1.
        -11    1    1    2    0    0 -0.61139806052E+00 -0.12923470949E+02  0.36844202342E+02  0.39049777915E+02  0.00000000000E+00 0.  1.
         11    1    1    2    0    0 -0.58307624901E+02  0.26243978293E+02 -0.31971304952E+02  0.71489089088E+02  0.00000000000E+00 0. -1.
</event>
<event>
 7    1  0.6473813E-006  0.1913772E+03  0.7561462E-02  0.1157225E+00
         -3   -1    0    0    0  501 -0.00000000000E+00  0.00000000000E+00  0.67660143989E+03  0.67660143989E+03  0.00000000000E+00 0.  1.
          3   -1    0    0  501    0  0.00000000000E+00 -0.00000000000E+00 -0.97836782721E+02  0.97836782721E+02  0.00000000000E+00 0. -1.
         23    2    1    2    0    0 -0.11637633745E+03 -0.14518480755E+03  0.49926504391E+03  0.54729764402E+03  0.12508815622E+03 0.  0.
          5    1    3    3  502    0 -0.29148830139E+02 -0.53824980614E+02  0.45835459856E+02  0.76584232168E+02  0.41800000000E+01 0. -1.
         -5    1    3    3    0  502 -0.87227507307E+02 -0.91359826938E+02  0.45342958405E+03  0.47071341185E+03  0.41800000000E+01 0. -1.
        -11    1    1    2    0    0  0.85842898505E+01  0.51477799026E+02 -0.16862185554E+02  0.54845119441E+02  0.00000000000E+00 0.  1.
         11    1    1    2    0    0  0.10779204760E+03  0.93707008526E+02  0.96361798819E+02  0.17229545915E+03  0.00000000000E+00 0. -1.
</event>
<event>
 7    1  0.6473813E-006  0.7619699E+02  0.7561462E-02  0.1340204E+00
          2   -1    0    0  501    0  0.00000000000E+00  0.00000000000E+00  0.18492683826E+03  0.18492683826E+03  0.00000000000E+00 0. -1.
         -2   -1    0    0    0  501 -0.00000000000E+00 -0.00000000000E+00 -0.10479704461E+03  0.10479704461E+03  0.00000000000E+00 0.  1.
         23    2    1    2    0    0  0.25751125545E+02  0.14315306307E+02 -0.41281210687E+02  0.13497885619E+03  0.12508838796E+03 0.  0.
          5    1    3    3  502    0  0.27715823711E+02 -0.27017808143E+02  0.32214788027E+02  0.50531117230E+02  0.41800000000E+01 0.  1.
         -5    1    3    3    0  502 -0.19646981665E+01  0.41333114450E+02 -0.73495998715E+02  0.84447738964E+02  0.41800000000E+01 0.  1.
        -11    1    1    2    0    0 -0.33545427827E+02  0.18387297294E+02  0.11707180391E+02  0.40005580893E+02  0.00000000000E+00 0.  1.
         11    1    1    2    0    0  0.77943022827E+01 -0.32702603601E+02  0.10970382395E+03  0.11473944578E+03  0.00000000000E+00 0. -1.
</event>
<event>
 7    1  0.6473813E-006  0.6966302E+02  0.7561462E-02  0.1361243E+00
         -1   -1    0    0    0  501 -0.00000000000E+00  0.00000000000E+00  0.15544540841E+04  0.15544540841E+04  0.00000000000E+00 0.  1.
          1   -1    0    0  501    0  0.00000000000E+00 -0.00000000000E+00 -0.91937912142E+01  0.91937912142E+01  0.00000000000E+00 0. -1.
         23    2    1    2    0    0  0.75416776380E+01 -0.35875630640E+02  0.10935936128E+04  0.11013346731E+04  0.12508850670E+03 0.  0.
          5    1    3    3  502    0 -0.16689172839E+00 -0.32943123216E+02  0.10913039764E+04  0.10918091035E+04  0.41800000000E+01 0.  1.
         -5    1    3    3    0  502  0.77085693664E+01 -0.29325074245E+01  0.22896363919E+01  0.95255696039E+01  0.41800000000E+01 0.  1.
        -11    1    1    2    0    0 -0.42499045848E+02  0.43798085814E+02  0.32462874753E+03  0.33031540222E+03  0.00000000000E+00 0. -1.
         11    1    1    2    0    0  0.34957368210E+02 -0.79224551743E+01  0.12703793258E+03  0.13199779999E+03  0.00000000000E+00 0.  1.
</event>
<event>
 7    1  0.6473813E-006  0.1203131E+03  0.7561462E-02  0.1242581E+00
          1   -1    0    0  501    0  0.00000000000E+00  0.00000000000E+00  0.51146873491E+03  0.51146873491E+03  0.00000000000E+00 0. -1.
         -1   -1    0    0    0  501 -0.00000000000E+00 -0.00000000000E+00 -0.52952220691E+02  0.52952220691E+02  0.00000000000E+00 0.  1.
         23    2    1    2    0    0 -0.25134543264E+02 -0.51201860028E+02  0.57085272053E+02  0.14886171331E+03  0.12509078971E+03 0.  0.
          5    1    3    3  502    0 -0.75193789450E+02 -0.20907780131E+02  0.25350438360E+02  0.82166649967E+02  0.41800000000E+01 0.  1.
         -5    1    3    3    0  502  0.50059246185E+02 -0.30294079896E+02  0.31734833693E+02  0.66695063347E+02  0.41800000000E+01 0.  1.
        -11    1    1    2    0    0 -0.13781830552E+02  0.61924967645E+02  0.29466413421E+03  0.30141597910E+03  0.00000000000E+00 0. -1.
         11    1    1    2    0    0  0.38916373816E+02 -0.10723107618E+02  0.10676710797E+03  0.11414326319E+03  0.00000000000E+00 0.  1.
</event>
<event>
 7    1  0.6473813E-006  0.1146282E+03  0.7561462E-02  0.1252232E+00
         -2   -1    0    0    0  501 -0.00000000000E+00  0.00000000000E+00  0.13637363221E+03  0.13637363221E+03  0.00000000000E+00 0. -1.
          2   -1    0    0  501    0  0.00000000000E+00 -0.00000000000E+00 -0.14811032923E+03  0.14811032923E+03  0.00000000000E+00 0.  1.
         23    2    1    2    0    0 -0.48999306777E+01  0.45011296303E+02  0.72089161353E+02  0.15131347709E+03  0.12509554368E+03 0.  0.
          5    1    3    3  502    0  0.59868574740E+02  0.25935982566E+02  0.34497925453E+02  0.73922261151E+02  0.41800000000E+01 0.  1.
         -5    1    3    3    0  502 -0.64768505418E+02  0.19075313737E+02  0.37591235900E+02  0.77391215940E+02  0.41800000000E+01 0.  1.
        -11    1    1    2    0    0 -0.30671568127E+02  0.86323553282E+01 -0.64269800203E+01  0.32504903047E+02  0.00000000000E+00 0. -1.
         11    1    1    2    0    0  0.35571498805E+02 -0.53643651632E+02 -0.77398878360E+02  0.10066558130E+03  0.00000000000E+00 0.  1.
</event>
<event>
 7    1  0.6473813E-006  0.5462904E+02  0.7561462E-02  0.1421861E+00
          1   -1    0    0  501    0  0.00000000000E+00  0.00000000000E+00  0.44106423898E+02  0.44106423898E+02  0.00000000000E+00 0. -1.
         -1   -1    0    0    0  501 -0.00000000000E+00 -0.00000000000E+00 -0.26395607179E+03  0.26395607179E+03  0.00000000000E+00 0.  1.
         23    2    1    2    0    0  0.87772087442E+01 -0.20882288272E+02 -0.24631038451E+03  0.27219301833E+03  0.11360952581E+03 0.  0.
          5    1    3    3  502    0  0.44256234352E+02 -0.69193716967E+00 -0.34042637032E+02  0.55995237228E+02  0.41800000000E+01 0. -1.
         -5    1    3    3    0  502 -0.35479025608E+02 -0.20190351102E+02 -0.21226774748E+03  0.21619778110E+03  0.41800000000E+01 0.  1.
        -11    1    1    2    0    0 -0.81468253900E+01  0.10157176174E+02  0.11016128439E+02  0.17055617185E+02  0.00000000000E+00 0. -1.
         11    1    1    2    0    0 -0.63038335421E+00  0.10725112098E+02  0.15444608179E+02  0.18813860170E+02  0.00000000000E+00 0.  1.
</event>
<event>
 7    1  0.6473813E-006  0.1084010E+03  0.7561462E-02  0.1263560E+00
         -2   -1    0    0    0  501 -0.00000000000E+00  0.00000000000E+00  0.34015839411E+03  0.34015839411E+03  0.00000000000E+00 0.  1.
          2   -1    0    0  501    0  0.00000000000E+00 -0.00000000000E+00 -0.10089833392E+03  0.10089833392E+03  0.00000000000E+00 0. -1.
         23    2    1    2    0    0 -0.33431473156E+02  0.33655132992E+02  0.29009876475E+03  0.31946090198E+03  0.12509054005E+03 0.  0.
          5    1    3    3  502    0  0.30617616857E+02  0.55534171262E+02  0.11029490301E+03  0.12729462153E+03  0.41800000000E+01 0.  1.
         -5    1    3    3    0  502 -0.64049090013E+02 -0.21879038270E+02  0.17980386174E+03  0.19216628045E+03  0.41800000000E+01 0.  1.
        -11    1    1    2    0    0 -0.22067328890E+02 -0.37158077743E+01 -0.54004226085E+02  0.58457083974E+02  0.00000000000E+00 0. -1.
         11    1    1    2    0    0  0.55498802046E+02 -0.29939325218E+02  0.31655215225E+01  0.63138742065E+02  0.00000000000E+00 0.  1.
</event>
<event>
 7    1  0.6473813E-006  0.2902160E+03  0.7561462E-02  0.1090236E+00
         -2   -1    0    0    0  501 -0.00000000000E+00  0.00000000000E+00  0.73796626580E+02  0.73796626580E+02  0.00000000000E+00 0.  1.
          2   -1    0    0  501    0  0.00000000000E+00 -0.00000000000E+00 -0.12193976299E+04  0.12193976299E+04  0.00000000000E+00 0. -1.
         23    2    1    2    0    0  0.24436677591E+03  0.12986475276E+03 -0.49149490290E+03  0.57775121582E+03  0.12509697292E+03 0.  0.
          5    1    3    3  502    0  0.25543774510E+03  0.10961049720E+03 -0.46930510437E+03  0.54546095745E+03  0.41800000000E+01 0. -1.
         -5    1    3    3    0  502 -0.11070969189E+02  0.20254255556E+02 -0.22189798527E+02  0.32290258370E+02  0.41800000000E+01 0. -1.
        -11    1    1    2    0    0 -0.59809576610E+02 -0.49703315421E+02 -0.10522841453E+03  0.13084580331E+03  0.00000000000E+00 0. -1.
         11    1    1    2    0    0 -0.18455719930E+03 -0.80161437335E+02 -0.54887768593E+03  0.58459723739E+03  0.00000000000E+00 0.  1.
</event>
<event>
 7    1  0.6473813E-006  0.1792676E+03  0.7561462E-02  0.1168514E+00
          2   -1    0    0  501    0  0.00000000000E+00  0.00000000000E+00  0.10159922316E+04  0.10159922316E+04  0.00000000000E+00 0. -1.
         -2   -1    0    0    0  501 -0.00000000000E+00 -0.00000000000E+00 -0.39539389549E+02  0.39539389549E+02  0.00000000000E+00 0.  1.
         23    2    1    2    0    0 -0.15288348541E+03 -0.56798047217E+02  0.39170270552E+03  0.44235533185E+03  0.12509137389E+03 0.  0.
          5    1    3    3  502    0  0.13004781844E+02 -0.13400128843E+02  0.11661701579E+03  0.11817651448E+03  0.41800000000E+01 0. -1.
         -5    1    3    3    0  502 -0.16588826726E+03 -0.43397918373E+02  0.27508568973E+03  0.32417881736E+03  0.41800000000E+01 0. -1.
        -11    1    1    2    0    0  0.11916944088E+03  0.25481932657E+02  0.51774033278E+03  0.53188883869E+03  0.00000000000E+00 0. -1.
         11    1    1    2    0    0  0.33714044532E+02  0.31316114560E+02  0.67009803790E+02  0.81287450654E+02  0.00000000000E+00 0.  1.
</event>
<event>
 7    1  0.6473813E-006  0.1098837E+03  0.7561462E-02  0.1260785E+00
         -3   -1    0    0    0  501 -0.00000000000E+00  0.00000000000E+00  0.57719164376E+02  0.57719164376E+02  0.00000000000E+00 0.  1.
          3   -1    0    0  501    0  0.00000000000E+00 -0.00000000000E+00 -0.24309681034E+03  0.24309681034E+03  0.00000000000E+00 0. -1.
         23    2    1    2    0    0 -0.31179009150E+02  0.28253920219E+02 -0.75472927263E+02  0.15202226309E+03  0.12507674087E+03 0.  0.
          5    1    3    3  502    0  0.40490631689E+01  0.71410992612E+02 -0.61530649498E+02  0.94442670473E+02  0.41800000000E+01 0.  1.
         -5    1    3    3    0  502 -0.35228072319E+02 -0.43157072393E+02 -0.13942277764E+02  0.57579592618E+02  0.41800000000E+01 0.  1.
        -11    1    1    2    0    0 -0.56841565199E+01  0.26026035714E+02 -0.84075250662E+01  0.27934756990E+02  0.00000000000E+00 0.  1.
         11    1    1    2    0    0  0.36863165670E+02 -0.54279955933E+02 -0.10149719364E+03  0.12085895463E+03  0.00000000000E+00 0. -1.
</event>
<event>
 7    1  0.6473813E-006  0.1336998E+03  0.7561462E-02  0.1222067E+00
         -4   -1    0    0    0  501 -0.00000000000E+00  0.00000000000E+00  0.29265890091E+02  0.29265890091E+02  0.00000000000E+00 0.  1.
          4   -1    0    0  501    0  0.00000000000E+00 -0.00000000000E+00 -0.68813329054E+03  0.68813329054E+03  0.00000000000E+00 0. -1.
         23    2    1    2    0    0  0.42862346278E+02  0.80649776063E+02 -0.37729811027E+03  0.40785242947E+03  0.12509265807E+03 0.  0.
          5    1    3    3  502    0 -0.15170759638E+01 -0.25133049684E+02 -0.19583634811E+02  0.32170838632E+02  0.41800000000E+01 0.  1.
         -5    1    3    3    0  502  0.44379422241E+02  0.10578282575E+03 -0.35771447546E+03  0.37568159084E+03  0.41800000000E+01 0.  1.
        -11    1    1    2    0    0 -0.39676790651E+01 -0.87501544653E+02 -0.17085252625E+03  0.19199700133E+03  0.00000000000E+00 0. -1.
         11    1    1    2    0    0 -0.38894667212E+02  0.68517685905E+01 -0.11071676393E+03  0.11754974983E+03  0.00000000000E+00 0.  1.
</event>
<event>
 7    1  0.6473813E-006  0.1155808E+03  0.7561462E-02  0.1250571E+00
         -1   -1    0    0    0  501 -0.00000000000E+00  0.00000000000E+00  0.83528227349E+03  0.83528227349E+03  0.00000000000E+00 0.  1.
          1   -1    0    0  501    0  0.00000000000E+00 -0.00000000000E+00 -0.25301038285E+02  0.25301038285E+02  0.00000000000E+00 0. -1.
         23    2    1    2    0    0 -0.75497532791E+02  0.32501389813E+02  0.58638706664E+03  0.60518876545E+03  0.12508969625E+03 0.  0.
          5    1    3    3  502    0 -0.29188904806E+02 -0.24279515880E+02  0.43782584478E+03  0.43948882786E+03  0.41800000000E+01 0. -1.
         -5    1    3    3    0  502 -0.46308627985E+02  0.56780905692E+02  0.14856122185E+03  0.16569993758E+03  0.41800000000E+01 0. -1.
        -11    1    1    2    0    0  0.19045863700E+02  0.29886110353E+02  0.40007935875E+02  0.53446790821E+02  0.00000000000E+00 0.  1.
         11    1    1    2    0    0  0.56451669091E+02 -0.62387500165E+02  0.18358623270E+03  0.20194775551E+03  0.00000000000E+00 0. -1.
</event>
<event>
 7    1  0.6473813E-006  0.1215689E+03  0.7561462E-02  0.1240531E+00
          2   -1    0    0  501    0  0.00000000000E+00  0.00000000000E+00  0.57982331019E+03  0.57982331019E+03  0.00000000000E+00 0. -1.
         -2   -1    0    0    0  501 -0.00000000000E+00 -0.00000000000E+00 -0.34084122757E+02  0.34084122757E+02  0.00000000000E+00 0.  1.
         23    2    1    2    0    0 -0.78840133935E+02  0.49980395202E+01  0.21457334324E+03  0.26063213086E+03  0.12508653360E+03 0.  0.
          5    1    3    3  502    0 -0.20116587739E+02  0.54936118848E+02  0.14612930734E+03  0.15746079232E+03  0.41800000000E+01 0.  1.
         -5    1    3    3    0  502 -0.58723546196E+02 -0.49938079328E+02  0.68444035908E+02  0.10317133854E+03  0.41800000000E+01 0.  1.
        -11    1    1    2    0    0  0.15069290072E+02 -0.34030127028E+02  0.43734784149E+02  0.57427035387E+02  0.00000000000E+00 0.  1.
         11    1    1    2    0    0  0.63770843864E+02  0.29032087507E+02  0.28743106004E+03  0.29584826669E+03  0.00000000000E+00 0. -1.
</event>
<event>
 7    1  0.6473813E-006  0.2161750E+03  0.7561462E-02  0.1136767E+00
          4   -1    0    0  501    0  0.00000000000E+00  0.00000000000E+00  0.13957189919E+03  0.13957189919E+03  0.00000000000E+00 0. -1.
         -4   -1    0    0    0  501 -0.00000000000E+00 -0.00000000000E+00 -0.45451200449E+03  0.45451200449E+03  0.00000000000E+00 0.  1.
         23    2    1    2    0    0  0.32161506984E+02  0.19289004039E+03 -0.29796071937E+03  0.37771610856E+03  0.12509171900E+03 0.  0.
          5    1    3    3  502    0 -0.28158694553E+01 -0.17571921695E+02 -0.17511976058E+02  0.25314882151E+02  0.41800000000E+01 0.  1.
         -5    1    3    3    0  502  0.34977376439E+02  0.21046196208E+03 -0.28044874331E+03  0.35240122641E+03  0.41800000000E+01 0.  1.
        -11    1    1    2    0    0 -0.30088053679E+02 -0.54334969120E+02 -0.42778473878E+02  0.75416030595E+02  0.00000000000E+00 0. -1.
         11    1    1    2    0    0 -0.20734533055E+01 -0.13855507127E+03  0.25799087945E+02  0.14095176452E+03  0.00000000000E+00 0.  1.
</event>
<event>
 7    1  0.6473813E-006  0.1129452E+03  0.7561462E-02  0.1255211E+00
          1   -1    0    0  501    0  0.00000000000E+00  0.00000000000E+00  0.25797686405E+03  0.25797686405E+03  0.00000000000E+00 0. -1.
         -1   -1    0    0    0  501 -0.00000000000E+00 -0.00000000000E+00 -0.16828367289E+03  0.16828367289E+03  0.00000000000E+00 0.  1.
         23    2    1    2    0    0 -0.51101549662E+02  0.43102048017E+02 -0.11985132337E+03  0.18569066912E+03  0.12509008739E+03 0.  0.
          5    1    3    3  502    0  0.35812840886E+02  0.14578694700E+02 -0.56333148809E+01  0.39297640490E+02  0.41800000000E+01 0. -1.
         -5    1    3    3    0  502 -0.86914390548E+02  0.28523353317E+02 -0.11421800849E+03  0.14639302863E+03  0.41800000000E+01 0. -1.
        -11    1    1    2    0    0 -0.16647811210E+02 -0.13757046222E+02  0.37338057520E+01  0.21916825597E+02  0.00000000000E+00 0.  1.
         11    1    1    2    0    0  0.67749360872E+02 -0.29345001795E+02  0.20581070877E+03  0.21865304222E+03  0.00000000000E+00 0. -1.
</event>
<event>
 7    1  0.6473813E-006  0.6526422E+02  0.7561462E-02  0.1376980E+00
         -2   -1    0    0    0  501 -0.00000000000E+00  0.00000000000E+00  0.36063695675E+02  0.36063695675E+02  0.00000000000E+00 0.  1.
          2   -1    0    0  501    0  0.00000000000E+00 -0.00000000000E+00 -0.22115598783E+03  0.22115598783E+03  0.00000000000E+00 0. -1.
         23    2    1    2    0    0 -0.17005823883E+02  0.59337187865E+01 -0.93330585443E+02  0.15240043139E+03  0.11912550627E+03 0.  0.
          5    1    3    3  502    0  0.17058639447E+02 -0.30927759101E+02 -0.95582312259E+02  0.10198516696E+03  0.41800000000E+01 0. -1.
         -5    1    3    3    0  502 -0.34064463329E+02  0.36861477888E+02  0.22517268161E+01  0.50415264431E+02  0.41800000000E+01 0.  1.
        -11    1    1    2    0    0 -0.11009426689E+02  0.77051317980E+01 -0.55053815382E+02  0.56670090172E+02  0.00000000000E+00 0. -1.
         11    1    1    2    0    0  0.28015250572E+02 -0.13638850584E+02 -0.36707891327E+02  0.48149161940E+02  0.00000000000E+00 0.  1.
</event>
<event>
 7    1  0.6473813E-006  0.1390351E+03  0.7561462E-02  0.1214633E+00
         -2   -1    0    0    0  501 -0.00000000000E+00  0.00000000000E+00  0.81342486583E+02  0.81342486583E+02  0.00000000000E+00 0.  1.
          2   -1    0    0  501    0  0.00000000000E+00 -0.00000000000E+00 -0.30335148280E+03  0.30335148280E+03  0.00000000000E+00 0. -1.
         23    2    1    2    0    0 -0.11324523194E+03  0.11069354564E+02 -0.12707569395E+03  0.21152726785E+03  0.12509412410E+03 0.  0.
          5    1    3    3  502    0 -0.10829619354E+03 -0.35980307227E+02 -0.11596514092E+03  0.16275144961E+03  0.41800000000E+01 0. -1.
         -5    1    3    3    0  502 -0.49490383984E+01  0.47049661791E+02 -0.11110553032E+02  0.48775818234E+02  0.41800000000E+01 0. -1.
        -11    1    1    2    0    0  0.11788822172E+02  0.64306519131E+01 -0.64392329690E+02  0.65777668970E+02  0.00000000000E+00 0. -1.
         11    1    1    2    0    0  0.10145640977E+03 -0.17500006477E+02 -0.30540972584E+02  0.10738903257E+03  0.00000000000E+00 0.  1.
</event>
<event>
 7    1  0.6473813E-006  0.9528037E+02  0.7561462E-02  0.1290546E+00
          2   -1    0    0  501    0  0.00000000000E+00  0.00000000000E+00  0.62470404585E+03  0.62470404585E+03  0.00000000000E+00 0. -1.
         -2   -1    0    0    0  501 -0.00000000000E+00 -0.00000000000E+00 -0.19626276822E+02  0.19626276822E+02  0.00000000000E+00 0.  1.
         23    2    1    2    0    0 -0.58845101876E+01  0.23368089052E+02  0.35367295735E+03  0.37591396701E+03  0.12508419078E+03 0.  0.
          5    1    3    3  502    0  0.26981319669E+02  0.61432860918E+02  0.12704383419E+03  0.14373446427E+03  0.41800000000E+01 0.  1.
         -5    1    3    3    0  502 -0.32865829857E+02 -0.38064771866E+02  0.22662912316E+03  0.23217950274E+03  0.41800000000E+01 0.  1.
        -11    1    1    2    0    0 -0.10110543459E+02  0.22298489048E+02  0.18899575479E+02  0.30929591917E+02  0.00000000000E+00 0.  1.
         11    1    1    2    0    0  0.15995053647E+02 -0.45666578099E+02  0.23250523620E+03  0.23748676375E+03  0.00000000000E+00 0. -1.
</event>
<event>
 7    1  0.6473813E-006  0.1339183E+03  0.7561462E-02  0.1221755E+00
          2   -1    0    0  501    0  0.00000000000E+00  0.00000000000E+00  0.72215648165E+02  0.72215648165E+02  0.00000000000E+00 0. -1.
         -2   -1    0    0    0  501 -0.00000000000E+00 -0.00000000000E+00 -0.42460971317E+03  0.42460971317E+03  0.00000000000E+00 0.  1.
         23    2    1    2    0    0  0.27100515448E+02 -0.12623421453E+03 -0.24990229923E+03  0.30784274058E+03  0.12508588615E+03 0.  0.
          5    1    3    3  502    0 -0.67653429596E+01  0.69141239219E-02  0.12410613485E+02  0.14739933522E+02  0.41800000000E+01 0. -1.
         -5    1    3    3    0  502  0.33865858408E+02 -0.12624112866E+03 -0.26231291271E+03  0.29310280706E+03  0.41800000000E+01 0. -1.
        -11    1    1    2    0    0 -0.21962769333E+02  0.10366597176E+03 -0.26061665542E+02  0.10912473298E+03  0.00000000000E+00 0. -1.
         11    1    1    2    0    0 -0.51377461147E+01  0.22568242775E+02 -0.76430100239E+02  0.79857887773E+02  0.00000000000E+00 0.  1.
</event>
<event>
 7    1  0.6473813E-006  0.1709148E+03  0.7561462E-02  0.1176897E+00
          1   -1    0    0  501    0  0.00000000000E+00  0.00000000000E+00  0.19635523781E+03  0.19635523781E+03  0.00000000000E+00 0. -1.
         -1   -1    0    0    0  501 -0.00000000000E+00 -0.00000000000E+00 -0.17779045284E+03  0.17779045284E+03  0.00000000000E+00 0.  1.
         23    2    1    2    0    0 -0.12335849632E+03  0.79938925330E+02 -0.27541408680E+02  0.19497218785E+03  0.12509226373E+03 0.  0.
          5    1    3    3  502    0  0.40829042828E+01  0.59870696302E+02 -0.26888401173E+02  0.65891038091E+02  0.41800000000E+01 0. -1.
         -5    1    3    3    0  502 -0.12744140060E+03  0.20068229028E+02 -0.65300750776E+00  0.12908114975E+03  0.41800000000E+01 0. -1.
        -11    1    1    2    0    0  0.57516955168E+02 -0.13546658245E+02  0.60498396542E+02  0.84568126771E+02  0.00000000000E+00 0. -1.
         11    1    1    2    0    0  0.65841541149E+02 -0.66392267085E+02 -0.14392202896E+02  0.94605376030E+02  0.00000000000E+00 0.  1.
</event>
<event>
 7    1  0.6473813E-006  0.1641097E+03  0.7561462E-02  0.1184134E+00
          2   -1    0    0  501    0  0.00000000000E+00  0.00000000000E+00  0.46646955012E+03  0.46646955012E+03  0.00000000000E+00 0. -1.
         -2   -1    0    0    0  501 -0.00000000000E+00 -0.00000000000E+00 -0.79050122661E+02  0.79050122661E+02  0.00000000000E+00 0.  1.
         23    2    1    2    0    0 -0.14270895355E+03  0.99976572035E+01  0.10847436863E+03  0.21881393181E+03  0.12508816705E+03 0.  0.
          5    1    3    3  502    0 -0.60472015802E+02 -0.52728131220E+02  0.20369734337E+02  0.82882561460E+02  0.41800000000E+01 0.  1.
         -5    1    3    3    0  502 -0.82236937745E+02  0.62725788424E+02  0.88104634291E+02  0.13593137035E+03  0.41800000000E+01 0.  1.
        -11    1    1    2    0    0  0.60216628527E+02 -0.13831050040E+02  0.39284093277E+02  0.73215983781E+02  0.00000000000E+00 0.  1.
         11    1    1    2    0    0  0.82492325020E+02  0.38333928366E+01  0.23966096556E+03  0.25348975719E+03  0.00000000000E+00 0. -1.
</event>
<event>
 7    1  0.6473813E-006  0.1940410E+03  0.7561462E-02  0.1154866E+00
         -1   -1    0    0    0  501 -0.00000000000E+00  0.00000000000E+00  0.26077146554E+03  0.26077146554E+03  0.00000000000E+00 0.  1.
          1   -1    0    0  501    0  0.00000000000E+00 -0.00000000000E+00 -0.14865420928E+03  0.14865420928E+03  0.00000000000E+00 0. -1.
         23    2    1    2    0    0  0.11073672189E+03 -0.11887348788E+03  0.38736900336E+02  0.20866664010E+03  0.12509073326E+03 0.  0.
          5    1    3    3  502    0 -0.19319814274E+02 -0.57879825228E+02  0.15442867463E+02  0.63081565829E+02  0.41800000000E+01 0.  1.
         -5    1    3    3    0  502  0.13005653617E+03 -0.60993662654E+02  0.23294032873E+02  0.14558507427E+03  0.41800000000E+01 0.  1.
        -11    1    1    2    0    0 -0.90988867889E+01  0.69719571873E+02  0.47733401083E+02  0.84982857223E+02  0.00000000000E+00 0.  1.
         11    1    1    2    0    0 -0.10163783510E+03  0.49153916009E+02  0.25646954838E+02  0.11577617750E+03  0.00000000000E+00 0. -1.
</event>
<event>
 7    1  0.6473813E-006  0.1421901E+03  0.7561462E-02  0.1210412E+00
          1   -1    0    0  501    0  0.00000000000E+00  0.00000000000E+00  0.73744546521E+02  0.73744546521E+02  0.00000000000E+00 0. -1.
         -1   -1    0    0    0  501 -0.00000000000E+00 -0.00000000000E+00 -0.31392516651E+03  0.31392516651E+03  0.00000000000E+00 0.  1.
         23    2    1    2    0    0 -0.35580387590E+02 -0.88772745160E+02 -0.18682997809E+03  0.24433589047E+03  0.12509205568E+03 0.  0.
          5    1    3    3  502    0 -0.17528497030E+02  0.29805313067E+02 -0.25064042536E+02  0.42910179718E+02  0.41800000000E+01 0. -1.
         -5    1    3    3    0  502 -0.18051890560E+02 -0.11857805823E+03 -0.16176593555E+03  0.20142571075E+03  0.41800000000E+01 0. -1.
        -11    1    1    2    0    0 -0.28139010566E+02  0.14438749946E+02 -0.27897126757E+02  0.42172634455E+02  0.00000000000E+00 0.  1.
         11    1    1    2    0    0  0.63719398156E+02  0.74333995214E+02 -0.25453515140E+02  0.10116118811E+03  0.00000000000E+00 0. -1.
</event>
<event>
 7    1  0.6473813E-006  0.1974545E+03  0.7561462E-02  0.1151905E+00
         -2   -1    0    0    0  501 -0.00000000000E+00  0.00000000000E+00  0.82200459883E+02  0.82200459883E+02  0.00000000000E+00 0.  1.
          2   -1    0    0  501    0  0.00000000000E+00 -0.00000000000E+00 -0.81686963771E+03  0.81686963771E+03  0.00000000000E+00 0. -1.
         23    2    1    2    0    0  0.63838159331E+02  0.17958015698E+03 -0.14154429223E+03  0.26833963335E+03  0.12508808415E+03 0.  0.
          5    1    3    3  502    0  0.62118862006E+02  0.17833870733E+03 -0.16108015889E+03  0.24824934549E+03  0.41800000000E+01 0.  1.
         -5    1    3    3    0  502  0.17192973253E+01  0.12414496525E+01  0.19535866656E+02  0.20090287866E+02  0.41800000000E+01 0.  1.
        -11    1    1    2    0    0 -0.91112847419E+01 -0.12031498654E+03 -0.45546214802E+03  0.47117351345E+03  0.00000000000E+00 0. -1.
         11    1    1    2    0    0 -0.54726874589E+02 -0.59265170439E+02 -0.13766273757E+03  0.15955695079E+03  0.00000000000E+00 0.  1.
</event>
<event>
 7    1  0.6473813E-006  0.1655865E+03  0.7561462E-02  0.1182530E+00
          1   -1    0    0  501    0  0.00000000000E+00  0.00000000000E+00  0.17693723304E+03  0.17693723304E+03  0.00000000000E+00 0. -1.
         -1   -1    0    0    0  501 -0.00000000000E+00 -0.00000000000E+00 -0.17235229192E+03  0.17235229192E+03  0.00000000000E+00 0.  1.
         23    2    1    2    0    0  0.10662131300E+03  0.72602254148E+02 -0.42253572708E+02  0.18458566603E+03  0.12508921618E+03 0.  0.
          5    1    3    3  502    0  0.66085660420E+01  0.72795876495E+02  0.60037183976E+01  0.73460396231E+02  0.41800000000E+01 0. -1.
         -5    1    3    3    0  502  0.10001274696E+03 -0.19362234678E+00 -0.48257291105E+02  0.11112526980E+03  0.41800000000E+01 0. -1.
        -11    1    1    2    0    0 -0.82743763285E+02 -0.13965237880E+01  0.26526261004E+02  0.86902952563E+02  0.00000000000E+00 0. -1.
         11    1    1    2    0    0 -0.23877549717E+02 -0.71205730360E+02  0.20312252815E+02  0.77800906364E+02  0.00000000000E+00 0.  1.
</event>
<event>
 7    1  0.6473813E-006  0.8517528E+02  0.7561462E-02  0.1314975E+00
         -2   -1    0    0    0  501 -0.00000000000E+00  0.00000000000E+00  0.37316626283E+02  0.37316626283E+02  0.00000000000E+00 0.  1.
          2   -1    0    0  501    0  0.00000000000E+00 -0.00000000000E+00 -0.46891799381E+03  0.46891799381E+03  0.00000000000E+00 0. -1.
         23    2    1    2    0    0  0.32552016716E+02  0.59709247739E+02 -0.17456800417E+03  0.22526884079E+03  0.12508890636E+03 0.  0.
          5    1    3    3  502    0  0.21268541683E+02  0.59713201084E+02 -0.15032117033E+02  0.65279814579E+02  0.41800000000E+01 0. -1.
         -5    1    3    3    0  502  0.11283475033E+02 -0.39533447788E-02 -0.15953588713E+03  0.15998902621E+03  0.41800000000E+01 0. -1.
        -11    1    1    2    0    0 -0.53012937015E+02 -0.45733965640E+02 -0.24213343796E+03  0.25205271052E+03  0.00000000000E+00 0. -1.
         11    1    1    2    0    0  0.20460920299E+02 -0.13975282099E+02 -0.14899925399E+02  0.28913068777E+02  0.00000000000E+00 0.  1.
</event>
<event>
 7    1  0.6473813E-006  0.1174089E+03  0.7561462E-02  0.1247434E+00
          2   -1    0    0  501    0  0.00000000000E+00  0.00000000000E+00  0.90261802854E+02  0.90261802854E+02  0.00000000000E+00 0. -1.
         -2   -1    0    0    0  501 -0.00000000000E+00 -0.00000000000E+00 -0.37478422503E+03  0.37478422503E+03  0.00000000000E+00 0.  1.
         23    2    1    2    0    0  0.67856234610E+02 -0.17692687556E+02 -0.31541954850E+03  0.34649183081E+03  0.12509835120E+03 0.  0.
          5    1    3    3  502    0  0.97600217159E+02 -0.34355378836E+02 -0.18923851390E+03  0.21571922025E+03  0.41800000000E+01 0.  1.
         -5    1    3    3    0  502 -0.29743982549E+02  0.16662691279E+02 -0.12618103460E+03  0.13077261055E+03  0.41800000000E+01 0.  1.
        -11    1    1    2    0    0 -0.22870534904E+02  0.40474526041E+02 -0.16519177432E+02  0.49336921753E+02  0.00000000000E+00 0.  1.
         11    1    1    2    0    0 -0.44985699706E+02 -0.22781838484E+02  0.47416303749E+02  0.69217275329E+02  0.00000000000E+00 0. -1.
</event>
<event>
 7    1  0.6473813E-006  0.1562918E+03  0.7561462E-02  0.1192948E+00
          1   -1    0    0  501    0  0.00000000000E+00  0.00000000000E+00  0.58333401542E+02  0.58333401542E+02  0.00000000000E+00 0. -1.
         -1   -1    0    0    0  501 -0.00000000000E+00 -0.00000000000E+00 -0.93046257247E+03  0.93046257247E+03  0.00000000000E+00 0.  1.
         23    2    1    2    0    0 -0.96176635676E+02  0.97867604324E+02 -0.77758104082E+03  0.79910398906E+03  0.12291011782E+03 0.  0.
          5    1    3    3  502    0  0.62644036988E+01  0.13865499332E+02 -0.70949874865E+01  0.17300464527E+02  0.41800000000E+01 0. -1.
         -5    1    3    3    0  502 -0.10244103937E+03  0.84002104993E+02 -0.77048605333E+03  0.78180352453E+03  0.41800000000E+01 0.  1.
        -11    1    1    2    0    0  0.11390262484E+03 -0.88277116084E+02 -0.85854235047E+02  0.16774268045E+03  0.00000000000E+00 0. -1.
         11    1    1    2    0    0 -0.17725989167E+02 -0.95904882410E+01 -0.86938950601E+01  0.21949304498E+02  0.00000000000E+00 0.  1.
</event>
<event>
 7    1  0.6473813E-006  0.1239253E+03  0.7561462E-02  0.1236759E+00
         -2   -1    0    0    0  501 -0.00000000000E+00  0.00000000000E+00  0.39169385758E+02  0.39169385758E+02  0.00000000000E+00 0.  1.
          2   -1    0    0  501    0  0.00000000000E+00 -0.00000000000E+00 -0.50198814984E+03  0.50198814984E+03  0.00000000000E+00 0. -1.
         23    2    1    2    0    0 -0.65304877721E+02 -0.55436119028E+02 -0.21040540854E+03  0.25933886885E+03  0.12509325565E+03 0.  0.
          5    1    3    3  502    0 -0.18360855057E+02 -0.77664442594E+02 -0.18467388393E+03  0.20122326517E+03  0.41800000000E+01 0. -1.
         -5    1    3    3    0  502 -0.46944022664E+02  0.22228323565E+02 -0.25731524612E+02  0.58115603681E+02  0.41800000000E+01 0. -1.
        -11    1    1    2    0    0  0.62443746339E+02  0.21670563395E+01 -0.18840314984E+03  0.19849348720E+03  0.00000000000E+00 0. -1.
         11    1    1    2    0    0  0.28611313822E+01  0.53269062689E+02 -0.64010205700E+02  0.83325179545E+02  0.00000000000E+00 0.  1.
</event>
<event>
 7    1  0.6473813E-006  0.9330097E+02  0.7561462E-02  0.1295049E+00
         -2   -1    0    0    0  501 -0.00000000000E+00  0.00000000000E+00  0.27878561127E+03  0.27878561127E+03  0.00000000000E+00 0.  1.
          2   -1    0    0  501    0  0.00000000000E+00 -0.00000000000E+00 -0.65680897398E+02  0.65680897398E+02  0.00000000000E+00 0. -1.
         23    2    1    2    0    0  0.47656807138E+02  0.29168521507E+02  0.18104821164E+03  0.22704214986E+03  0.12509080285E+03 0.  0.
          5    1    3    3  502    0  0.45823050274E+02 -0.31011429202E+02  0.27234029680E+02  0.61811208127E+02  0.41800000000E+01 0. -1.
         -5    1    3    3    0  502  0.18337568636E+01  0.60179950709E+02  0.15381418196E+03  0.16523094173E+03  0.41800000000E+01 0. -1.
        -11    1    1    2    0    0 -0.55239355524E+02 -0.19737183613E+02  0.61864521483E+02  0.85253515083E+02  0.00000000000E+00 0.  1.
         11    1    1    2    0    0  0.75825483859E+01 -0.94313378946E+01 -0.29808019253E+02  0.32170843730E+02  0.00000000000E+00 0. -1.
</event>
<event>
 7    1  0.6473813E-006  0.1110579E+03  0.7561462E-02  0.1258623E+00
          1   -1    0    0  501    0  0.00000000000E+00  0.00000000000E+00  0.12900097045E+03  0.12900097045E+03  0.00000000000E+00 0. -1.
         -1   -1    0    0    0  501 -0.00000000000E+00 -0.00000000000E+00 -0.97861654961E+02  0.97861654961E+02  0.00000000000E+00 0.  1.
         23    2    1    2    0    0  0.27896813711E+02 -0.19529613443E+02  0.30363342897E+01  0.12967752085E+03  0.12508957618E+03 0.  0.
          5    1    3    3  502    0  0.36953635495E+00 -0.70923009303E+02  0.47068076297E+01  0.71202782557E+02  0.41800000000E+01 0.  1.
         -5    1    3    3    0  502  0.27527277356E+02  0.51393395860E+02 -0.16704733400E+01  0.58474738288E+02  0.41800000000E+01 0.  1.
        -11    1    1    2    0    0 -0.44989858402E+02 -0.20238094862E+02  0.10383893229E+02  0.50413223278E+02  0.00000000000E+00 0. -1.
         11    1    1    2    0    0  0.17093044691E+02  0.39767708305E+02  0.17719087970E+02  0.46771881287E+02  0.00000000000E+00 0.  1.
</event>
<event>
 7    1  0.6473813E-006  0.9714368E+02  0.7561462E-02  0.1286420E+00
         -2   -1    0    0    0  501 -0.00000000000E+00  0.00000000000E+00  0.12066043452E+03  0.12066043452E+03  0.00000000000E+00 0. -1.
          2   -1    0    0  501    0  0.00000000000E+00 -0.00000000000E+00 -0.12630098416E+03  0.12630098416E+03  0.00000000000E+00 0.  1.
         23    2    1    2    0    0 -0.75377064102E+01 -0.26141909596E+02  0.48959532588E+02  0.13705939287E+03  0.12509206564E+03 0.  0.
          5    1    3    3  502    0 -0.71045002304E+01  0.46303430036E+02  0.43866965781E+02  0.64313798235E+02  0.41800000000E+01 0.  1.
         -5    1    3    3    0  502 -0.43320617975E+00 -0.72445339632E+02  0.50925668068E+01  0.72745594634E+02  0.41800000000E+01 0.  1.
        -11    1    1    2    0    0 -0.29205184520E+02 -0.65461677384E+00  0.10020702173E+02  0.30883422705E+02  0.00000000000E+00 0. -1.
         11    1    1    2    0    0  0.36742890930E+02  0.26796526370E+02 -0.64620784406E+02  0.79018603105E+02  0.00000000000E+00 0.  1.
</event>
<event>
 7    1  0.6473813E-006  0.1263170E+03  0.7561462E-02  0.1233025E+00
         -1   -1    0    0    0  501 -0.00000000000E+00  0.00000000000E+00  0.39533036066E+02  0.39533036066E+02  0.00000000000E+00 0. -1.
          1   -1    0    0  501    0  0.00000000000E+00 -0.00000000000E+00 -0.47536811371E+03  0.47536811371E+03  0.00000000000E+00 0.  1.
         23    2    1    2    0    0  0.62588439172E+02 -0.51456475280E+02 -0.21427387694E+03  0.26101627203E+03  0.12510442982E+03 0.  0.
          5    1    3    3  502    0  0.60478447193E+02  0.24129133802E+02 -0.14227194008E+03  0.15652039806E+03  0.41800000000E+01 0. -1.
         -5    1    3    3    0  502  0.21099919791E+01 -0.75585609082E+02 -0.72001936854E+02  0.10449587397E+03  0.41800000000E+01 0. -1.
        -11    1    1    2    0    0 -0.12478496527E+01  0.50288024186E+02 -0.46952100399E+02  0.68810916555E+02  0.00000000000E+00 0.  1.
         11    1    1    2    0    0 -0.61340589519E+02  0.11684510940E+01 -0.17460910031E+03  0.18507396119E+03  0.00000000000E+00 0. -1.
</event>
<event>
 7    1  0.6473813E-006  0.1892982E+03  0.7561462E-02  0.1159096E+00
          1   -1    0    0  501    0  0.00000000000E+00  0.00000000000E+00  0.44978351166E+02  0.44978351166E+02  0.00000000000E+00 0. -1.
         -1   -1    0    0    0  501 -0.00000000000E+00 -0.00000000000E+00 -0.93493927987E+03  0.93493927987E+03  0.00000000000E+00 0.  1.
         23    2    1    2    0    0  0.49831658331E+02 -0.16412711353E+03 -0.54240912956E+03  0.58247315315E+03  0.12508559766E+03 0.  0.
          5    1    3    3  502    0  0.35370708476E+02  0.57697045805E+01 -0.15560356989E+03  0.15973202519E+03  0.41800000000E+01 0. -1.
         -5    1    3    3    0  502  0.14460949855E+02 -0.16989681811E+03 -0.38680555967E+03  0.42274112796E+03  0.41800000000E+01 0. -1.
        -11    1    1    2    0    0 -0.15879827769E+02  0.34948055261E+02 -0.17541483107E+03  0.17956586105E+03  0.00000000000E+00 0.  1.
         11    1    1    2    0    0 -0.33951830561E+02  0.12917905827E+03 -0.17213696807E+03  0.21787861683E+03  0.00000000000E+00 0. -1.
</event>
<event>
 7    1  0.6473813E-006  0.1133875E+03  0.7561462E-02  0.1254422E+00
         -2   -1    0    0    0  501 -0.00000000000E+00  0.00000000000E+00  0.28404931946E+02  0.28404931946E+02  0.00000000000E+00 0.  1.
          2   -1    0    0  501    0  0.00000000000E+00 -0.00000000000E+00 -0.58954885188E+03  0.58954885188E+03  0.00000000000E+00 0. -1.
         23    2    1    2    0    0 -0.35448563754E+02 -0.38888619819E+02 -0.20247234644E+03  0.24374384982E+03  0.12508832010E+03 0.  0.
          5    1    3    3  502    0 -0.68801476565E+02  0.16093847993E+02 -0.11617711629E+03  0.13604135353E+03  0.41800000000E+01 0.  1.
         -5    1    3    3    0  502  0.33352912811E+02 -0.54982467812E+02 -0.86295230154E+02  0.10770249629E+03  0.41800000000E+01 0.  1.
        -11    1    1    2    0    0  0.18321162013E+01  0.54467605407E+02 -0.29933491245E+03  0.30425559403E+03  0.00000000000E+00 0. -1.
         11    1    1    2    0    0  0.33616447553E+02 -0.15578985588E+02 -0.59336661047E+02  0.69954339982E+02  0.00000000000E+00 0.  1.
</event>
<event>
 7    1  0.6473813E-006  0.2541312E+03  0.7561462E-02  0.1110721E+00
         -2   -1    0    0    0  501 -0.00000000000E+00  0.00000000000E+00  0.12106445759E+04  0.12106445759E+04  0.00000000000E+00 0.  1.
          2   -1    0    0  501    0  0.00000000000E+00 -0.00000000000E+00 -0.53851110276E+02  0.53851110276E+02  0.00000000000E+00 0. -1.
         23    2    1    2    0    0 -0.23110481712E+03  0.24281294991E+01  0.57623708747E+03  0.63333331612E+03  0.12508627429E+03 0.  0.
          5    1    3    3  502    0 -0.20659515841E+03  0.46731720654E+02  0.47267407012E+03  0.51798036851E+03  0.41800000000E+01 0.  1.
         -5    1    3    3    0  502 -0.24509658710E+02 -0.44303591154E+02  0.10356301735E+03  0.11535294761E+03  0.41800000000E+01 0.  1.
        -11    1    1    2    0    0  0.77237567446E+02 -0.40334777145E+02  0.24592501316E+03  0.26090543914E+03  0.00000000000E+00 0.  1.
         11    1    1    2    0    0  0.15386724968E+03  0.37906647646E+02  0.33463136496E+03  0.37025693089E+03  0.00000000000E+00 0. -1.
</event>
<event>
 6    1  0.6473813E-006  0.1093501E+03  0.7561462E-02  0.1261778E+00
          2   -1    0    0  501    0  0.00000000000E+00  0.00000000000E+00  0.19813069183E+03  0.19813069183E+03  0.00000000000E+00 0. -1.
         -2   -1    0    0    0  501 -0.00000000000E+00 -0.00000000000E+00 -0.68217582630E+02  0.68217582630E+02  0.00000000000E+00 0.  1.
          5    1    1    2  502    0  0.96273705466E+02 -0.38070467950E+02  0.57038716152E+02  0.11827457222E+03  0.41800000000E+01 0. -1.
         -5    1    1    2    0  502 -0.47590191240E+02  0.20316517040E+02  0.20643087635E+01  0.51954989535E+02  0.41800000000E+01 0.  1.
        -11    1    1    2    0    0 -0.49299147187E+01  0.18772176939E+02  0.12028845187E+02  0.22834005402E+02  0.00000000000E+00 0.  1.
         11    1    1    2    0    0 -0.43753599507E+02 -0.10182260295E+01  0.58781239096E+02  0.73284707298E+02  0.00000000000E+00 0. -1.
</event>
<event>
 7    1  0.6473813E-006  0.8346836E+02  0.7561462E-02  0.1319487E+00
          2   -1    0    0  501    0  0.00000000000E+00  0.00000000000E+00  0.95855580928E+02  0.95855580928E+02  0.00000000000E+00 0. -1.
         -2   -1    0    0    0  501 -0.00000000000E+00 -0.00000000000E+00 -0.12706483843E+03  0.12706483843E+03  0.00000000000E+00 0.  1.
         23    2    1    2    0    0  0.24073545775E+02 -0.36674017024E+01  0.45335410077E+01  0.12752579392E+03  0.12509712099E+03 0.  0.
          5    1    3    3  502    0  0.77580758786E+01  0.55722949596E+02 -0.21707494732E+02  0.60447684658E+02  0.41800000000E+01 0.  1.
         -5    1    3    3    0  502  0.16315469897E+02 -0.59390351298E+02  0.26241035740E+02  0.67078109261E+02  0.41800000000E+01 0.  1.
        -11    1    1    2    0    0 -0.24682242497E+02 -0.15803765792E+02  0.20570721064E+02  0.35806796464E+02  0.00000000000E+00 0. -1.
         11    1    1    2    0    0  0.60869672202E+00  0.19471167495E+02 -0.56313519576E+02  0.59587828979E+02  0.00000000000E+00 0.  1.
</event>
<event>
 7    1  0.6473813E-006  0.9376205E+02  0.7561462E-02  0.1293989E+00
          2   -1    0    0  501    0  0.00000000000E+00  0.00000000000E+00  0.27905257202E+03  0.27905257202E+03  0.00000000000E+00 0. -1.
         -2   -1    0    0    0  501 -0.00000000000E+00 -0.00000000000E+00 -0.47532840011E+02  0.47532840011E+02  0.00000000000E+00 0.  1.
         23    2    1    2    0    0  0.15666432822E+02 -0.31748108317E+02  0.11047461505E+03  0.17060024851E+03  0.12508566954E+03 0.  0.
          5    1    3    3  502    0  0.61052538921E+02 -0.34239091034E+02  0.26388887915E+02  0.74923785735E+02  0.41800000000E+01 0. -1.
         -5    1    3    3    0  502 -0.45386106099E+02  0.24909827172E+01  0.84085727138E+02  0.95676462780E+02  0.41800000000E+01 0. -1.
        -11    1    1    2    0    0  0.16663494352E+02  0.35492054753E+02  0.11674862008E+03  0.12315680365E+03  0.00000000000E+00 0. -1.
         11    1    1    2    0    0 -0.32329927174E+02 -0.37439464361E+01  0.42964968735E+01  0.32828359864E+02  0.00000000000E+00 0.  1.
</event>
<event>
 7    1  0.6473813E-006  0.1385682E+03  0.7561462E-02  0.1215269E+00
          1   -1    0    0  501    0  0.00000000000E+00  0.00000000000E+00  0.29337086738E+03  0.29337086738E+03  0.00000000000E+00 0. -1.
         -1   -1    0    0    0  501 -0.00000000000E+00 -0.00000000000E+00 -0.86606381893E+02  0.86606381893E+02  0.00000000000E+00 0.  1.
         23    2    1    2    0    0  0.10739335699E+02 -0.10129331542E+03  0.43712310576E+02  0.16713639011E+03  0.12509251666E+03 0.  0.
          5    1    3    3  502    0 -0.67506335543E+01  0.18009678461E+02 -0.22189204802E+02  0.29660626787E+02  0.41800000000E+01 0.  1.
         -5    1    3    3    0  502  0.17489969253E+02 -0.11930299388E+03  0.65901515378E+02  0.13747576332E+03  0.41800000000E+01 0.  1.
        -11    1    1    2    0    0  0.26315901993E+02  0.95793363486E+02  0.11829695456E+03  0.15447674467E+03  0.00000000000E+00 0. -1.
         11    1    1    2    0    0 -0.37055237692E+02  0.54999519302E+01  0.44755220353E+02  0.58364114493E+02  0.00000000000E+00 0.  1.
</event>
<event>
 7    1  0.6473813E-006  0.1167864E+03  0.7561462E-02  0.1248495E+00
         -1   -1    0    0    0  501 -0.00000000000E+00  0.00000000000E+00  0.29068052617E+02  0.29068052617E+02  0.00000000000E+00 0.  1.
          1   -1    0    0  501    0  0.00000000000E+00 -0.00000000000E+00 -0.51323822718E+03  0.51323822718E+03  0.00000000000E+00 0. -1.
         23    2    1    2    0    0  0.46890770905E+02  0.52476848826E+02 -0.28216423849E+03  0.31187433071E+03  0.11267819937E+03 0.  0.
          5    1    3    3  502    0 -0.23528784922E+02  0.52848869735E+02 -0.16738815901E+03  0.17715212369E+03  0.41800000000E+01 0. -1.
         -5    1    3    3    0  502  0.70419555827E+02 -0.37202090915E+00 -0.11477607948E+03  0.13472220701E+03  0.41800000000E+01 0.  1.
        -11    1    1    2    0    0  0.21259218784E+02 -0.21268706488E+02 -0.96021486936E+02  0.10062026740E+03  0.00000000000E+00 0.  1.
         11    1    1    2    0    0 -0.68149989689E+02 -0.31208142338E+02 -0.10598444914E+03  0.12981168169E+03  0.00000000000E+00 0. -1.
</event>
<event>
 7    1  0.6473813E-006  0.8932827E+02  0.7561462E-02  0.1304487E+00
         -1   -1    0    0    0  501 -0.00000000000E+00  0.00000000000E+00  0.21512917214E+03  0.21512917214E+03  0.00000000000E+00 0.  1.
          1   -1    0    0  501    0  0.00000000000E+00 -0.00000000000E+00 -0.52974822849E+02  0.52974822849E+02  0.00000000000E+00 0. -1.
         23    2    1    2    0    0  0.51971138390E+01 -0.94055478779E+01  0.85824620552E+02  0.15207524985E+03  0.12508214021E+03 0.  0.
          5    1    3    3  502    0 -0.17408268565E+02 -0.47906607299E+02 -0.43899490022E+01  0.51330642793E+02  0.41800000000E+01 0.  1.
         -5    1    3    3    0  502  0.22605382404E+02  0.38501059421E+02  0.90214569554E+02  0.10074460705E+03  0.41800000000E+01 0.  1.
        -11    1    1    2    0    0 -0.43621941392E+02  0.69134717214E+01  0.21744844884E+02  0.49229139146E+02  0.00000000000E+00 0. -1.
         11    1    1    2    0    0  0.38424827553E+02  0.24920761564E+01  0.54584883856E+02  0.66799605998E+02  0.00000000000E+00 0.  1.
</event>
<event>
 7    1  0.6473813E-006  0.1734716E+03  0.7561462E-02  0.1174275E+00
          1   -1    0    0  501    0  0.00000000000E+00  0.00000000000E+00  0.65631540022E+03  0.65631540022E+03  0.00000000000E+00 0. -1.
         -1   -1    0    0    0  501 -0.00000000000E+00 -0.00000000000E+00 -0.50732953130E+02  0.50732953130E+02  0.00000000000E+00 0.  1.
         23    2    1    2    0    0  0.11887458778E+03 -0.84390216540E+02  0.29584663841E+03  0.35269862691E+03  0.12497284385E+03 0.  0.
          5    1    3    3  502    0  0.10068756943E+03  0.48076390410E+01  0.15502794674E+03  0.18496550138E+03  0.41800000000E+01 0.  1.
         -5    1    3    3    0  502  0.18187018345E+02 -0.89197855581E+02  0.14081869167E+03  0.16773312553E+03  0.41800000000E+01 0.  1.
        -11    1    1    2    0    0 -0.80301906678E+02  0.24991057202E+02  0.24259324808E+03  0.25675753771E+03  0.00000000000E+00 0. -1.
         11    1    1    2    0    0 -0.38572681098E+02  0.59399159338E+02  0.67142560602E+02  0.97592188731E+02  0.00000000000E+00 0.  1.
</event>
<event>
 7    1  0.6473813E-006  0.1221731E+03  0.7561462E-02  0.1239555E+00
          1   -1    0    0  501    0  0.00000000000E+00  0.00000000000E+00  0.81080632346E+02  0.81080632346E+02  0.00000000000E+00 0. -1.
         -1   -1    0    0    0  501 -0.00000000000E+00 -0.00000000000E+00 -0.24489649696E+03  0.24489649696E+03  0.00000000000E+00 0.  1.
         23    2    1    2    0    0  0.73767149572E+01 -0.89726661743E+02 -0.10408091003E+03  0.18597238401E+03  0.12509037545E+03 0.  0.
          5    1    3    3  502    0 -0.42464106133E+02 -0.68029498425E+02 -0.10407326968E+03  0.13145315070E+03  0.41800000000E+01 0. -1.
         -5    1    3    3    0  502  0.49840821090E+02 -0.21697163318E+02 -0.76403479385E-02  0.54519233316E+02  0.41800000000E+01 0. -1.
        -11    1    1    2    0    0 -0.10117084758E+02 -0.72886839147E+01  0.13531837004E+02  0.18400840467E+02  0.00000000000E+00 0. -1.
         11    1    1    2    0    0  0.27403698010E+01  0.97015345658E+02 -0.73266791591E+02  0.12160390483E+03  0.00000000000E+00 0.  1.
</event>
<event>
 7    1  0.6473813E-006  0.1890666E+03  0.7561462E-02  0.1159306E+00
         -1   -1    0    0    0  501 -0.00000000000E+00  0.00000000000E+00  0.26001186932E+02  0.26001186932E+02  0.00000000000E+00 0.  1.
          1   -1    0    0  501    0  0.00000000000E+00 -0.00000000000E+00 -0.16661326641E+04  0.16661326641E+04  0.00000000000E+00 0. -1.
         23    2    1    2    0    0 -0.14117368480E+03  0.10834734882E+03 -0.92327557894E+03  0.94855395734E+03  0.12509059932E+03 0.  0.
          5    1    3    3  502    0 -0.33204152620E+02  0.75472870185E+02 -0.60960084629E+03  0.61516610284E+03  0.41800000000E+01 0. -1.
         -5    1    3    3    0  502 -0.10796953218E+03  0.32874478631E+02 -0.31367473265E+03  0.33338785450E+03  0.41800000000E+01 0. -1.
        -11    1    1    2    0    0  0.90874358361E+02 -0.44021050154E+02 -0.24974858528E+03  0.26938885967E+03  0.00000000000E+00 0. -1.
         11    1    1    2    0    0  0.50299326435E+02 -0.64326298662E+02 -0.46710731290E+03  0.47419103398E+03  0.00000000000E+00 0.  1.
</event>
<event>
 7    1  0.6473813E-006  0.9021922E+02  0.7561462E-02  0.1302322E+00
         -3   -1    0    0    0  501 -0.00000000000E+00  0.00000000000E+00  0.24432816904E+03  0.24432816904E+03  0.00000000000E+00 0.  1.
          3   -1    0    0  501    0  0.00000000000E+00 -0.00000000000E+00 -0.60653361831E+02  0.60653361831E+02  0.00000000000E+00 0. -1.
         23    2    1    2    0    0 -0.13141611587E+02  0.54359610230E+02  0.14258362416E+03  0.19775440341E+03  0.12509614307E+03 0.  0.
          5    1    3    3  502    0 -0.20092690666E+02  0.66923581950E+02  0.18000675335E+02  0.72277097007E+02  0.41800000000E+01 0.  1.
         -5    1    3    3    0  502  0.69510790788E+01 -0.12563971720E+02  0.12458294882E+03  0.12547730641E+03  0.41800000000E+01 0.  1.
        -11    1    1    2    0    0  0.40557619392E+02 -0.54663602693E+02  0.41660214419E+02  0.79803530095E+02  0.00000000000E+00 0.  1.
         11    1    1    2    0    0 -0.27416007806E+02  0.30399246327E+00 -0.56903137068E+00  0.27423597359E+02  0.00000000000E+00 0. -1.
</event>
<event>
 7    1  0.6473813E-006  0.1367134E+03  0.7561462E-02  0.1217821E+00
          2   -1    0    0  501    0  0.00000000000E+00  0.00000000000E+00  0.11818489261E+03  0.11818489261E+03  0.00000000000E+00 0. -1.
         -2   -1    0    0    0  501 -0.00000000000E+00 -0.00000000000E+00 -0.21516817537E+03  0.21516817537E+03  0.00000000000E+00 0.  1.
         23    2    1    2    0    0 -0.35784661403E+02  0.10657910258E+03 -0.83432150273E+02  0.18774929000E+03  0.12509686285E+03 0.  0.
          5    1    3    3  502    0  0.38255684557E+02  0.15613291800E+02  0.35282728140E+01  0.41679651999E+02  0.41800000000E+01 0.  1.
         -5    1    3    3    0  502 -0.74040345960E+02  0.90965810781E+02 -0.86960423087E+02  0.14606963800E+03  0.41800000000E+01 0.  1.
        -11    1    1    2    0    0  0.37701742748E+02 -0.86457308655E+02 -0.47871749911E+02  0.10577330507E+03  0.00000000000E+00 0.  1.
         11    1    1    2    0    0 -0.19170813452E+01 -0.20121793926E+02  0.34320617430E+02  0.39830472913E+02  0.00000000000E+00 0. -1.
</event>
<event>
 7    1  0.6473813E-006  0.3217990E+03  0.7561462E-02  0.1074824E+00
          1   -1    0    0  501    0  0.00000000000E+00  0.00000000000E+00  0.84827360146E+02  0.84827360146E+02  0.00000000000E+00 0.  1.
         -1   -1    0    0    0  501 -0.00000000000E+00 -0.00000000000E+00 -0.13733320526E+04  0.13733320526E+04  0.00000000000E+00 0. -1.
         23    2    1    2    0    0 -0.28076246667E+03  0.12154175552E+03 -0.87781367520E+03  0.93797911703E+03  0.12509202444E+03 0.  0.
          5    1    3    3  502    0 -0.29246993040E+03  0.12088195137E+03 -0.85869937822E+03  0.91516840030E+03  0.41800000000E+01 0. -1.
         -5    1    3    3    0  502  0.11707463726E+02  0.65980414876E+00 -0.19114296987E+02  0.22810716730E+02  0.41800000000E+01 0. -1.
        -11    1    1    2    0    0  0.24742573552E+02  0.10158457904E+02 -0.65069285756E+02  0.70351980510E+02  0.00000000000E+00 0. -1.
         11    1    1    2    0    0  0.25601989312E+03 -0.13170021342E+03 -0.34562173152E+03  0.44982831523E+03  0.00000000000E+00 0.  1.
</event>
<event>
 6    1  0.6473813E-006  0.9802840E+02  0.7561462E-02  0.1284497E+00
          2   -1    0    0  501    0  0.00000000000E+00  0.00000000000E+00  0.47761178177E+02  0.47761178177E+02  0.00000000000E+00 0. -1.
         -2   -1    0    0    0  501 -0.00000000000E+00 -0.00000000000E+00 -0.33737449377E+03  0.33737449377E+03  0.00000000000E+00 0.  1.
          5    1    1    2  502    0  0.48432818555E+02 -0.23304016717E+01 -0.50943029420E+02  0.70454477016E+02  0.41800000000E+01 0. -1.
         -5    1    1    2    0  502 -0.83131514148E+02 -0.87320905314E+01 -0.16317431936E+03  0.18338601078E+03  0.41800000000E+01 0.  1.
        -11    1    1    2    0    0 -0.13820043543E+02  0.54368092928E+01 -0.80809872276E+02  0.82163178834E+02  0.00000000000E+00 0.  1.
         11    1    1    2    0    0  0.48518739137E+02  0.56256829102E+01  0.53139054626E+01  0.49132005321E+02  0.00000000000E+00 0. -1.
</event>
<event>
 6    1  0.6473813E-006  0.1332438E+03  0.7561462E-02  0.1222720E+00
         -2   -1    0    0    0  501 -0.00000000000E+00  0.00000000000E+00  0.25441738876E+02  0.25441738876E+02  0.00000000000E+00 0.  1.
          2   -1    0    0  501    0  0.00000000000E+00 -0.00000000000E+00 -0.91550034658E+03  0.91550034658E+03  0.00000000000E+00 0. -1.
          5    1    1    2  502    0  0.90168490621E+02 -0.32876909539E+02 -0.54736540521E+03  0.55573159628E+03  0.41800000000E+01 0. -1.
         -5    1    1    2    0  502 -0.66017812361E+02  0.42114146729E+02 -0.12324093380E+03  0.14607447781E+03  0.41800000000E+01 0.  1.
        -11    1    1    2    0    0 -0.54435845257E+02  0.11056395062E+02 -0.16030757044E+03  0.16965854609E+03  0.00000000000E+00 0.  1.
         11    1    1    2    0    0  0.30285166997E+02 -0.20293632253E+02 -0.59144698252E+02  0.69477465277E+02  0.00000000000E+00 0. -1.
</event>
<event>
 7    1  0.6473813E-006  0.6132390E+02  0.7561462E-02  0.1392358E+00
         -4   -1    0    0    0  501 -0.00000000000E+00  0.00000000000E+00  0.25566182599E+03  0.25566182599E+03  0.00000000000E+00 0.  1.
          4   -1    0    0  501    0  0.00000000000E+00 -0.00000000000E+00 -0.47249385198E+02  0.47249385198E+02  0.00000000000E+00 0. -1.
         23    2    1    2    0    0 -0.14583983200E+02  0.24913257852E+01  0.14369569547E+03  0.19109274574E+03  0.12509630414E+03 0.  0.
          5    1    3    3  502    0 -0.14316627253E+02 -0.10626742865E+02 -0.19827556392E+02  0.26990699737E+02  0.41800000000E+01 0. -1.
         -5    1    3    3    0  502 -0.26735594653E+00  0.13118068650E+02  0.16352325186E+03  0.16410204600E+03  0.41800000000E+01 0. -1.
        -11    1    1    2    0    0  0.52539553451E+02 -0.20585323443E+00  0.43915042759E+02  0.68476112864E+02  0.00000000000E+00 0.  1.
         11    1    1    2    0    0 -0.37955570251E+02 -0.22854725508E+01  0.20801702566E+02  0.43342352583E+02  0.00000000000E+00 0. -1.
</event>
<event>
 6    1  0.6473813E-006  0.1785000E+03  0.7561462E-02  0.1169263E+00
          2   -1    0    0  501    0  0.00000000000E+00  0.00000000000E+00  0.78080876131E+03  0.78080876131E+03  0.00000000000E+00 0. -1.
         -2   -1    0    0    0  501 -0.00000000000E+00 -0.00000000000E+00 -0.75122497363E+02  0.75122497363E+02  0.00000000000E+00 0.  1.
          5    1    1    2  502    0 -0.55248620940E+02  0.75764410726E+02  0.36606110107E+03  0.37790323916E+03  0.41800000000E+01 0. -1.
         -5    1    1    2    0  502  0.33345029180E+02 -0.14439784481E+03  0.35717624226E+02  0.15249868733E+03  0.41800000000E+01 0.  1.
        -11    1    1    2    0    0 -0.34853072202E+02  0.32096753962E+02  0.98253431843E+02  0.10908104843E+03  0.00000000000E+00 0.  1.
         11    1    1    2    0    0  0.56756663961E+02  0.36536680119E+02  0.20565410681E+03  0.21644828377E+03  0.00000000000E+00 0. -1.
</event>
<event>
 7    1  0.6473813E-006  0.1224846E+03  0.7561462E-02  0.1239054E+00
          1   -1    0    0  501    0  0.00000000000E+00  0.00000000000E+00  0.60334754785E+03  0.60334754785E+03  0.00000000000E+00 0. -1.
         -1   -1    0    0    0  501 -0.00000000000E+00 -0.00000000000E+00 -0.30512961016E+02  0.30512961016E+02  0.00000000000E+00 0.  1.
         23    2    1    2    0    0 -0.34608597136E+02  0.45621393949E+02  0.18157618679E+03  0.22780659702E+03  0.12508743925E+03 0.  0.
          5    1    3    3  502    0 -0.97759202189E+01  0.87197195585E+02  0.13037933835E+03  0.15721057154E+03  0.41800000000E+01 0. -1.
         -5    1    3    3    0  502 -0.24832676917E+02 -0.41575801636E+02  0.51196848434E+02  0.70596025484E+02  0.41800000000E+01 0. -1.
        -11    1    1    2    0    0  0.37827708508E+02  0.20019856676E+02  0.16261223371E+03  0.16815013751E+03  0.00000000000E+00 0. -1.
         11    1    1    2    0    0 -0.32191113727E+01 -0.65641250626E+02  0.22864616634E+03  0.23790377433E+03  0.00000000000E+00 0.  1.
</event>
<event>
 7    1  0.6473813E-006  0.1131105E+03  0.7561462E-02  0.1254916E+00
         -1   -1    0    0    0  501 -0.00000000000E+00  0.00000000000E+00  0.62306885419E+02  0.62306885419E+02  0.00000000000E+00 0.  1.
          1   -1    0    0  501    0  0.00000000000E+00 -0.00000000000E+00 -0.24672028991E+03  0.24672028991E+03  0.00000000000E+00 0. -1.
         23    2    1    2    0    0 -0.38851562339E+02  0.58776883093E-01 -0.46458395069E+02  0.13897893010E+03  0.12508922091E+03 0.  0.
          5    1    3    3  502    0 -0.49853806281E+02  0.55231670156E+02 -0.28308582371E+02  0.79716921822E+02  0.41800000000E+01 0. -1.
         -5    1    3    3    0  502  0.11002243941E+02 -0.55172893273E+02 -0.18149812698E+02  0.59262008275E+02  0.41800000000E+01 0. -1.
        -11    1    1    2    0    0 -0.48227778465E+01 -0.37469716818E+02 -0.32071828983E+02  0.49556443364E+02  0.00000000000E+00 0.  1.
         11    1    1    2    0    0  0.43674340186E+02  0.37410939934E+02 -0.10588318044E+03  0.12049180187E+03  0.00000000000E+00 0. -1.
</event>
<event>
 7    1  0.6473813E-006  0.1028020E+03  0.7561462E-02  0.1274512E+00
          1   -1    0    0  501    0  0.00000000000E+00  0.00000000000E+00  0.47256878810E+03  0.47256878810E+03  0.00000000000E+00 0. -1.
         -1   -1    0    0    0  501 -0.00000000000E+00 -0.00000000000E+00 -0.35432431956E+02  0.35432431956E+02  0.00000000000E+00 0.  1.
         23    2    1    2    0    0 -0.15039716679E+02  0.63605666306E+01  0.10880590163E+03  0.16659166398E+03  0.12508960146E+03 0.  0.
          5    1    3    3  502    0 -0.67320209946E+02  0.14336302556E+02  0.82042517023E+02  0.10717269819E+03  0.41800000000E+01 0.  1.
         -5    1    3    3    0  502  0.52280493267E+02 -0.79757359255E+01  0.26763384603E+02  0.59418965787E+02  0.41800000000E+01 0.  1.
        -11    1    1    2    0    0 -0.34122995070E+02 -0.42800601276E+01  0.65161469028E+02  0.73679812385E+02  0.00000000000E+00 0.  1.
         11    1    1    2    0    0  0.49162711749E+02 -0.20805065030E+01  0.26316898549E+03  0.26772974370E+03  0.00000000000E+00 0. -1.
</event>
<event>
 7    1  0.6473813E-006  0.1948724E+03  0.7561462E-02  0.1154139E+00
          3   -1    0    0  501    0  0.00000000000E+00  0.00000000000E+00  0.14498065724E+03  0.14498065724E+03  0.00000000000E+00 0. -1.
         -3   -1    0    0    0  501 -0.00000000000E+00 -0.00000000000E+00 -0.28125243265E+03  0.28125243265E+03  0.00000000000E+00 0.  1.
         23    2    1    2    0    0 -0.15103053555E+03  0.75795938699E+02 -0.86794882095E+02  0.22745370486E+03  0.12508632742E+03 0.  0.
          5    1    3    3  502    0  0.92352951357E+01  0.45222304710E+02 -0.26996615095E+02  0.53634290768E+02  0.41800000000E+01 0. -1.
         -5    1    3    3    0  502 -0.16026583069E+03  0.30573633988E+02 -0.59798267000E+02  0.17381941410E+03  0.41800000000E+01 0. -1.
        -11    1    1    2    0    0  0.10038393770E+03 -0.81393516800E+02 -0.66129702474E+02  0.14517223245E+03  0.00000000000E+00 0.  1.
         11    1    1    2    0    0  0.50646597850E+02  0.55975781013E+01  0.16652809158E+02  0.53607152576E+02  0.00000000000E+00 0. -1.
</event>
<event>
 7    1  0.6473813E-006  0.7923843E+02  0.7561462E-02  0.1331227E+00
          2   -1    0    0  501    0  0.00000000000E+00  0.00000000000E+00  0.33163932112E+02  0.33163932112E+02  0.00000000000E+00 0. -1.
         -2   -1    0    0    0  501 -0.00000000000E+00 -0.00000000000E+00 -0.51343493999E+03  0.51343493999E+03  0.00000000000E+00 0.  1.
         23    2    1    2    0    0 -0.34003808962E+02  0.44942907411E+01 -0.39891083119E+03  0.41946821893E+03  0.12508907939E+03 0.  0.
          5    1    3    3  502    0  0.34790081597E+02  0.25052465654E+02 -0.65543525353E+02  0.78430873567E+02  0.41800000000E+01 0.  1.
         -5    1    3    3    0  502 -0.68793890558E+02 -0.20558174913E+02 -0.33336730583E+03  0.34103734536E+03  0.41800000000E+01 0.  1.
        -11    1    1    2    0    0  0.68658549678E+01  0.10447000637E+02  0.18638841270E+02  0.22442954142E+02  0.00000000000E+00 0. -1.
         11    1    1    2    0    0  0.27137953994E+02 -0.14941291378E+02 -0.99999017965E+02  0.10468769903E+03  0.00000000000E+00 0.  1.
</event>
<event>
 6    1  0.6473813E-006  0.8157045E+02  0.7561462E-02  0.1324653E+00
         -2   -1    0    0    0  501 -0.00000000000E+00  0.00000000000E+00  0.48347125182E+02  0.48347125182E+02  0.00000000000E+00 0.  1.
          2   -1    0    0  501    0  0.00000000000E+00 -0.00000000000E+00 -0.15332016721E+03  0.15332016721E+03  0.00000000000E+00 0. -1.
          5    1    1    2  502    0  0.25496351031E+02  0.62317488081E+02 -0.26127866430E+02  0.72344115454E+02  0.41800000000E+01 0. -1.
         -5    1    1    2    0  502 -0.16368213746E+01 -0.64482898422E+02 -0.67369950927E+02  0.93364372547E+02  0.41800000000E+01 0.  1.
        -11    1    1    2    0    0 -0.17759097070E+02 -0.77679988271E+01  0.30472514901E+00  0.19386082429E+02  0.00000000000E+00 0.  1.
         11    1    1    2    0    0 -0.61004325860E+01  0.99334091681E+01 -0.11779949819E+02  0.16572721960E+02  0.00000000000E+00 0. -1.
</event>
<event>
 7    1  0.6473813E-006  0.1172661E+03  0.7561462E-02  0.1247676E+00
          3   -1    0    0  501    0  0.00000000000E+00  0.00000000000E+00  0.15655987761E+03  0.15655987761E+03  0.00000000000E+00 0. -1.
         -3   -1    0    0    0  501 -0.00000000000E+00 -0.00000000000E+00 -0.12805305187E+03  0.12805305187E+03  0.00000000000E+00 0.  1.
         23    2    1    2    0    0 -0.43669488859E+02  0.20776654454E+02 -0.60876092301E+02  0.14727210727E+03  0.12507790108E+03 0.  0.
          5    1    3    3  502    0  0.35053759691E+02  0.36097550185E+02 -0.39669838079E+02  0.64210339129E+02  0.41800000000E+01 0.  1.
         -5    1    3    3    0  502 -0.78723248550E+02 -0.15320895731E+02 -0.21206254222E+02  0.83061768139E+02  0.41800000000E+01 0.  1.
        -11    1    1    2    0    0 -0.17079000198E+02 -0.37088920554E+02  0.42115174966E+02  0.58659766775E+02  0.00000000000E+00 0.  1.
         11    1    1    2    0    0  0.60748489057E+02  0.16312266101E+02  0.47267743075E+02  0.78681055429E+02  0.00000000000E+00 0. -1.
</event>
<event>
 7    1  0.6473813E-006  0.1334462E+03  0.7561462E-02  0.1222430E+00
          2   -1    0    0  501    0  0.00000000000E+00  0.00000000000E+00  0.14384978838E+03  0.14384978838E+03  0.00000000000E+00 0. -1.
         -2   -1    0    0    0  501 -0.00000000000E+00 -0.00000000000E+00 -0.13401367380E+03  0.13401367380E+03  0.00000000000E+00 0.  1.
         23    2    1    2    0    0 -0.55685356738E+02  0.63197124742E+02 -0.95203360662E+01  0.15110601663E+03  0.12509059091E+03 0.  0.
          5    1    3    3  502    0  0.28166073738E+02 -0.14183705506E+02 -0.18112289275E+02  0.36606456186E+02  0.41800000000E+01 0.  1.
         -5    1    3    3    0  502 -0.83851430476E+02  0.77380830248E+02  0.85919532086E+01  0.11449956045E+03  0.41800000000E+01 0.  1.
        -11    1    1    2    0    0 -0.70332979281E+01 -0.57498592974E+02  0.25876049532E+02  0.63443876088E+02  0.00000000000E+00 0.  1.
         11    1    1    2    0    0  0.62718654666E+02 -0.56985317685E+01 -0.65195988883E+01  0.63313569455E+02  0.00000000000E+00 0. -1.
</event>
<event>
 7    1  0.6473813E-006  0.1056896E+03  0.7561462E-02  0.1268767E+00
          1   -1    0    0  501    0  0.00000000000E+00  0.00000000000E+00  0.38276769103E+03  0.38276769103E+03  0.00000000000E+00 0. -1.
         -1   -1    0    0    0  501 -0.00000000000E+00 -0.00000000000E+00 -0.34996664353E+02  0.34996664353E+02  0.00000000000E+00 0.  1.
         23    2    1    2    0    0  0.62420145533E+00 -0.28391982936E+02  0.16318733403E+03  0.20755585680E+03  0.12507131317E+03 0.  0.
          5    1    3    3  502    0  0.27596896326E+01 -0.72376543217E+02  0.13983688399E+03  0.15753668277E+03  0.41800000000E+01 0.  1.
         -5    1    3    3    0  502 -0.21354881773E+01  0.43984560280E+02  0.23350450043E+02  0.50019174024E+02  0.41800000000E+01 0.  1.
        -11    1    1    2    0    0  0.64144329808E+01  0.60949224704E+02  0.15074200528E+03  0.16272401512E+03  0.00000000000E+00 0. -1.
         11    1    1    2    0    0 -0.70386344362E+01 -0.32557241767E+02  0.33841687367E+02  0.47484483466E+02  0.00000000000E+00 0.  1.
</event>
<event>
 7    1  0.6473813E-006  0.1061021E+03  0.7561462E-02  0.1267963E+00
          1   -1    0    0  501    0  0.00000000000E+00  0.00000000000E+00  0.52098084201E+02  0.52098084201E+02  0.00000000000E+00 0. -1.
         -1   -1    0    0    0  501 -0.00000000000E+00 -0.00000000000E+00 -0.36264219426E+03  0.36264219426E+03  0.00000000000E+00 0.  1.
         23    2    1    2    0    0  0.18699513729E+02  0.48930800439E+02 -0.23924226704E+03  0.27500340917E+03  0.12508444217E+03 0.  0.
          5    1    3    3  502    0 -0.52461552415E+02  0.81530054228E+01 -0.86360159824E+02  0.10146051244E+03  0.41800000000E+01 0. -1.
         -5    1    3    3    0  502  0.71161066144E+02  0.40777795016E+02 -0.15288210722E+03  0.17354289674E+03  0.41800000000E+01 0. -1.
        -11    1    1    2    0    0 -0.12214173652E+02  0.11064604285E+02 -0.77353135424E+02  0.79089310693E+02  0.00000000000E+00 0.  1.
         11    1    1    2    0    0 -0.64853400774E+01 -0.59995404724E+02  0.60512924024E+01  0.60647558596E+02  0.00000000000E+00 0. -1.
</event>
<event>
 7    1  0.6473813E-006  0.1757761E+03  0.7561462E-02  0.1171955E+00
          1   -1    0    0  501    0  0.00000000000E+00  0.00000000000E+00  0.76170340399E+03  0.76170340399E+03  0.00000000000E+00 0. -1.
         -1   -1    0    0    0  501 -0.00000000000E+00 -0.00000000000E+00 -0.50064937051E+02  0.50064937051E+02  0.00000000000E+00 0.  1.
         23    2    1    2    0    0 -0.14670001004E+03 -0.37455657490E+02  0.25460663258E+03  0.32155260131E+03  0.12509084232E+03 0.  0.
          5    1    3    3  502    0 -0.16545216137E+03 -0.14399599823E+02  0.20952131775E+03  0.26739188688E+03  0.41800000000E+01 0. -1.
         -5    1    3    3    0  502  0.18752151327E+02 -0.23056057666E+02  0.45085314833E+02  0.54160714435E+02  0.41800000000E+01 0. -1.
        -11    1    1    2    0    0  0.76393758217E+02  0.37506207373E+02  0.12768054419E+03  0.15344394172E+03  0.00000000000E+00 0.  1.
         11    1    1    2    0    0  0.70306251822E+02 -0.50549883566E-01  0.32935129017E+03  0.33677179801E+03  0.00000000000E+00 0. -1.
</event>
<event>
 7    1  0.6473813E-006  0.1261659E+03  0.7561462E-02  0.1233258E+00
         -2   -1    0    0    0  501 -0.00000000000E+00  0.00000000000E+00  0.24335712672E+02  0.24335712672E+02  0.00000000000E+00 0. -1.
          2   -1    0    0  501    0  0.00000000000E+00 -0.00000000000E+00 -0.72479589536E+03  0.72479589536E+03  0.00000000000E+00 0.  1.
         23    2    1    2    0    0 -0.59521637682E+02  0.47048089389E+02 -0.36735255150E+03  0.39541328323E+03  0.12508964543E+03 0.  0.
          5    1    3    3  502    0  0.31693938448E+02  0.22538270643E+02 -0.45697883780E+02  0.60151877443E+02  0.41800000000E+01 0. -1.
         -5    1    3    3    0  502 -0.91215576130E+02  0.24509818746E+02 -0.32165466772E+03  0.33526140578E+03  0.41800000000E+01 0. -1.
        -11    1    1    2    0    0  0.13921863064E+02 -0.67339051014E+02 -0.18037826915E+03  0.19304063314E+03  0.00000000000E+00 0. -1.
         11    1    1    2    0    0  0.45599774617E+02  0.20290961625E+02 -0.15272936204E+03  0.16067769167E+03  0.00000000000E+00 0.  1.
</event>
<event>
 7    1  0.6473813E-006  0.2156632E+03  0.7561462E-02  0.1137158E+00
          2   -1    0    0  501    0  0.00000000000E+00  0.00000000000E+00  0.51920571245E+03  0.51920571245E+03  0.00000000000E+00 0. -1.
         -2   -1    0    0    0  501 -0.00000000000E+00 -0.00000000000E+00 -0.10620656116E+03  0.10620656116E+03  0.00000000000E+00 0.  1.
         23    2    1    2    0    0 -0.30853900320E+02 -0.20100501535E+03  0.15049192455E+03  0.28222210046E+03  0.12508603148E+03 0.  0.
          5    1    3    3  502    0  0.13789420764E+02  0.29478001886E+01  0.46828990993E+02  0.49084258662E+02  0.41800000000E+01 0.  1.
         -5    1    3    3    0  502 -0.44643321084E+02 -0.20395281554E+03  0.10366293356E+03  0.23313784180E+03  0.41800000000E+01 0.  1.
        -11    1    1    2    0    0  0.36210320767E+02  0.95185053472E+02  0.18750134958E+03  0.21337323597E+03  0.00000000000E+00 0. -1.
         11    1    1    2    0    0 -0.53564204463E+01  0.10581996188E+03  0.75005877158E+02  0.12981693719E+03  0.00000000000E+00 0.  1.
</event>
<event>
 7    1  0.6473813E-006  0.1003946E+03  0.7561462E-02  0.1279468E+00
         -1   -1    0    0    0  501 -0.00000000000E+00  0.00000000000E+00  0.29956665792E+03  0.29956665792E+03  0.00000000000E+00 0.  1.
          1   -1    0    0  501    0  0.00000000000E+00 -0.00000000000E+00 -0.52279268707E+02  0.52279268707E+02  0.00000000000E+00 0. -1.
         23    2    1    2    0    0  0.60905967979E+02  0.42356093635E+01  0.14646838354E+03  0.20205961086E+03  0.12509045384E+03 0.  0.
          5    1    3    3  502    0 -0.15936419301E+02  0.72290121761E+01  0.11890970074E+03  0.12026311741E+03  0.41800000000E+01 0.  1.
         -5    1    3    3    0  502  0.76842387280E+02 -0.29934028126E+01  0.27558682791E+02  0.81796493449E+02  0.41800000000E+01 0.  1.
        -11    1    1    2    0    0 -0.65221298386E+01  0.36977024214E+02  0.58436306328E+02  0.69459631403E+02  0.00000000000E+00 0.  1.
         11    1    1    2    0    0 -0.54383838141E+02 -0.41212633578E+02  0.42382699346E+02  0.80326684365E+02  0.00000000000E+00 0. -1.
</event>
<event>
 7    1  0.6473813E-006  0.1142320E+03  0.7561462E-02  0.1252928E+00
          4   -1    0    0  501    0  0.00000000000E+00  0.00000000000E+00  0.20098477715E+03  0.20098477715E+03  0.00000000000E+00 0. -1.
         -4   -1    0    0    0  501 -0.00000000000E+00 -0.00000000000E+00 -0.10876319463E+03  0.10876319463E+03  0.00000000000E+00 0.  1.
         23    2    1    2    0    0 -0.30709025513E+02  0.78447936311E+02 -0.12314532961E+02  0.14455872617E+03  0.11682660069E+03 0.  0.
          5    1    3    3  502    0 -0.32709471243E+02  0.95799788983E+01  0.43762605516E+02  0.55626644212E+02  0.41800000000E+01 0. -1.
         -5    1    3    3    0  502  0.20004457301E+01  0.68867957413E+02 -0.56077138477E+02  0.88932081957E+02  0.41800000000E+01 0.  1.
        -11    1    1    2    0    0 -0.17902854421E+02  0.12597599450E+02  0.64904928681E+01  0.22832831756E+02  0.00000000000E+00 0.  1.
         11    1    1    2    0    0  0.48611879933E+02 -0.91045535762E+02  0.98045622615E+02  0.14235641386E+03  0.00000000000E+00 0. -1.
</event>
<event>
 6    1  0.6473813E-006  0.1090307E+03  0.7561462E-02  0.1262376E+00
         -2   -1    0    0    0  501 -0.00000000000E+00  0.00000000000E+00  0.27142303945E+02  0.27142303945E+02  0.00000000000E+00 0.  1.
          2   -1    0    0  501    0  0.00000000000E+00 -0.00000000000E+00 -0.62761234847E+03  0.62761234847E+03  0.00000000000E+00 0. -1.
          5    1    1    2  502    0 -0.25061734145E+01  0.80495971788E+02 -0.27771584372E+03  0.28918755961E+03  0.41800000000E+01 0. -1.
         -5    1    1    2    0  502 -0.19075392445E+02 -0.33964685761E+02 -0.17279183706E+02  0.42819540695E+02  0.41800000000E+01 0.  1.
        -11    1    1    2    0    0 -0.22437266241E+02 -0.49267181399E+02 -0.22002474518E+03  0.22658679258E+03  0.00000000000E+00 0.  1.
         11    1    1    2    0    0  0.44018832100E+02  0.27358953715E+01 -0.85450271919E+02  0.96160759533E+02  0.00000000000E+00 0. -1.
</event>
<event>
 7    1  0.6473813E-006  0.1132497E+03  0.7561462E-02  0.1254668E+00
          1   -1    0    0  501    0  0.00000000000E+00  0.00000000000E+00  0.12569019120E+03  0.12569019120E+03  0.00000000000E+00 0. -1.
         -1   -1    0    0    0  501 -0.00000000000E+00 -0.00000000000E+00 -0.11433467773E+03  0.11433467773E+03  0.00000000000E+00 0.  1.
         23    2    1    2    0    0  0.35708413207E+02 -0.36264966422E+02  0.12270977958E+02  0.13560012149E+03  0.12508628016E+03 0.  0.
          5    1    3    3  502    0  0.24411212236E+02 -0.83085237564E+02  0.81041047171E+01  0.87075903079E+02  0.41800000000E+01 0. -1.
         -5    1    3    3    0  502  0.11297200971E+02  0.46820271142E+02  0.41668732406E+01  0.48524218409E+02  0.41800000000E+01 0. -1.
        -11    1    1    2    0    0 -0.42147913985E+02 -0.11156692939E+02  0.24734939735E+02  0.50127195157E+02  0.00000000000E+00 0. -1.
         11    1    1    2    0    0  0.64395007774E+01  0.47421659361E+02 -0.25650404224E+02  0.54297552281E+02  0.00000000000E+00 0.  1.
</event>
<event>
 7    1  0.6473813E-006  0.9221709E+02  0.7561462E-02  0.1297570E+00
          1   -1    0    0  501    0  0.00000000000E+00  0.00000000000E+00  0.84778116862E+02  0.84778116862E+02  0.00000000000E+00 0. -1.
         -1   -1    0    0    0  501 -0.00000000000E+00 -0.00000000000E+00 -0.23212722973E+03  0.23212722973E+03  0.00000000000E+00 0.  1.
         23    2    1    2    0    0 -0.47816330489E+02  0.54029748183E+02 -0.14008405622E+03  0.20119560721E+03  0.12510201598E+03 0.  0.
          5    1    3    3  502    0  0.13262572864E+02  0.39669553033E+02  0.57062842312E+01  0.42421732125E+02  0.41800000000E+01 0. -1.
         -5    1    3    3    0  502 -0.61078903353E+02  0.14360195150E+02 -0.14579034045E+03  0.15877387508E+03  0.41800000000E+01 0. -1.
        -11    1    1    2    0    0  0.23108310812E+02 -0.36400550978E+01 -0.43159268638E+02  0.49091409626E+02  0.00000000000E+00 0.  1.
         11    1    1    2    0    0  0.24708019676E+02 -0.50389693085E+02  0.35894211990E+02  0.66618329759E+02  0.00000000000E+00 0. -1.
</event>
<event>
 7    1  0.6473813E-006  0.1216829E+03  0.7561462E-02  0.1240346E+00
         -4   -1    0    0    0  501 -0.00000000000E+00  0.00000000000E+00  0.26440149020E+03  0.26440149020E+03  0.00000000000E+00 0.  1.
          4   -1    0    0  501    0  0.00000000000E+00 -0.00000000000E+00 -0.13005259425E+03  0.13005259425E+03  0.00000000000E+00 0. -1.
         23    2    1    2    0    0  0.57465486494E+02 -0.55274140176E+02  0.19801303897E+03  0.24740947325E+03  0.12507905956E+03 0.  0.
          5    1    3    3  502    0  0.55663197205E+02  0.29678735139E+02  0.81670025027E+02  0.10327964093E+03  0.41800000000E+01 0.  1.
         -5    1    3    3    0  502  0.18022892885E+01 -0.84952875315E+02  0.11634301394E+03  0.14412983232E+03  0.41800000000E+01 0.  1.
        -11    1    1    2    0    0  0.23335897901E+01  0.30099106809E+02  0.23588555808E+02  0.38312163044E+02  0.00000000000E+00 0.  1.
         11    1    1    2    0    0 -0.59799076284E+02  0.25175033368E+02 -0.87252698833E+02  0.10873244816E+03  0.00000000000E+00 0. -1.
</event>
<event>
 7    1  0.6473813E-006  0.9379620E+02  0.7561462E-02  0.1293911E+00
          1   -1    0    0  501    0  0.00000000000E+00  0.00000000000E+00  0.30389364314E+03  0.30389364314E+03  0.00000000000E+00 0. -1.
         -1   -1    0    0    0  501 -0.00000000000E+00 -0.00000000000E+00 -0.48395081847E+02  0.48395081847E+02  0.00000000000E+00 0.  1.
         23    2    1    2    0    0  0.53597885971E+01 -0.43692142810E+02  0.92923641536E+02  0.16192515612E+03  0.12508885782E+03 0.  0.
          5    1    3    3  502    0 -0.69086486115E+00 -0.81900564141E+02  0.28800498413E+02  0.86920197939E+02  0.41800000000E+01 0.  1.
         -5    1    3    3    0  502  0.60506534583E+01  0.38208421330E+02  0.64123143122E+02  0.75004958181E+02  0.41800000000E+01 0.  1.
        -11    1    1    2    0    0  0.27000043827E+01 -0.11032267024E+02 -0.60705076628E+01  0.12878354034E+02  0.00000000000E+00 0.  1.
         11    1    1    2    0    0 -0.80597929798E+01  0.54724409834E+02  0.16864542742E+03  0.17748521483E+03  0.00000000000E+00 0. -1.
</event>
<event>
 7    1  0.6473813E-006  0.1152793E+03  0.7561462E-02  0.1251094E+00
         -2   -1    0    0    0  501 -0.00000000000E+00  0.00000000000E+00  0.47100498115E+02  0.47100498115E+02  0.00000000000E+00 0.  1.
          2   -1    0    0  501    0  0.00000000000E+00 -0.00000000000E+00 -0.56614644104E+03  0.56614644104E+03  0.00000000000E+00 0. -1.
         23    2    1    2    0    0  0.33579266235E+02  0.18340009971E+02 -0.17074569768E+03  0.21509492839E+03  0.12509121415E+03 0.  0.
          5    1    3    3  502    0  0.20199685587E+02 -0.51029272394E+02 -0.46263297391E+02  0.71901175403E+02  0.41800000000E+01 0.  1.
         -5    1    3    3    0  502  0.13379580648E+02  0.69369282365E+02 -0.12448240029E+03  0.14319375299E+03  0.41800000000E+01 0.  1.
        -11    1    1    2    0    0 -0.65984069066E+02  0.28209424975E+01 -0.35303661022E+03  0.35916111042E+03  0.00000000000E+00 0. -1.
         11    1    1    2    0    0  0.32404802832E+02 -0.21160952468E+02  0.47363649723E+01  0.38990900337E+02  0.00000000000E+00 0.  1.
</event>
<event>
 7    1  0.6473813E-006  0.1698191E+03  0.7561462E-02  0.1178037E+00
         -1   -1    0    0    0  501 -0.00000000000E+00  0.00000000000E+00  0.19082133425E+03  0.19082133425E+03  0.00000000000E+00 0.  1.
          1   -1    0    0  501    0  0.00000000000E+00 -0.00000000000E+00 -0.19001523061E+03  0.19001523061E+03  0.00000000000E+00 0. -1.
         23    2    1    2    0    0 -0.29206625219E+00 -0.15070003475E+03  0.42445150368E+02  0.20039712633E+03  0.12508729622E+03 0.  0.
          5    1    3    3  502    0  0.37295864859E+02 -0.10321753877E+03 -0.21841652300E+02  0.11197933747E+03  0.41800000000E+01 0. -1.
         -5    1    3    3    0  502 -0.37587931111E+02 -0.47482495977E+02  0.64286802667E+02  0.88417788859E+02  0.41800000000E+01 0. -1.
        -11    1    1    2    0    0 -0.32766824679E+02  0.31669391101E+02 -0.33645715170E+02  0.56644940476E+02  0.00000000000E+00 0. -1.
         11    1    1    2    0    0  0.33058890931E+02  0.11903064365E+03 -0.79933315577E+01  0.12379449805E+03  0.00000000000E+00 0.  1.
</event>
<event>
 7    1  0.6473813E-006  0.2066120E+03  0.7561462E-02  0.1144277E+00
          2   -1    0    0  501    0  0.00000000000E+00  0.00000000000E+00  0.16287287494E+04  0.16287287494E+04  0.00000000000E+00 0. -1.
         -2   -1    0    0    0  501 -0.00000000000E+00 -0.00000000000E+00 -0.29631816715E+02  0.29631816715E+02  0.00000000000E+00 0.  1.
         23    2    1    2    0    0 -0.18798570849E+03  0.30161125459E+02  0.84518856056E+03  0.87535218201E+03  0.12509764012E+03 0.  0.
          5    1    3    3  502    0 -0.28775686413E+02 -0.38867266786E+02  0.11517964544E+03  0.12499011033E+03  0.41800000000E+01 0. -1.
         -5    1    3    3    0  502 -0.15921002208E+03  0.69028392245E+02  0.73000891511E+03  0.75036207168E+03  0.41800000000E+01 0. -1.
        -11    1    1    2    0    0  0.88314192323E+02 -0.58406637091E+01  0.18695589953E+03  0.20684781431E+03  0.00000000000E+00 0.  1.
         11    1    1    2    0    0  0.99671516171E+02 -0.24320461750E+02  0.56695247261E+03  0.57616056980E+03  0.00000000000E+00 0. -1.
</event>
<event>
 7    1  0.6473813E-006  0.1166409E+03  0.7561462E-02  0.1248744E+00
          1   -1    0    0  501    0  0.00000000000E+00  0.00000000000E+00  0.28073074141E+03  0.28073074141E+03  0.00000000000E+00 0. -1.
         -1   -1    0    0    0  501 -0.00000000000E+00 -0.00000000000E+00 -0.50728052060E+02  0.50728052060E+02  0.00000000000E+00 0.  1.
         23    2    1    2    0    0 -0.23839428375E+02  0.40923114125E+02  0.11031631119E+03  0.17337763093E+03  0.12508834788E+03 0.  0.
          5    1    3    3  502    0 -0.56972278350E+01  0.83376092251E+02  0.89624052066E+02  0.12261310808E+03  0.41800000000E+01 0.  1.
         -5    1    3    3    0  502 -0.18142200540E+02 -0.42452978125E+02  0.20692259127E+02  0.50764522847E+02  0.41800000000E+01 0.  1.
        -11    1    1    2    0    0  0.38827274744E+02  0.17751243858E+02  0.47975567621E+02  0.64220861183E+02  0.00000000000E+00 0.  1.
         11    1    1    2    0    0 -0.14987846369E+02 -0.58674357984E+02  0.71710810534E+02  0.93860301358E+02  0.00000000000E+00 0. -1.
</event>
<event>
 7    1  0.6473813E-006  0.1138369E+03  0.7561462E-02  0.1253625E+00
          1   -1    0    0  501    0  0.00000000000E+00  0.00000000000E+00  0.36169638983E+03  0.36169638983E+03  0.00000000000E+00 0. -1.
         -1   -1    0    0    0  501 -0.00000000000E+00 -0.00000000000E+00 -0.62651180995E+02  0.62651180995E+02  0.00000000000E+00 0.  1.
         23    2    1    2    0    0 -0.83416433043E+02  0.49026430481E+02  0.21729372421E+03  0.26874896495E+03  0.12509017305E+03 0.  0.
          5    1    3    3  502    0 -0.73175941569E+01 -0.18541868026E+02 -0.77007018381E+01  0.21774325775E+02  0.41800000000E+01 0. -1.
         -5    1    3    3    0  502 -0.76098838886E+02  0.67568298507E+02  0.22499442605E+03  0.24697463917E+03  0.41800000000E+01 0. -1.
        -11    1    1    2    0    0  0.40951088331E+02 -0.47838074773E+02  0.92385535455E+02  0.11180590411E+03  0.00000000000E+00 0. -1.
         11    1    1    2    0    0  0.42465344712E+02 -0.11883557077E+01 -0.10634050827E+02  0.43792701764E+02  0.00000000000E+00 0.  1.
</event>
<event>
 7    1  0.6473813E-006  0.9104107E+02  0.7561462E-02  0.1300350E+00
          2   -1    0    0  501    0  0.00000000000E+00  0.00000000000E+00  0.40213054079E+03  0.40213054079E+03  0.00000000000E+00 0.  1.
         -2   -1    0    0    0  501 -0.00000000000E+00 -0.00000000000E+00 -0.29654715715E+02  0.29654715715E+02  0.00000000000E+00 0. -1.
         23    2    1    2    0    0 -0.22034384954E+02 -0.52977063057E+01  0.19475447340E+03  0.23257347677E+03  0.12509011702E+03 0.  0.
          5    1    3    3  502    0 -0.15366175438E+02  0.42150029425E+02  0.17478024654E+03  0.18049474039E+03  0.41800000000E+01 0.  1.
         -5    1    3    3    0  502 -0.66682095150E+01 -0.47447735731E+02  0.19974226858E+02  0.52078736377E+02  0.41800000000E+01 0.  1.
        -11    1    1    2    0    0 -0.77775370663E+01 -0.36649909451E+02  0.60049813410E+02  0.70779135599E+02  0.00000000000E+00 0. -1.
         11    1    1    2    0    0  0.29811922020E+02  0.41947615756E+02  0.11767153827E+03  0.12843264414E+03  0.00000000000E+00 0.  1.
</event>
<event>
 7    1  0.6473813E-006  0.1178287E+03  0.7561462E-02  0.1246723E+00
          2   -1    0    0  501    0  0.00000000000E+00  0.00000000000E+00  0.49525390339E+03  0.49525390339E+03  0.00000000000E+00 0. -1.
         -2   -1    0    0    0  501 -0.00000000000E+00 -0.00000000000E+00 -0.40524619088E+02  0.40524619088E+02  0.00000000000E+00 0.  1.
         23    2    1    2    0    0 -0.18557761876E+02 -0.56074232116E+02  0.12001148639E+03  0.18313690416E+03  0.12509060223E+03 0.  0.
          5    1    3    3  502    0 -0.41788867241E+02  0.21041784922E+02  0.80799729580E+02  0.93461943261E+02  0.41800000000E+01 0. -1.
         -5    1    3    3    0  502  0.23231105364E+02 -0.77116017039E+02  0.39211756809E+02  0.89674960900E+02  0.41800000000E+01 0. -1.
        -11    1    1    2    0    0  0.16689335587E+02 -0.23288539868E+02  0.56927476586E+02  0.63730899899E+02  0.00000000000E+00 0.  1.
         11    1    1    2    0    0  0.18684262896E+01  0.79362771985E+02  0.27779032132E+03  0.28891071842E+03  0.00000000000E+00 0. -1.
</event>
<event>
 7    1  0.6473813E-006  0.1055526E+03  0.7561462E-02  0.1269035E+00
         -2   -1    0    0    0  501 -0.00000000000E+00  0.00000000000E+00  0.23942731822E+02  0.23942731822E+02  0.00000000000E+00 0.  1.
          2   -1    0    0  501    0  0.00000000000E+00 -0.00000000000E+00 -0.82166594364E+03  0.82166594364E+03  0.00000000000E+00 0. -1.
         23    2    1    2    0    0  0.41263322844E+02 -0.43912023761E+02 -0.32821010628E+03  0.35637057234E+03  0.12508870181E+03 0.  0.
          5    1    3    3  502    0 -0.22746324444E+01 -0.31677357745E+02 -0.30248000580E+03  0.30417142413E+03  0.41800000000E+01 0. -1.
         -5    1    3    3    0  502  0.43537955289E+02 -0.12234666016E+02 -0.25730100478E+02  0.52199148210E+02  0.41800000000E+01 0. -1.
        -11    1    1    2    0    0 -0.52134168886E+01  0.81446231967E+02 -0.22759022521E+03  0.24178084918E+03  0.00000000000E+00 0.  1.
         11    1    1    2    0    0 -0.36049905956E+02 -0.37534208207E+02 -0.24192288032E+03  0.24745725394E+03  0.00000000000E+00 0. -1.
</event>
<event>
 6    1  0.6473813E-006  0.1456751E+03  0.7561462E-02  0.1205890E+00
         -2   -1    0    0    0  501 -0.00000000000E+00  0.00000000000E+00  0.70120268317E+02  0.70120268317E+02  0.00000000000E+00 0.  1.
          2   -1    0    0  501    0  0.00000000000E+00 -0.00000000000E+00 -0.76978684136E+03  0.76978684136E+03  0.00000000000E+00 0. -1.
          5    1    1    2  502    0  0.23931872415E+02  0.17606748881E+02 -0.45710152800E+03  0.45808515740E+03  0.41800000000E+01 0. -1.
         -5    1    1    2    0  502 -0.10754899525E+03 -0.71684995771E+02 -0.34279536374E+02  0.13378372103E+03  0.41800000000E+01 0.  1.
        -11    1    1    2    0    0  0.27165123378E+02  0.68563152800E+02 -0.91521542919E+02  0.11753740965E+03  0.00000000000E+00 0.  1.
         11    1    1    2    0    0  0.56451999453E+02 -0.14484905910E+02 -0.11676396575E+03  0.13050082160E+03  0.00000000000E+00 0. -1.
</event>
<event>
 7    1  0.6473813E-006  0.1181748E+03  0.7561462E-02  0.1246139E+00
          2   -1    0    0  501    0  0.00000000000E+00  0.00000000000E+00  0.57598534788E+03  0.57598534788E+03  0.00000000000E+00 0.  1.
         -2   -1    0    0    0  501 -0.00000000000E+00 -0.00000000000E+00 -0.26006738642E+02  0.26006738642E+02  0.00000000000E+00 0. -1.
         23    2    1    2    0    0 -0.99716398703E+01 -0.53715061479E+02  0.27277567190E+03  0.30502296402E+03  0.12509076692E+03 0.  0.
          5    1    3    3  502    0 -0.61780353777E+02 -0.56388542292E+02  0.18296477106E+03  0.20122141949E+03  0.41800000000E+01 0.  1.
         -5    1    3    3    0  502  0.51808713907E+02  0.26734808129E+01  0.89810900839E+02  0.10380154452E+03  0.41800000000E+01 0.  1.
        -11    1    1    2    0    0  0.42798620155E+02  0.68610982975E+01  0.17020001760E+03  0.17563269214E+03  0.00000000000E+00 0.  1.
         11    1    1    2    0    0 -0.32826980285E+02  0.46853963181E+02  0.10700291974E+03  0.12133643036E+03  0.00000000000E+00 0. -1.
</event>
<event>
 7    1  0.6473813E-006  0.1008471E+03  0.7561462E-02  0.1278525E+00
         -4   -1    0    0    0  501 -0.00000000000E+00  0.00000000000E+00  0.17697085477E+03  0.17697085477E+03  0.00000000000E+00 0.  1.
          4   -1    0    0  501    0  0.00000000000E+00 -0.00000000000E+00 -0.96513729325E+02  0.96513729325E+02  0.00000000000E+00 0. -1.
         23    2    1    2    0    0 -0.11048135030E+02  0.31560209575E+00  0.11991754310E+03  0.17363202174E+03  0.12508277635E+03 0.  0.
          5    1    3    3  502    0  0.48517059022E+02 -0.10959854583E+02  0.96241764731E+02  0.10841574197E+03  0.41800000000E+01 0. -1.
         -5    1    3    3    0  502 -0.59565194052E+02  0.11275456679E+02  0.23675778373E+02  0.65216279773E+02  0.41800000000E+01 0. -1.
        -11    1    1    2    0    0  0.10172873194E+02 -0.45093053740E+02 -0.26246946627E+02  0.53158000826E+02  0.00000000000E+00 0. -1.
         11    1    1    2    0    0  0.87526183661E+00  0.44777451644E+02 -0.13213471035E+02  0.46694561523E+02  0.00000000000E+00 0.  1.
</event>
<event>
 7    1  0.6473813E-006  0.9941358E+02  0.7561462E-02  0.1281534E+00
          1   -1    0    0  501    0  0.00000000000E+00  0.00000000000E+00  0.10706211663E+03  0.10706211663E+03  0.00000000000E+00 0. -1.
         -1   -1    0    0    0  501 -0.00000000000E+00 -0.00000000000E+00 -0.15671666803E+03  0.15671666803E+03  0.00000000000E+00 0.  1.
         23    2    1    2    0    0  0.12485081097E+02 -0.67156440960E+02  0.28141148414E+00  0.14252458781E+03  0.12508922465E+03 0.  0.
          5    1    3    3  502    0  0.36803923410E+02 -0.65959044492E+02  0.47436093391E+02  0.89290423254E+02  0.41800000000E+01 0. -1.
         -5    1    3    3    0  502 -0.24318842313E+02 -0.11973964674E+01 -0.47154681907E+02  0.53234164551E+02  0.41800000000E+01 0. -1.
        -11    1    1    2    0    0 -0.38798601458E+02  0.59567490887E+02 -0.59025372419E+02  0.92399199319E+02  0.00000000000E+00 0.  1.
         11    1    1    2    0    0  0.26313520361E+02  0.75889500728E+01  0.90894095288E+01  0.28854997532E+02  0.00000000000E+00 0. -1.
</event>
<event>
 7    1  0.6473813E-006  0.7502054E+02  0.7561462E-02  0.1343807E+00
          3   -1    0    0  501    0  0.00000000000E+00  0.00000000000E+00  0.84779965999E+02  0.84779965999E+02  0.00000000000E+00 0. -1.
         -3   -1    0    0    0  501 -0.00000000000E+00 -0.00000000000E+00 -0.14607520192E+03  0.14607520192E+03  0.00000000000E+00 0.  1.
         23    2    1    2    0    0  0.88069689316E+01 -0.65368998202E+01 -0.38960913263E+02  0.13149113977E+03  0.12510664777E+03 0.  0.
          5    1    3    3  502    0  0.28573159977E+02  0.45302905020E+02 -0.51540536864E+02  0.74449163961E+02  0.41800000000E+01 0. -1.
         -5    1    3    3    0  502 -0.19766191046E+02 -0.51839804840E+02  0.12579623602E+02  0.57041975810E+02  0.41800000000E+01 0. -1.
        -11    1    1    2    0    0  0.52367079979E+01  0.20331000196E+02 -0.56310638675E+02  0.60097094003E+02  0.00000000000E+00 0.  1.
         11    1    1    2    0    0 -0.14043676929E+02 -0.13794100375E+02  0.33976316018E+02  0.39266934144E+02  0.00000000000E+00 0. -1.
</event>
<event>
 7    1  0.6473813E-006  0.1189677E+03  0.7561462E-02  0.1244810E+00
         -1   -1    0    0    0  501 -0.00000000000E+00  0.00000000000E+00  0.11712713512E+03  0.11712713512E+03  0.00000000000E+00 0.  1.
          1   -1    0    0  501    0  0.00000000000E+00 -0.00000000000E+00 -0.12814393593E+03  0.12814393593E+03  0.00000000000E+00 0. -1.
         23    2    1    2    0    0  0.48437786371E+02 -0.13602536328E+02 -0.33143514586E+02  0.13884213060E+03  0.12508955403E+03 0.  0.
          5    1    3    3  502    0  0.90091420455E+02 -0.19867686006E+02 -0.19689466707E+02  0.94426354827E+02  0.41800000000E+01 0. -1.
         -5    1    3    3    0  502 -0.41653634084E+02  0.62651496778E+01 -0.13454047879E+02  0.44415775770E+02  0.41800000000E+01 0. -1.
        -11    1    1    2    0    0 -0.34383004095E+02  0.52015427225E+02  0.66918009048E+01  0.62710253064E+02  0.00000000000E+00 0.  1.
         11    1    1    2    0    0 -0.14054782275E+02 -0.38412890897E+02  0.15434912867E+02  0.43718687390E+02  0.00000000000E+00 0. -1.
</event>
<event>
 7    1  0.7785950E-006  0.1852805E+03  0.7561462E-02  0.1162788E+00
         -3   -1    0    0    0  501 -0.00000000000E+00  0.00000000000E+00  0.41593244217E+03  0.41593244217E+03  0.00000000000E+00 0.  1.
          3   -1    0    0  501    0  0.00000000000E+00 -0.00000000000E+00 -0.10513449318E+03  0.10513449318E+03  0.00000000000E+00 0. -1.
         23    2    1    2    0    0  0.16666503204E+03 -0.47692901388E+02  0.21809550169E+03  0.30539257330E+03  0.12508848958E+03 0.  0.
          5    1    3    3  502    0  0.12140758815E+03 -0.40239587466E+01  0.20891241441E+03  0.24169787752E+03  0.41800000000E+01 0. -1.
         -5    1    3    3    0  502  0.45257443891E+02 -0.43668942642E+02  0.91830872804E+01  0.63694695784E+02  0.41800000000E+01 0. -1.
        -11    1    1    2    0    0 -0.97259913757E+02 -0.71575275573E+01  0.80336908841E+02  0.12635165194E+03  0.00000000000E+00 0.  1.
         11    1    1    2    0    0 -0.69405118279E+02  0.54850428946E+02  0.12365538464E+02  0.89322710104E+02  0.00000000000E+00 0. -1.
</event>
<event>
 7    1  0.6473813E-006  0.1190462E+03  0.7561462E-02  0.1244679E+00
          2   -1    0    0  501    0  0.00000000000E+00  0.00000000000E+00  0.14971424259E+03  0.14971424259E+03  0.00000000000E+00 0.  1.
         -2   -1    0    0    0  501 -0.00000000000E+00 -0.00000000000E+00 -0.13322354113E+03  0.13322354113E+03  0.00000000000E+00 0. -1.
         23    2    1    2    0    0 -0.85888688549E+02  0.58215602358E+01 -0.18143424521E+02  0.15292939713E+03  0.12508980481E+03 0.  0.
          5    1    3    3  502    0  0.13259604881E+02  0.13169716503E+02  0.35165247570E+02  0.40041548309E+02  0.41800000000E+01 0.  1.
         -5    1    3    3    0  502 -0.99148293430E+02 -0.73481562670E+01 -0.53308672091E+02  0.11288784882E+03  0.41800000000E+01 0.  1.
        -11    1    1    2    0    0 -0.14346431341E+02  0.10633200113E+02  0.20927818078E+02  0.27511063345E+02  0.00000000000E+00 0.  1.
         11    1    1    2    0    0  0.10023511989E+03 -0.16454760349E+02  0.13706307904E+02  0.10249732325E+03  0.00000000000E+00 0. -1.
</event>
<event>
 7    1  0.6473813E-006  0.1178701E+03  0.7561462E-02  0.1246653E+00
          2   -1    0    0  501    0  0.00000000000E+00  0.00000000000E+00  0.61681937922E+03  0.61681937922E+03  0.00000000000E+00 0. -1.
         -2   -1    0    0    0  501 -0.00000000000E+00 -0.00000000000E+00 -0.29173055392E+02  0.29173055392E+02  0.00000000000E+00 0.  1.
         23    2    1    2    0    0  0.44040669375E+02 -0.46035309977E+02  0.21336081828E+03  0.25540057479E+03  0.12509110480E+03 0.  0.
          5    1    3    3  502    0  0.28308510235E+02 -0.87055030767E+02  0.17214238041E+03  0.19501390121E+03  0.41800000000E+01 0. -1.
         -5    1    3    3    0  502  0.15732159139E+02  0.41019720790E+02  0.41218437871E+02  0.60386673574E+02  0.41800000000E+01 0. -1.
        -11    1    1    2    0    0 -0.42909245502E+02  0.66681241613E+02  0.34916772279E+03  0.35805822148E+03  0.00000000000E+00 0. -1.
         11    1    1    2    0    0 -0.11314238725E+01 -0.20645931636E+02  0.25117782759E+02  0.32533638343E+02  0.00000000000E+00 0.  1.
</event>
<event>
 7    1  0.6473813E-006  0.1059970E+03  0.7561462E-02  0.1268168E+00
         -1   -1    0    0    0  501 -0.00000000000E+00  0.00000000000E+00  0.30693020585E+03  0.30693020585E+03  0.00000000000E+00 0.  1.
          1   -1    0    0  501    0  0.00000000000E+00 -0.00000000000E+00 -0.93893888383E+02  0.93893888383E+02  0.00000000000E+00 0. -1.
         23    2    1    2    0    0 -0.85415695786E+02  0.24488457016E+01  0.22914293784E+03  0.27469125757E+03  0.12508782151E+03 0.  0.
          5    1    3    3  502    0 -0.82375797372E+01  0.26389702113E+02  0.17526345411E+03  0.17747964628E+03  0.41800000000E+01 0. -1.
         -5    1    3    3    0  502 -0.77178116049E+02 -0.23940856412E+02  0.53879483737E+02  0.97211611294E+02  0.41800000000E+01 0. -1.
        -11    1    1    2    0    0  0.66093767408E+02 -0.27411917534E+02 -0.44007445667E+02  0.84002705833E+02  0.00000000000E+00 0. -1.
         11    1    1    2    0    0  0.19321928378E+02  0.24963071833E+02  0.27900825285E+02  0.42130130823E+02  0.00000000000E+00 0.  1.
</event>
<event>
 7    1  0.6473813E-006  0.1381129E+03  0.7561462E-02  0.1215891E+00
          1   -1    0    0  501    0  0.00000000000E+00  0.00000000000E+00  0.40718099501E+03  0.40718099501E+03  0.00000000000E+00 0. -1.
         -1   -1    0    0    0  501 -0.00000000000E+00 -0.00000000000E+00 -0.63321659224E+02  0.63321659224E+02  0.00000000000E+00 0.  1.
         23    2    1    2    0    0  0.93170049146E+02 -0.55130558947E+02  0.11731135661E+03  0.20280630994E+03  0.12509359845E+03 0.  0.
          5    1    3    3  502    0  0.59083953865E+02 -0.95177010847E+02  0.71728692825E+02  0.13308664385E+03  0.41800000000E+01 0. -1.
         -5    1    3    3    0  502  0.34086095280E+02  0.40046451899E+02  0.45582663789E+02  0.69719666087E+02  0.41800000000E+01 0. -1.
        -11    1    1    2    0    0 -0.79268498522E+02  0.34406485714E+02  0.22683773126E+03  0.24273989668E+03  0.00000000000E+00 0. -1.
         11    1    1    2    0    0 -0.13901550623E+02  0.20724073233E+02 -0.28975208806E+00  0.24956447611E+02  0.00000000000E+00 0.  1.
</event>
<event>
 7    1  0.6473813E-006  0.8834538E+02  0.7561462E-02  0.1306909E+00
         -1   -1    0    0    0  501 -0.00000000000E+00  0.00000000000E+00  0.35987822686E+03  0.35987822686E+03  0.00000000000E+00 0.  1.
          1   -1    0    0  501    0  0.00000000000E+00 -0.00000000000E+00 -0.55534553198E+02  0.55534553198E+02  0.00000000000E+00 0. -1.
         23    2    1    2    0    0 -0.88179999887E+01 -0.46833171325E+02  0.28500609540E+03  0.31300329911E+03  0.12029749698E+03 0.  0.
          5    1    3    3  502    0  0.27530741863E+02  0.17707195334E+02  0.21821702101E+02  0.39561921044E+02  0.41800000000E+01 0. -1.
         -5    1    3    3    0  502 -0.36348741852E+02 -0.64540366658E+02  0.26318439330E+03  0.27344137807E+03  0.41800000000E+01 0.  1.
        -11    1    1    2    0    0 -0.20733641570E+01 -0.10724088786E+02 -0.26087540187E+02  0.28281878866E+02  0.00000000000E+00 0.  1.
         11    1    1    2    0    0  0.10891364146E+02  0.57557260110E+02  0.45425118450E+02  0.74127602083E+02  0.00000000000E+00 0. -1.
</event>
<event>
 7    1  0.6473813E-006  0.1120768E+03  0.7561462E-02  0.1256772E+00
         -1   -1    0    0    0  501 -0.00000000000E+00  0.00000000000E+00  0.42946789959E+02  0.42946789959E+02  0.00000000000E+00 0.  1.
          1   -1    0    0  501    0  0.00000000000E+00 -0.00000000000E+00 -0.65352359251E+03  0.65352359251E+03  0.00000000000E+00 0. -1.
         23    2    1    2    0    0 -0.47110563697E+01 -0.77115459985E+02 -0.11668470317E+03  0.18770338864E+03  0.12509298115E+03 0.  0.
          5    1    3    3  502    0  0.31910080685E+02 -0.29346384602E+02  0.12339818992E+02  0.45268168411E+02  0.41800000000E+01 0. -1.
         -5    1    3    3    0  502 -0.36621137055E+02 -0.47769075383E+02 -0.12902452217E+03  0.14243522023E+03  0.41800000000E+01 0. -1.
        -11    1    1    2    0    0 -0.39957705294E+02  0.60705500563E+02 -0.25360407141E+03  0.26381205630E+03  0.00000000000E+00 0.  1.
         11    1    1    2    0    0  0.44668761664E+02  0.16409959422E+02 -0.24028802797E+03  0.24495493753E+03  0.00000000000E+00 0. -1.
</event>
<event>
 7    1  0.6473813E-006  0.8091755E+02  0.7561462E-02  0.1326468E+00
         -2   -1    0    0    0  501 -0.00000000000E+00  0.00000000000E+00  0.10689039808E+03  0.10689039808E+03  0.00000000000E+00 0.  1.
          2   -1    0    0  501    0  0.00000000000E+00 -0.00000000000E+00 -0.15803258781E+03  0.15803258781E+03  0.00000000000E+00 0. -1.
         23    2    1    2    0    0 -0.24184250061E+02 -0.57954779011E+02  0.24871417643E+01  0.13998211117E+03  0.12508065883E+03 0.  0.
          5    1    3    3  502    0  0.23648046213E+01 -0.68675756876E+02 -0.46507826205E+02  0.83080696805E+02  0.41800000000E+01 0. -1.
         -5    1    3    3    0  502 -0.26549054682E+02  0.10720977864E+02  0.48994967969E+02  0.56901414369E+02  0.41800000000E+01 0. -1.
        -11    1    1    2    0    0  0.17727999189E+02  0.26085482692E+02  0.24745519335E+02  0.40088341069E+02  0.00000000000E+00 0.  1.
         11    1    1    2    0    0  0.64562508718E+01  0.31869296320E+02 -0.78374850827E+02  0.84852533641E+02  0.00000000000E+00 0. -1.
</event>
<event>
 7    1  0.6473813E-006  0.1501549E+03  0.7561462E-02  0.1200283E+00
         -1   -1    0    0    0  501 -0.00000000000E+00  0.00000000000E+00  0.33106147933E+03  0.33106147933E+03  0.00000000000E+00 0.  1.
          1   -1    0    0  501    0  0.00000000000E+00 -0.00000000000E+00 -0.98044485195E+02  0.98044485195E+02  0.00000000000E+00 0. -1.
         23    2    1    2    0    0 -0.24037081472E+02 -0.13758587982E+03  0.15257344883E+03  0.24173315728E+03  0.12509439008E+03 0.  0.
          5    1    3    3  502    0  0.27053755101E+02 -0.50691589789E+02 -0.14269952958E+01  0.57628566319E+02  0.41800000000E+01 0. -1.
         -5    1    3    3    0  502 -0.51090836573E+02 -0.86894290032E+02  0.15400044412E+03  0.18410459096E+03  0.41800000000E+01 0. -1.
        -11    1    1    2    0    0  0.29080209215E+02  0.12250312287E+03  0.23284232336E+02  0.12804229441E+03  0.00000000000E+00 0. -1.
         11    1    1    2    0    0 -0.50431277425E+01  0.15082756948E+02  0.57159312975E+02  0.59330512844E+02  0.00000000000E+00 0.  1.
</event>
<event>
 7    1  0.6473813E-006  0.2044174E+03  0.7561462E-02  0.1146065E+00
          2   -1    0    0  501    0  0.00000000000E+00  0.00000000000E+00  0.43488349180E+03  0.43488349180E+03  0.00000000000E+00 0.  1.
         -2   -1    0    0    0  501 -0.00000000000E+00 -0.00000000000E+00 -0.13454954647E+03  0.13454954647E+03  0.00000000000E+00 0. -1.
         23    2    1    2    0    0 -0.20902146346E+01  0.27863251546E+02 -0.32855450472E+02  0.13231616511E+03  0.12508939659E+03 0.  0.
          5    1    3    3  502    0  0.48081532638E+02 -0.24561441876E+02 -0.23499121764E+02  0.59032019544E+02  0.41800000000E+01 0.  1.
         -5    1    3    3    0  502 -0.50171747272E+02  0.52424693422E+02 -0.93563287080E+01  0.73284145568E+02  0.41800000000E+01 0.  1.
        -11    1    1    2    0    0  0.46063659005E+02  0.11957518094E+03  0.16927355613E+03  0.21230549070E+03  0.00000000000E+00 0.  1.
         11    1    1    2    0    0 -0.43973444371E+02 -0.14743843249E+03  0.16391583968E+03  0.22481138245E+03  0.00000000000E+00 0. -1.
</event>
<event>
 6    1  0.6473813E-006  0.2222708E+03  0.7561462E-02  0.1132201E+00
          2   -1    0    0  501    0  0.00000000000E+00  0.00000000000E+00  0.13923243087E+04  0.13923243087E+04  0.00000000000E+00 0. -1.
         -2   -1    0    0    0  501 -0.00000000000E+00 -0.00000000000E+00 -0.53350406399E+02  0.53350406399E+02  0.00000000000E+00 0.  1.
          5    1    1    2  502    0 -0.87470121435E+02 -0.19159917441E+03  0.76654132041E+03  0.79496184441E+03  0.41800000000E+01 0. -1.
         -5    1    1    2    0  502  0.38278959426E+02  0.65610055198E+02  0.25691776354E+02  0.80296312805E+02  0.41800000000E+01 0.  1.
        -11    1    1    2    0    0  0.63859396184E+02  0.51938154292E+02  0.21557385312E+03  0.23075458934E+03  0.00000000000E+00 0.  1.
         11    1    1    2    0    0 -0.14668234175E+02  0.74050964920E+02  0.33116695246E+03  0.33966196858E+03  0.00000000000E+00 0. -1.
</event>
<event>
 7    1  0.6473813E-006  0.1071596E+03  0.7561462E-02  0.1265922E+00
          1   -1    0    0  501    0  0.00000000000E+00  0.00000000000E+00  0.18394648764E+02  0.18394648764E+02  0.00000000000E+00 0. -1.
         -1   -1    0    0    0  501 -0.00000000000E+00 -0.00000000000E+00 -0.10486299384E+04  0.10486299384E+04  0.00000000000E+00 0.  1.
         23    2    1    2    0    0 -0.65294127304E+02 -0.56701324883E+02 -0.51715183156E+03  0.53904780992E+03  0.12509261046E+03 0.  0.
          5    1    3    3  502    0 -0.58852669855E+02 -0.14853403987E+02 -0.47594347316E+03  0.47981655078E+03  0.41800000000E+01 0.  1.
         -5    1    3    3    0  502 -0.64414574491E+01 -0.41847920896E+02 -0.41208358400E+02  0.59231259141E+02  0.41800000000E+01 0.  1.
        -11    1    1    2    0    0  0.49057430211E+02  0.72982009887E+02 -0.47805630878E+03  0.48607698936E+03  0.00000000000E+00 0. -1.
         11    1    1    2    0    0  0.16236697093E+02 -0.16280685004E+02 -0.35027149317E+02  0.41899787899E+02  0.00000000000E+00 0.  1.
</event>
<event>
 7    1  0.6473813E-006  0.1095179E+03  0.7561462E-02  0.1261465E+00
          2   -1    0    0  501    0  0.00000000000E+00  0.00000000000E+00  0.40447872076E+03  0.40447872076E+03  0.00000000000E+00 0. -1.
         -2   -1    0    0    0  501 -0.00000000000E+00 -0.00000000000E+00 -0.42650223197E+02  0.42650223197E+02  0.00000000000E+00 0.  1.
         23    2    1    2    0    0 -0.10026776673E+02 -0.65963348395E+02  0.14649551872E+03  0.20386254959E+03  0.12508917835E+03 0.  0.
          5    1    3    3  502    0 -0.11140429089E+02  0.18398940669E+02  0.10945275721E+03  0.11162440879E+03  0.41800000000E+01 0.  1.
         -5    1    3    3    0  502  0.11136524166E+01 -0.84362289064E+02  0.37042761510E+02  0.92238140799E+02  0.41800000000E+01 0.  1.
        -11    1    1    2    0    0 -0.12999868187E+02 -0.19891241285E+02  0.36380408758E+02  0.43453333522E+02  0.00000000000E+00 0.  1.
         11    1    1    2    0    0  0.23026644860E+02  0.85854589680E+02  0.17895257008E+03  0.19981306084E+03  0.00000000000E+00 0. -1.
</event>
<event>
 7    1  0.6473813E-006  0.1504792E+03  0.7561462E-02  0.1199885E+00
         -2   -1    0    0    0  501 -0.00000000000E+00  0.00000000000E+00  0.90674837706E+02  0.90674837706E+02  0.00000000000E+00 0.  1.
          2   -1    0    0  501    0  0.00000000000E+00 -0.00000000000E+00 -0.31101626653E+03  0.31101626653E+03  0.00000000000E+00 0. -1.
         23    2    1    2    0    0 -0.10535354950E+02 -0.11282175592E+03 -0.47596046336E+02  0.17536345100E+03  0.12508882446E+03 0.  0.
          5    1    3    3  502    0  0.54335638286E+02 -0.27883927839E+02 -0.24520420786E+02  0.65943903851E+02  0.41800000000E+01 0.  1.
         -5    1    3    3    0  502 -0.64870993236E+02 -0.84937828082E+02 -0.23075625551E+02  0.10941954714E+03  0.41800000000E+01 0.  1.
        -11    1    1    2    0    0  0.39197177818E+02  0.48454221733E+02 -0.34681636515E+02  0.71323532330E+02  0.00000000000E+00 0.  1.
         11    1    1    2    0    0 -0.28661822867E+02  0.64367534188E+02 -0.13806374598E+03  0.15500412091E+03  0.00000000000E+00 0. -1.
</event>
<event>
 7    1  0.6473813E-006  0.1074637E+03  0.7561462E-02  0.1265340E+00
          2   -1    0    0  501    0  0.00000000000E+00  0.00000000000E+00  0.24357272338E+03  0.24357272338E+03  0.00000000000E+00 0. -1.
         -2   -1    0    0    0  501 -0.00000000000E+00 -0.00000000000E+00 -0.66114343291E+02  0.66114343291E+02  0.00000000000E+00 0.  1.
         23    2    1    2    0    0  0.55608004098E+01  0.10084614567E+02  0.22882534876E+02  0.12760218662E+03  0.12500434262E+03 0.  0.
          5    1    3    3  502    0  0.64927938607E+02  0.91440456083E+01  0.16481407333E+02  0.67737434034E+02  0.41800000000E+01 0. -1.
         -5    1    3    3    0  502 -0.59367138198E+02  0.94056895918E+00  0.64011275428E+01  0.59864752581E+02  0.41800000000E+01 0.  1.
        -11    1    1    2    0    0 -0.37988387690E+02  0.22155376387E+02  0.43015574412E+02  0.61516810256E+02  0.00000000000E+00 0.  1.
         11    1    1    2    0    0  0.32427587280E+02 -0.32239990955E+02  0.11156027080E+03  0.12056806980E+03  0.00000000000E+00 0. -1.
</event>
<event>
 7    1  0.6473813E-006  0.1115546E+03  0.7561462E-02  0.1257718E+00
          4   -1    0    0  501    0  0.00000000000E+00  0.00000000000E+00  0.65529310600E+02  0.65529310600E+02  0.00000000000E+00 0. -1.
         -4   -1    0    0    0  501 -0.00000000000E+00 -0.00000000000E+00 -0.29346076926E+03  0.29346076926E+03  0.00000000000E+00 0.  1.
         23    2    1    2    0    0 -0.21119317600E+02  0.79434235706E+02 -0.15623759362E+03  0.21636345777E+03  0.12508851593E+03 0.  0.
          5    1    3    3  502    0  0.46124746333E+02  0.18651911633E+02 -0.93662859296E+02  0.10613948202E+03  0.41800000000E+01 0.  1.
         -5    1    3    3    0  502 -0.67244063933E+02  0.60782324073E+02 -0.62574734328E+02  0.11022397575E+03  0.41800000000E+01 0.  1.
        -11    1    1    2    0    0  0.20564794066E+01 -0.17995790553E+02 -0.76025192111E+02  0.78153102438E+02  0.00000000000E+00 0.  1.
         11    1    1    2    0    0  0.19062838193E+02 -0.61438445153E+02  0.43313270713E+01  0.64473519657E+02  0.00000000000E+00 0. -1.
</event>
<event>
 7    1  0.6473813E-006  0.9943356E+02  0.7561462E-02  0.1281492E+00
         -1   -1    0    0    0  501 -0.00000000000E+00  0.00000000000E+00  0.41754735911E+02  0.41754735911E+02  0.00000000000E+00 0.  1.
          1   -1    0    0  501    0  0.00000000000E+00 -0.00000000000E+00 -0.31496264333E+03  0.31496264333E+03  0.00000000000E+00 0. -1.
         23    2    1    2    0    0 -0.18627151180E+02  0.10833842017E+02 -0.10703554645E+03  0.16603742358E+03  0.12508986742E+03 0.  0.
          5    1    3    3  502    0 -0.64373367507E+02  0.30119876711E+02 -0.86803147721E+02  0.11226484878E+03  0.41800000000E+01 0.  1.
         -5    1    3    3    0  502  0.45746216327E+02 -0.19286034694E+02 -0.20232398732E+02  0.53772574803E+02  0.41800000000E+01 0.  1.
        -11    1    1    2    0    0  0.53275362824E+01  0.32288576752E+02 -0.12627058032E+03  0.13044230252E+03  0.00000000000E+00 0. -1.
         11    1    1    2    0    0  0.13299614897E+02 -0.43122418768E+02 -0.39901780640E+02  0.60237653134E+02  0.00000000000E+00 0.  1.
</event>
<event>
 7    1  0.6473813E-006  0.1258919E+03  0.7561462E-02  0.1233682E+00
         -1   -1    0    0    0  501 -0.00000000000E+00  0.00000000000E+00  0.38633621521E+02  0.38633621521E+02  0.00000000000E+00 0.  1.
          1   -1    0    0  501    0  0.00000000000E+00 -0.00000000000E+00 -0.49396779240E+03  0.49396779240E+03  0.00000000000E+00 0. -1.
         23    2    1    2    0    0 -0.73071248766E+02 -0.37108843014E+02 -0.27413391708E+03  0.31227093459E+03  0.12508900221E+03 0.  0.
          5    1    3    3  502    0 -0.95723521476E+02 -0.17076350726E+01 -0.23842575901E+03  0.25696346733E+03  0.41800000000E+01 0. -1.
         -5    1    3    3    0  502  0.22652272710E+02 -0.35401207942E+02 -0.35708158064E+02  0.55307467262E+02  0.41800000000E+01 0. -1.
        -11    1    1    2    0    0  0.13783320006E+01  0.41846358547E+02 -0.25945453433E+02  0.49256310018E+02  0.00000000000E+00 0.  1.
         11    1    1    2    0    0  0.71692916766E+02 -0.47375155330E+01 -0.15525480037E+03  0.17107416931E+03  0.00000000000E+00 0. -1.
</event>
<event>
 7    1  0.6473813E-006  0.1499524E+03  0.7561462E-02  0.1200532E+00
         -1   -1    0    0    0  501 -0.00000000000E+00  0.00000000000E+00  0.23771962855E+02  0.23771962855E+02  0.00000000000E+00 0.  1.
          1   -1    0    0  501    0  0.00000000000E+00 -0.00000000000E+00 -0.11011740739E+04  0.11011740739E+04  0.00000000000E+00 0. -1.
         23    2    1    2    0    0  0.11678292520E+03 -0.57061111670E+01 -0.49282032728E+03  0.52171717504E+03  0.12508446917E+03 0.  0.
          5    1    3    3  502    0  0.11886809280E+03 -0.41611202390E+02 -0.29777657572E+03  0.32334111570E+03  0.41800000000E+01 0.  1.
         -5    1    3    3    0  502 -0.20851675979E+01  0.35905091223E+02 -0.19504375155E+03  0.19837605934E+03  0.41800000000E+01 0.  1.
        -11    1    1    2    0    0 -0.78225772885E+01  0.25737837088E+02 -0.45300212093E+02  0.52685274879E+02  0.00000000000E+00 0.  1.
         11    1    1    2    0    0 -0.10896034791E+03 -0.20031725921E+02 -0.53928157170E+03  0.55054358686E+03  0.00000000000E+00 0. -1.
</event>
<event>
 7    1  0.6473813E-006  0.2283051E+03  0.7561462E-02  0.1127838E+00
         -2   -1    0    0    0  501 -0.00000000000E+00  0.00000000000E+00  0.23204868664E+03  0.23204868664E+03  0.00000000000E+00 0. -1.
          2   -1    0    0  501    0  0.00000000000E+00 -0.00000000000E+00 -0.33245119621E+03  0.33245119621E+03  0.00000000000E+00 0.  1.
         23    2    1    2    0    0 -0.15044671202E+03  0.15861749762E+03  0.82719927495E+02  0.26510455736E+03  0.12507644151E+03 0.  0.
          5    1    3    3  502    0 -0.73083727570E+02  0.13355544380E+03  0.47641147124E+01  0.15237603812E+03  0.41800000000E+01 0.  1.
         -5    1    3    3    0  502 -0.77362984451E+02  0.25062053828E+02  0.77955812783E+02  0.11272851925E+03  0.41800000000E+01 0.  1.
        -11    1    1    2    0    0  0.38899905964E+02 -0.71302283097E+02 -0.20584562017E+02  0.83791064275E+02  0.00000000000E+00 0. -1.
         11    1    1    2    0    0  0.11154680606E+03 -0.87315214527E+02 -0.16253787505E+03  0.21560426122E+03  0.00000000000E+00 0.  1.
</event>
<event>
 7    1  0.6473813E-006  0.1205156E+03  0.7561462E-02  0.1242249E+00
          1   -1    0    0  501    0  0.00000000000E+00  0.00000000000E+00  0.14735600940E+03  0.14735600940E+03  0.00000000000E+00 0. -1.
         -1   -1    0    0    0  501 -0.00000000000E+00 -0.00000000000E+00 -0.21387540211E+03  0.21387540211E+03  0.00000000000E+00 0.  1.
         23    2    1    2    0    0  0.80431886601E+02 -0.16550808032E+02 -0.15009286300E+03  0.21193995579E+03  0.12508980657E+03 0.  0.
          5    1    3    3  502    0  0.81326613696E+02 -0.62423080930E+02 -0.11430076108E+03  0.15359946455E+03  0.41800000000E+01 0.  1.
         -5    1    3    3    0  502 -0.89472709522E+00  0.45872272898E+02 -0.35792101918E+02  0.58340491231E+02  0.41800000000E+01 0.  1.
        -11    1    1    2    0    0 -0.22742948079E+01  0.13969421487E+02 -0.16853997526E+02  0.22008507131E+02  0.00000000000E+00 0. -1.
         11    1    1    2    0    0 -0.78157591793E+02  0.25813865449E+01  0.10042746781E+03  0.12728294859E+03  0.00000000000E+00 0.  1.
</event>
<event>
 7    1  0.6473813E-006  0.1794950E+03  0.7561462E-02  0.1168293E+00
          1   -1    0    0  501    0  0.00000000000E+00  0.00000000000E+00  0.61880530958E+03  0.61880530958E+03  0.00000000000E+00 0. -1.
         -1   -1    0    0    0  501 -0.00000000000E+00 -0.00000000000E+00 -0.61367373386E+02  0.61367373386E+02  0.00000000000E+00 0.  1.
         23    2    1    2    0    0 -0.38451494055E+02 -0.15061984502E+03  0.21693947890E+03  0.29474943865E+03  0.12509851706E+03 0.  0.
          5    1    3    3  502    0 -0.38909895707E+02 -0.16252348544E+03  0.22459959312E+03  0.27998270113E+03  0.41800000000E+01 0. -1.
         -5    1    3    3    0  502  0.45840165217E+00  0.11903640420E+02 -0.76601142130E+01  0.14766737523E+02  0.41800000000E+01 0. -1.
        -11    1    1    2    0    0  0.67756439978E+02  0.10338707401E+03  0.21177443868E+03  0.24521059338E+03  0.00000000000E+00 0.  1.
         11    1    1    2    0    0 -0.29304945923E+02  0.47232771015E+02  0.12872401861E+03  0.14021265093E+03  0.00000000000E+00 0. -1.
</event>
<event>
 7    1  0.6473813E-006  0.1996870E+03  0.7561462E-02  0.1150003E+00
         -1   -1    0    0    0  501 -0.00000000000E+00  0.00000000000E+00  0.10336514802E+03  0.10336514802E+03  0.00000000000E+00 0.  1.
          1   -1    0    0  501    0  0.00000000000E+00 -0.00000000000E+00 -0.59905284174E+03  0.59905284174E+03  0.00000000000E+00 0. -1.
         23    2    1    2    0    0  0.93986215803E+02 -0.14798992767E+03 -0.59828571655E+02  0.22352209681E+03  0.12509293474E+03 0.  0.
          5    1    3    3  502    0  0.11376181079E+03 -0.86287996927E+02 -0.12934145143E+02  0.14342988712E+03  0.41800000000E+01 0.  1.
         -5    1    3    3    0  502 -0.19775594991E+02 -0.61701930742E+02 -0.46894426512E+02  0.80092209686E+02  0.41800000000E+01 0.  1.
        -11    1    1    2    0    0 -0.91882937075E+02  0.75072036801E+02 -0.32694370711E+03  0.34780809716E+03  0.00000000000E+00 0.  1.
         11    1    1    2    0    0 -0.21032787277E+01  0.72917890867E+02 -0.10891541495E+03  0.13108779579E+03  0.00000000000E+00 0. -1.
</event>
<event>
 7    1  0.6473813E-006  0.1144996E+03  0.7561462E-02  0.1252457E+00
         -3   -1    0    0    0  501 -0.00000000000E+00  0.00000000000E+00  0.18958537170E+03  0.18958537170E+03  0.00000000000E+00 0.  1.
          3   -1    0    0  501    0  0.00000000000E+00 -0.00000000000E+00 -0.83740763102E+02  0.83740763102E+02  0.00000000000E+00 0. -1.
         23    2    1    2    0    0  0.13109552487E+02  0.56057578400E+02  0.91102002854E+02  0.16511197641E+03  0.12509227542E+03 0.  0.
          5    1    3    3  502    0  0.51250259814E+02 -0.16016879774E+02  0.50884888274E+02  0.74093682749E+02  0.41800000000E+01 0.  1.
         -5    1    3    3    0  502 -0.38140707327E+02  0.72074458174E+02  0.40217114581E+02  0.91018293665E+02  0.41800000000E+01 0.  1.
        -11    1    1    2    0    0 -0.42070600084E+02 -0.47150415218E+02  0.34545224890E+02  0.72017148023E+02  0.00000000000E+00 0.  1.
         11    1    1    2    0    0  0.28961047597E+02 -0.89071631824E+01 -0.19802619150E+02  0.36197010361E+02  0.00000000000E+00 0. -1.
</event>
<event>
 7    1  0.6473813E-006  0.1087040E+03  0.7561462E-02  0.1262989E+00
         -1   -1    0    0    0  501 -0.00000000000E+00  0.00000000000E+00  0.29353701635E+03  0.29353701635E+03  0.00000000000E+00 0.  1.
          1   -1    0    0  501    0  0.00000000000E+00 -0.00000000000E+00 -0.53561462869E+02  0.53561462869E+02  0.00000000000E+00 0. -1.
         23    2    1    2    0    0  0.40313785282E+02 -0.48075672223E+02  0.12586891071E+03  0.18821877271E+03  0.12508737816E+03 0.  0.
          5    1    3    3  502    0  0.31073849533E+02 -0.81555433741E+02  0.12588546073E+03  0.15323672706E+03  0.41800000000E+01 0.  1.
         -5    1    3    3    0  502  0.92399357495E+01  0.33479761518E+02 -0.16550025374E-01  0.34982045650E+02  0.41800000000E+01 0.  1.
        -11    1    1    2    0    0  0.72753480110E+01  0.46886180226E+02  0.97553053345E+02  0.10847968843E+03  0.00000000000E+00 0.  1.
         11    1    1    2    0    0 -0.47589133293E+02  0.11894919964E+01  0.16553589427E+02  0.50400018073E+02  0.00000000000E+00 0. -1.
</event>
<event>
 7    1  0.6473813E-006  0.2767148E+03  0.7561462E-02  0.1097497E+00
          2   -1    0    0  501    0  0.00000000000E+00  0.00000000000E+00  0.10138730016E+04  0.10138730016E+04  0.00000000000E+00 0. -1.
         -2   -1    0    0    0  501 -0.00000000000E+00 -0.00000000000E+00 -0.83628203396E+02  0.83628203396E+02  0.00000000000E+00 0.  1.
         23    2    1    2    0    0  0.25410175665E+03  0.57443142532E+02  0.33144850620E+03  0.43974336125E+03  0.12509474068E+03 0.  0.
          5    1    3    3  502    0  0.17177238215E+03  0.88584804305E+02  0.27099218744E+03  0.33287723995E+03  0.41800000000E+01 0. -1.
         -5    1    3    3    0  502  0.82329374505E+02 -0.31141661773E+02  0.60456318763E+02  0.10686612130E+03  0.41800000000E+01 0. -1.
        -11    1    1    2    0    0 -0.63959137510E+02 -0.50895781831E+02  0.16861393088E+03  0.18738145470E+03  0.00000000000E+00 0.  1.
         11    1    1    2    0    0 -0.19014261914E+03 -0.65473607008E+01  0.43018236107E+03  0.47037638899E+03  0.00000000000E+00 0. -1.
</event>
<event>
 7    1  0.6473813E-006  0.1381782E+03  0.7561462E-02  0.1215802E+00
         -2   -1    0    0    0  501 -0.00000000000E+00  0.00000000000E+00  0.21236991670E+02  0.21236991670E+02  0.00000000000E+00 0.  1.
          2   -1    0    0  501    0  0.00000000000E+00 -0.00000000000E+00 -0.10463127429E+04  0.10463127429E+04  0.00000000000E+00 0. -1.
         23    2    1    2    0    0 -0.20654950842E+02  0.97992489422E+02 -0.63500198674E+03  0.65490785791E+03  0.12509046407E+03 0.  0.
          5    1    3    3  502    0  0.36975922858E+02  0.75549634971E+02 -0.49041177525E+03  0.49759034146E+03  0.41800000000E+01 0. -1.
         -5    1    3    3    0  502 -0.57630873700E+02  0.22442854451E+02 -0.14459021150E+03  0.15731751644E+03  0.41800000000E+01 0. -1.
        -11    1    1    2    0    0 -0.17282243283E+02 -0.89660200912E+02 -0.22014512973E+03  0.23833066463E+03  0.00000000000E+00 0.  1.
         11    1    1    2    0    0  0.37937194125E+02 -0.83322885107E+01 -0.16992863479E+03  0.17431121206E+03  0.00000000000E+00 0. -1.
</event>
<event>
 7    1  0.6473813E-006  0.1362320E+03  0.7561462E-02  0.1218491E+00
          2   -1    0    0  501    0  0.00000000000E+00  0.00000000000E+00  0.83004251805E+02  0.83004251805E+02  0.00000000000E+00 0. -1.
         -2   -1    0    0    0  501 -0.00000000000E+00 -0.00000000000E+00 -0.27780179159E+03  0.27780179159E+03  0.00000000000E+00 0.  1.
         23    2    1    2    0    0 -0.44789645297E+02  0.94981672749E+02 -0.11665576925E+03  0.20070614814E+03  0.12508700539E+03 0.  0.
          5    1    3    3  502    0 -0.56516774102E+02  0.20078016999E+02 -0.10888122359E+03  0.12437791513E+03  0.41800000000E+01 0.  1.
         -5    1    3    3    0  502  0.11727128805E+02  0.74903655750E+02 -0.77745456635E+01  0.76328233014E+02  0.41800000000E+01 0.  1.
        -11    1    1    2    0    0  0.63346052562E+02 -0.32431690853E+02 -0.58029963507E+02  0.91825996381E+02  0.00000000000E+00 0.  1.
         11    1    1    2    0    0 -0.18556407265E+02 -0.62549981896E+02 -0.20111807030E+02  0.68273898876E+02  0.00000000000E+00 0. -1.
</event>
<event>
 7    1  0.6473813E-006  0.1041781E+03  0.7561462E-02  0.1271748E+00
         -2   -1    0    0    0  501 -0.00000000000E+00  0.00000000000E+00  0.15269899058E+03  0.15269899058E+03  0.00000000000E+00 0.  1.
          2   -1    0    0  501    0  0.00000000000E+00 -0.00000000000E+00 -0.90797256359E+02  0.90797256359E+02  0.00000000000E+00 0. -1.
         23    2    1    2    0    0 -0.32011924797E+02 -0.28507466906E+02  0.22452642651E+02  0.13412509495E+03  0.12509188996E+03 0.  0.
          5    1    3    3  502    0 -0.66692218892E+02 -0.43715068159E+02  0.43153216263E+02  0.90766357858E+02  0.41800000000E+01 0. -1.
         -5    1    3    3    0  502  0.34680294095E+02  0.15207601253E+02 -0.20700573612E+02  0.43358737093E+02  0.41800000000E+01 0. -1.
        -11    1    1    2    0    0  0.19286938962E+02  0.56476191893E+02  0.39740468199E+00  0.59680015045E+02  0.00000000000E+00 0. -1.
         11    1    1    2    0    0  0.12724985835E+02 -0.27968724987E+02  0.39051686888E+02  0.49691136943E+02  0.00000000000E+00 0.  1.
</event>
<event>
 7    1  0.6473813E-006  0.1350713E+03  0.7561462E-02  0.1220119E+00
          3   -1    0    0  501    0  0.00000000000E+00  0.00000000000E+00  0.22292581884E+03  0.22292581884E+03  0.00000000000E+00 0. -1.
         -3   -1    0    0    0  501 -0.00000000000E+00 -0.00000000000E+00 -0.12547854285E+03  0.12547854285E+03  0.00000000000E+00 0.  1.
         23    2    1    2    0    0  0.53676073868E+02 -0.79794704521E+02 -0.35242237394E+02  0.16167212000E+03  0.12509014076E+03 0.  0.
          5    1    3    3  502    0  0.60066580337E+02 -0.10151711634E+03  0.18145099828E+01  0.11804441465E+03  0.41800000000E+01 0.  1.
         -5    1    3    3    0  502 -0.63905064698E+01  0.21722411821E+02 -0.37056747376E+02  0.43627705353E+02  0.41800000000E+01 0.  1.
        -11    1    1    2    0    0 -0.75273463841E+02  0.43742574089E+02  0.72347490342E+02  0.11319746687E+03  0.00000000000E+00 0.  1.
         11    1    1    2    0    0  0.21597389973E+02  0.36052130432E+02  0.60342023046E+02  0.73534774818E+02  0.00000000000E+00 0. -1.
</event>
<event>
 7    1  0.6473813E-006  0.1678704E+03  0.7561462E-02  0.1180087E+00
         -2   -1    0    0    0  501 -0.00000000000E+00  0.00000000000E+00  0.26458558431E+02  0.26458558431E+02  0.00000000000E+00 0.  1.
          2   -1    0    0  501    0  0.00000000000E+00 -0.00000000000E+00 -0.13570170435E+04  0.13570170435E+04  0.00000000000E+00 0. -1.
         23    2    1    2    0    0 -0.11169371152E+03  0.10869342148E+03 -0.69143781547E+03  0.71973827501E+03  0.12508871570E+03 0.  0.
          5    1    3    3  502    0 -0.72369772138E+02  0.44816052569E+02 -0.57422764520E+03  0.58051763401E+03  0.41800000000E+01 0. -1.
         -5    1    3    3    0  502 -0.39323939378E+02  0.63877368908E+02 -0.11721017027E+03  0.13922064100E+03  0.41800000000E+01 0. -1.
        -11    1    1    2    0    0  0.42746628165E+02 -0.96265620176E+02 -0.31541310610E+03  0.33253536856E+03  0.00000000000E+00 0.  1.
         11    1    1    2    0    0  0.68947083351E+02 -0.12427801301E+02 -0.32370756351E+03  0.33120195836E+03  0.00000000000E+00 0. -1.
</event>
<event>
 7    1  0.6473813E-006  0.1495109E+03  0.7561462E-02  0.1201075E+00
          1   -1    0    0  501    0  0.00000000000E+00  0.00000000000E+00  0.71297862769E+03  0.71297862769E+03  0.00000000000E+00 0. -1.
         -1   -1    0    0    0  501 -0.00000000000E+00 -0.00000000000E+00 -0.35579360855E+02  0.35579360855E+02  0.00000000000E+00 0.  1.
         23    2    1    2    0    0 -0.79839967852E+02  0.76302375984E+02  0.27461940439E+03  0.32136050034E+03  0.12514104390E+03 0.  0.
          5    1    3    3  502    0  0.12795562783E+02  0.63424954701E+02  0.16454026880E+03  0.17685424440E+03  0.41800000000E+01 0.  1.
         -5    1    3    3    0  502 -0.92635530635E+02  0.12877421282E+02  0.11007913559E+03  0.14450625594E+03  0.41800000000E+01 0.  1.
        -11    1    1    2    0    0 -0.10413523846E+02 -0.43191343007E+02  0.16066389844E+03  0.16669379668E+03  0.00000000000E+00 0. -1.
         11    1    1    2    0    0  0.90253491698E+02 -0.33111032976E+02  0.24211596401E+03  0.26050369152E+03  0.00000000000E+00 0.  1.
</event>
<event>
 7    1  0.6473813E-006  0.2691909E+03  0.7561462E-02  0.1101744E+00
          2   -1    0    0  501    0  0.00000000000E+00  0.00000000000E+00  0.75505901778E+02  0.75505901778E+02  0.00000000000E+00 0. -1.
         -2   -1    0    0    0  501 -0.00000000000E+00 -0.00000000000E+00 -0.10560272341E+04  0.10560272341E+04  0.00000000000E+00 0.  1.
         23    2    1    2    0    0  0.14164081621E+03  0.20864418017E+03 -0.61926821393E+03  0.68024706936E+03  0.12509372429E+03 0.  0.
          5    1    3    3  502    0  0.14202462476E+01  0.10801000342E+03 -0.21459111435E+03  0.24028107852E+03  0.41800000000E+01 0.  1.
         -5    1    3    3    0  502  0.14022056996E+03  0.10063417675E+03 -0.40467709958E+03  0.43996599084E+03  0.41800000000E+01 0.  1.
        -11    1    1    2    0    0 -0.66161266346E+02 -0.14316176207E+03 -0.28448715928E+03  0.32527764614E+03  0.00000000000E+00 0.  1.
         11    1    1    2    0    0 -0.75479549863E+02 -0.65482418101E+02 -0.76765959124E+02  0.12600842039E+03  0.00000000000E+00 0. -1.
</event>
<event>
 7    1  0.1247023E-005  0.2689546E+03  0.7561462E-02  0.1101879E+00
          1   -1    0    0  501    0  0.00000000000E+00  0.00000000000E+00  0.27219180069E+04  0.27219180069E+04  0.00000000000E+00 0. -1.
         -1   -1    0    0    0  501 -0.00000000000E+00 -0.00000000000E+00 -0.29009919521E+02  0.29009919521E+02  0.00000000000E+00 0.  1.
         23    2    1    2    0    0  0.12285817153E+03  0.22482809299E+03  0.15726165393E+04  0.15982529936E+04  0.12509216648E+03 0.  0.
          5    1    3    3  502    0  0.73288109329E+02  0.48193146695E+02  0.76647879245E+03  0.77149266881E+03  0.41800000000E+01 0.  1.
         -5    1    3    3    0  502  0.49570062198E+02  0.17663494630E+03  0.80613774683E+03  0.82676032475E+03  0.41800000000E+01 0.  1.
        -11    1    1    2    0    0 -0.10215980889E+03 -0.11084472416E+03  0.73703529490E+03  0.75229263279E+03  0.00000000000E+00 0. -1.
         11    1    1    2    0    0 -0.20698362637E+02 -0.11398336883E+03  0.38325625320E+03  0.40038230007E+03  0.00000000000E+00 0.  1.
</event>
<event>
 7    1  0.6473813E-006  0.1034050E+03  0.7561462E-02  0.1273294E+00
         -2   -1    0    0    0  501 -0.00000000000E+00  0.00000000000E+00  0.40248911359E+02  0.40248911359E+02  0.00000000000E+00 0.  1.
          2   -1    0    0  501    0  0.00000000000E+00 -0.00000000000E+00 -0.37412797989E+03  0.37412797989E+03  0.00000000000E+00 0. -1.
         23    2    1    2    0    0  0.13672036993E+02 -0.90783973228E+01 -0.95840335501E+02  0.15841893529E+03  0.12506737087E+03 0.  0.
          5    1    3    3  502    0 -0.13906706662E+02 -0.63082978506E+02 -0.41548458417E+02  0.76919473895E+02  0.41800000000E+01 0.  1.
         -5    1    3    3    0  502  0.27578743655E+02  0.54004581184E+02 -0.54291877085E+02  0.81499461396E+02  0.41800000000E+01 0.  1.
        -11    1    1    2    0    0  0.33546620192E+02  0.28667062796E+01 -0.40051664984E+02  0.52323317930E+02  0.00000000000E+00 0.  1.
         11    1    1    2    0    0 -0.47218657185E+02  0.62116910431E+01 -0.19798706804E+03  0.20363463803E+03  0.00000000000E+00 0. -1.
</event>
<event>
 6    1  0.6473813E-006  0.9967978E+02  0.7561462E-02  0.1280971E+00
          2   -1    0    0  501    0  0.00000000000E+00  0.00000000000E+00  0.21988693673E+03  0.21988693673E+03  0.00000000000E+00 0. -1.
         -2   -1    0    0    0  501 -0.00000000000E+00 -0.00000000000E+00 -0.70204807827E+02  0.70204807827E+02  0.00000000000E+00 0.  1.
          5    1    1    2  502    0  0.13193876389E+02  0.91001609901E+02  0.60019070375E+00  0.92050008189E+02  0.41800000000E+01 0. -1.
         -5    1    1    2    0  502  0.66473631688E+01 -0.73971302138E+02  0.50954959199E+02  0.90165521370E+02  0.41800000000E+01 0.  1.
        -11    1    1    2    0    0 -0.16158558308E+02 -0.68875698818E+00  0.85187781786E+02  0.86709466372E+02  0.00000000000E+00 0. -1.
         11    1    1    2    0    0 -0.36826812494E+01 -0.16341550775E+02  0.12939197217E+02  0.21166748629E+02  0.00000000000E+00 0.  1.
</event>
<event>
 7    1  0.1483443E-005  0.3199745E+03  0.7561462E-02  0.1075661E+00
          2   -1    0    0  501    0  0.00000000000E+00  0.00000000000E+00  0.46860140827E+03  0.46860140827E+03  0.00000000000E+00 0. -1.
         -2   -1    0    0    0  501 -0.00000000000E+00 -0.00000000000E+00 -0.23753269812E+03  0.23753269812E+03  0.00000000000E+00 0.  1.
         23    2    1    2    0    0  0.27202081184E+03 -0.14123087583E+03  0.39743377094E+02  0.33341955911E+03  0.12509030343E+03 0.  0.
          5    1    3    3  502    0  0.24416900101E+03 -0.77767099962E+02  0.63319202848E+01  0.25636651206E+03  0.41800000000E+01 0.  1.
         -5    1    3    3    0  502  0.27851810835E+02 -0.63463775868E+02  0.33411456809E+02  0.77053047054E+02  0.41800000000E+01 0.  1.
        -11    1    1    2    0    0 -0.86650330742E+02  0.82842470525E+02  0.10764341305E+03  0.16111566998E+03  0.00000000000E+00 0.  1.
         11    1    1    2    0    0 -0.18537048110E+03  0.58388405305E+02  0.83681920010E+02  0.21159887730E+03  0.00000000000E+00 0. -1.
</event>
<event>
 7    1  0.6473813E-006  0.1564077E+03  0.7561462E-02  0.1192813E+00
          2   -1    0    0  501    0  0.00000000000E+00  0.00000000000E+00  0.28747952780E+02  0.28747952780E+02  0.00000000000E+00 0. -1.
         -2   -1    0    0    0  501 -0.00000000000E+00 -0.00000000000E+00 -0.98797988243E+03  0.98797988243E+03  0.00000000000E+00 0.  1.
         23    2    1    2    0    0  0.26714667149E+02 -0.12632294518E+03 -0.53118918166E+03  0.56078508053E+03  0.12508716923E+03 0.  0.
          5    1    3    3  502    0 -0.35322748200E+02 -0.10969342806E+03 -0.33221540527E+03  0.35166019479E+03  0.41800000000E+01 0.  1.
         -5    1    3    3    0  502  0.62037415349E+02 -0.16629517118E+02 -0.19897377639E+03  0.20912488574E+03  0.41800000000E+01 0.  1.
        -11    1    1    2    0    0 -0.17230215907E+02  0.12107774245E+03 -0.42797330592E+03  0.44510431433E+03  0.00000000000E+00 0.  1.
         11    1    1    2    0    0 -0.94844512420E+01  0.52452027316E+01 -0.69442065655E-01  0.10838440352E+02  0.00000000000E+00 0. -1.
</event>
<event>
 7    1  0.6473813E-006  0.1449950E+03  0.7561462E-02  0.1206762E+00
         -2   -1    0    0    0  501 -0.00000000000E+00  0.00000000000E+00  0.80274258348E+02  0.80274258348E+02  0.00000000000E+00 0.  1.
          2   -1    0    0  501    0  0.00000000000E+00 -0.00000000000E+00 -0.43502477488E+03  0.43502477488E+03  0.00000000000E+00 0. -1.
         23    2    1    2    0    0  0.42760720945E+02  0.11471627403E+03 -0.70401060768E+02  0.18865822400E+03  0.12508922153E+03 0.  0.
          5    1    3    3  502    0 -0.72218439423E+01  0.27296504855E+02  0.33428520959E+02  0.43956713034E+02  0.41800000000E+01 0. -1.
         -5    1    3    3    0  502  0.49982564888E+02  0.87419769173E+02 -0.10382958173E+03  0.14470151097E+03  0.41800000000E+01 0. -1.
        -11    1    1    2    0    0  0.34852354556E+02 -0.36761052017E+02 -0.84718163067E+02  0.98707794611E+02  0.00000000000E+00 0. -1.
         11    1    1    2    0    0 -0.77613075501E+02 -0.77955222011E+02 -0.19963129270E+03  0.22793301462E+03  0.00000000000E+00 0.  1.
</event>
<event>
 6    1  0.6473813E-006  0.8324506E+02  0.7561462E-02  0.1320087E+00
          1   -1    0    0  501    0  0.00000000000E+00  0.00000000000E+00  0.63477849346E+03  0.63477849346E+03  0.00000000000E+00 0. -1.
         -1   -1    0    0    0  501 -0.00000000000E+00 -0.00000000000E+00 -0.29330507766E+02  0.29330507766E+02  0.00000000000E+00 0.  1.
          5    1    1    2  502    0 -0.16779880535E+02 -0.41534784783E+01  0.26235610256E+03  0.26295819577E+03  0.41800000000E+01 0. -1.
         -5    1    1    2    0  502 -0.38443661358E+02 -0.18614012546E+02  0.17719637460E+01  0.42953565826E+02  0.41800000000E+01 0.  1.
        -11    1    1    2    0    0  0.67143144858E+02 -0.12733604056E+02  0.25708123844E+03  0.26600960458E+03  0.00000000000E+00 0. -1.
         11    1    1    2    0    0 -0.11919602965E+02  0.35501095081E+02  0.84238680954E+02  0.92187635047E+02  0.00000000000E+00 0.  1.
</event>
<event>
 7    1  0.6473813E-006  0.1053350E+03  0.7561462E-02  0.1269461E+00
         -2   -1    0    0    0  501 -0.00000000000E+00  0.00000000000E+00  0.12345888931E+03  0.12345888931E+03  0.00000000000E+00 0.  1.
          2   -1    0    0  501    0  0.00000000000E+00 -0.00000000000E+00 -0.14459263197E+03  0.14459263197E+03  0.00000000000E+00 0. -1.
         23    2    1    2    0    0  0.41270516635E+02  0.39070541855E+02  0.41910631376E+02  0.14364394826E+03  0.12508924840E+03 0.  0.
          5    1    3    3  502    0  0.73107919064E+02  0.14858609294E+02  0.63448279570E+02  0.98023990331E+02  0.41800000000E+01 0.  1.
         -5    1    3    3    0  502 -0.31837402430E+02  0.24211932560E+02 -0.21537648194E+02  0.45619957930E+02  0.41800000000E+01 0.  1.
        -11    1    1    2    0    0  0.22661452885E+02 -0.16111965487E+02  0.50093785095E+01  0.28252977750E+02  0.00000000000E+00 0.  1.
         11    1    1    2    0    0 -0.63931969520E+02 -0.22958576368E+02 -0.68053752549E+02  0.96154595270E+02  0.00000000000E+00 0. -1.
</event>
<event>
 7    1  0.6473813E-006  0.1408074E+03  0.7561462E-02  0.1212247E+00
         -2   -1    0    0    0  501 -0.00000000000E+00  0.00000000000E+00  0.65354952693E+02  0.65354952693E+02  0.00000000000E+00 0.  1.
          2   -1    0    0  501    0  0.00000000000E+00 -0.00000000000E+00 -0.43268146896E+03  0.43268146896E+03  0.00000000000E+00 0. -1.
         23    2    1    2    0    0  0.93015986956E+02 -0.86528194136E+02 -0.22005827321E+03  0.28321590716E+03  0.12508598741E+03 0.  0.
          5    1    3    3  502    0  0.27988658033E+02 -0.21344450069E+02  0.87770739035E+01  0.36516570945E+02  0.41800000000E+01 0. -1.
         -5    1    3    3    0  502  0.65027328923E+02 -0.65183744067E+02 -0.22883534712E+03  0.24669933621E+03  0.41800000000E+01 0. -1.
        -11    1    1    2    0    0 -0.95911936843E+02  0.34554881482E+02 -0.11451522403E+03  0.15331952256E+03  0.00000000000E+00 0. -1.
         11    1    1    2    0    0  0.28959498873E+01  0.51973312654E+02 -0.32753019023E+02  0.61500991936E+02  0.00000000000E+00 0.  1.
</event>
<event>
 7    1  0.8844825E-006  0.2322978E+03  0.7561462E-02  0.1125033E+00
          2   -1    0    0  501    0  0.00000000000E+00  0.00000000000E+00  0.61604948291E+03  0.61604948291E+03  0.00000000000E+00 0.  1.
         -2   -1    0    0    0  501 -0.00000000000E+00 -0.00000000000E+00 -0.89582145797E+02  0.89582145797E+02  0.00000000000E+00 0. -1.
         23    2    1    2    0    0  0.19177390917E+03  0.76354872702E+02  0.23444706092E+03  0.33648217908E+03  0.12509010208E+03 0.  0.
          5    1    3    3  502    0  0.24468195950E+02  0.69274461520E+02  0.78922908483E+02  0.10790709669E+03  0.41800000000E+01 0. -1.
         -5    1    3    3    0  502  0.16730571322E+03  0.70804111819E+01  0.15552415244E+03  0.22857508239E+03  0.41800000000E+01 0. -1.
        -11    1    1    2    0    0 -0.79478114417E+02  0.12303480903E+02  0.13127883117E+03  0.15395544104E+03  0.00000000000E+00 0.  1.
         11    1    1    2    0    0 -0.11229579475E+03 -0.88658353605E+02  0.16074144503E+03  0.21519400859E+03  0.00000000000E+00 0. -1.
</event>
<event>
 7    1  0.6473813E-006  0.7189934E+02  0.7561462E-02  0.1353751E+00
          2   -1    0    0  501    0  0.00000000000E+00  0.00000000000E+00  0.24018739089E+03  0.24018739089E+03  0.00000000000E+00 0. -1.
         -2   -1    0    0    0  501 -0.00000000000E+00 -0.00000000000E+00 -0.68711944464E+02  0.68711944464E+02  0.00000000000E+00 0.  1.
         23    2    1    2    0    0  0.57239131747E+00 -0.69721867213E+02  0.92309126810E+02  0.17038148190E+03  0.12508960022E+03 0.  0.
          5    1    3    3  502    0 -0.10408287691E+02 -0.32483005774E+02  0.11848722469E+03  0.12337006497E+03  0.41800000000E+01 0.  1.
         -5    1    3    3    0  502  0.10980679009E+02 -0.37238861439E+02 -0.26178097880E+02  0.47011416926E+02  0.41800000000E+01 0.  1.
        -11    1    1    2    0    0  0.35069242120E+01  0.54912231936E+02  0.99100596196E+02  0.11335157652E+03  0.00000000000E+00 0. -1.
         11    1    1    2    0    0 -0.40793155295E+01  0.14809635277E+02 -0.19934276577E+02  0.25166276937E+02  0.00000000000E+00 0.  1.
</event>
<event>
 7    1  0.6473813E-006  0.9831167E+02  0.7561462E-02  0.1283887E+00
          1   -1    0    0  501    0  0.00000000000E+00  0.00000000000E+00  0.14412985549E+03  0.14412985549E+03  0.00000000000E+00 0. -1.
         -1   -1    0    0    0  501 -0.00000000000E+00 -0.00000000000E+00 -0.36766824965E+03  0.36766824965E+03  0.00000000000E+00 0.  1.
         23    2    1    2    0    0 -0.34272749309E+02 -0.79658648347E+02 -0.32160490011E+03  0.35580485568E+03  0.12508901609E+03 0.  0.
          5    1    3    3  502    0 -0.39003442597E+02 -0.69277272103E+02 -0.76535444501E+02  0.11043439514E+03  0.41800000000E+01 0. -1.
         -5    1    3    3    0  502  0.47306932879E+01 -0.10381376244E+02 -0.24506945561E+03  0.24537046054E+03  0.41800000000E+01 0. -1.
        -11    1    1    2    0    0  0.38555652080E+02  0.17136302739E+02  0.80535638757E+02  0.90918536553E+02  0.00000000000E+00 0. -1.
         11    1    1    2    0    0 -0.42829027708E+01  0.62522345608E+02  0.17530867194E+02  0.65074712915E+02  0.00000000000E+00 0.  1.
</event>
<event>
 7    1  0.6473813E-006  0.1687503E+03  0.7561462E-02  0.1179157E+00
          1   -1    0    0  501    0  0.00000000000E+00  0.00000000000E+00  0.15960466453E+03  0.15960466453E+03  0.00000000000E+00 0. -1.
         -1   -1    0    0    0  501 -0.00000000000E+00 -0.00000000000E+00 -0.23683891856E+03  0.23683891856E+03  0.00000000000E+00 0.  1.
         23    2    1    2    0    0 -0.65213772657E+02 -0.11984643293E+03 -0.11406054254E+03  0.21742217860E+03  0.12508634118E+03 0.  0.
          5    1    3    3  502    0  0.64717612552E+01 -0.96260613770E+02 -0.10273585485E+03  0.14099687134E+03  0.41800000000E+01 0. -1.
         -5    1    3    3    0  502 -0.71685533912E+02 -0.23585819161E+02 -0.11324687696E+02  0.76425307256E+02  0.41800000000E+01 0. -1.
        -11    1    1    2    0    0 -0.24098458631E+02  0.19373566592E+02 -0.15719284794E+02  0.34686693491E+02  0.00000000000E+00 0.  1.
         11    1    1    2    0    0  0.89312231288E+02  0.10047286634E+03  0.52545573305E+02  0.14433471101E+03  0.00000000000E+00 0. -1.
</event>
<event>
 7    1  0.6473813E-006  0.8244445E+02  0.7561462E-02  0.1322254E+00
          1   -1    0    0  501    0  0.00000000000E+00  0.00000000000E+00  0.21888387749E+03  0.21888387749E+03  0.00000000000E+00 0. -1.
         -1   -1    0    0    0  501 -0.00000000000E+00 -0.00000000000E+00 -0.69764207218E+02  0.69764207218E+02  0.00000000000E+00 0.  1.
         23    2    1    2    0    0 -0.28361686123E+02  0.51227100487E+02  0.74416983022E+02  0.15692862989E+03  0.12514034702E+03 0.  0.
          5    1    3    3  502    0 -0.51625565977E+01  0.73202862179E+02  0.93916933958E+02  0.11926094879E+03  0.41800000000E+01 0. -1.
         -5    1    3    3    0  502 -0.23199129525E+02 -0.21975761692E+02 -0.19499950937E+02  0.37667681097E+02  0.41800000000E+01 0. -1.
        -11    1    1    2    0    0  0.15761951783E+02 -0.36616012738E+02 -0.12991551174E+02  0.41927937163E+02  0.00000000000E+00 0.  1.
         11    1    1    2    0    0  0.12599734340E+02 -0.14611087748E+02  0.87694238420E+02  0.89791517654E+02  0.00000000000E+00 0. -1.
</event>
<event>
 6    1  0.6473813E-006  0.3028579E+03  0.7561462E-02  0.1083821E+00
         -2   -1    0    0    0  501 -0.00000000000E+00  0.00000000000E+00  0.11990411405E+03  0.11990411405E+03  0.00000000000E+00 0.  1.
          2   -1    0    0  501    0  0.00000000000E+00 -0.00000000000E+00 -0.87296624514E+03  0.87296624514E+03  0.00000000000E+00 0. -1.
          5    1    1    2  502    0  0.83677459278E+02  0.25151005208E+03 -0.33692050987E+03  0.42870983877E+03  0.41800000000E+01 0. -1.
         -5    1    1    2    0  502  0.31458514465E+02 -0.18566880517E+03 -0.10974127201E+03  0.21799807918E+03  0.41800000000E+01 0.  1.
        -11    1    1    2    0    0 -0.49460068838E+01  0.14868949899E+02 -0.71694816415E+01  0.17232240777E+02  0.00000000000E+00 0.  1.
         11    1    1    2    0    0 -0.11018996686E+03 -0.80710196815E+02 -0.29923086757E+03  0.32893020046E+03  0.00000000000E+00 0. -1.
</event>
<event>
 7    1  0.6473813E-006  0.8684240E+02  0.7561462E-02  0.1310684E+00
         -2   -1    0    0    0  501 -0.00000000000E+00  0.00000000000E+00  0.71043943263E+03  0.71043943263E+03  0.00000000000E+00 0.  1.
          2   -1    0    0  501    0  0.00000000000E+00 -0.00000000000E+00 -0.28482584357E+02  0.28482584357E+02  0.00000000000E+00 0. -1.
         23    2    1    2    0    0 -0.19526764370E+02  0.50927370134E+02  0.57122263390E+03  0.58729643725E+03  0.12508763396E+03 0.  0.
          5    1    3    3  502    0 -0.24718137191E+02 -0.18811646410E+02  0.41384509777E+03  0.41503024190E+03  0.41800000000E+01 0.  1.
         -5    1    3    3    0  502  0.51913728210E+01  0.69739016544E+02  0.15737753613E+03  0.17226619535E+03  0.41800000000E+01 0.  1.
        -11    1    1    2    0    0  0.28743892599E+02 -0.10155720488E+02  0.10511822776E+03  0.10944949441E+03  0.00000000000E+00 0.  1.
         11    1    1    2    0    0 -0.92171282297E+01 -0.40771649646E+02  0.56159866156E+01  0.42176085324E+02  0.00000000000E+00 0. -1.
</event>
<event>
 7    1  0.6473813E-006  0.1235579E+03  0.7561462E-02  0.1237340E+00
          1   -1    0    0  501    0  0.00000000000E+00  0.00000000000E+00  0.55784945672E+03  0.55784945672E+03  0.00000000000E+00 0. -1.
         -1   -1    0    0    0  501 -0.00000000000E+00 -0.00000000000E+00 -0.33287830190E+02  0.33287830190E+02  0.00000000000E+00 0.  1.
         23    2    1    2    0    0  0.79854424715E+01  0.78288778466E+02  0.23772948506E+03  0.27992326966E+03  0.12509527851E+03 0.  0.
          5    1    3    3  502    0 -0.93496593220E+00  0.10167583015E+03  0.23280082099E+03  0.25407192536E+03  0.41800000000E+01 0. -1.
         -5    1    3    3    0  502  0.89204084037E+01 -0.23387051688E+02  0.49286640655E+01  0.25851344302E+02  0.41800000000E+01 0. -1.
        -11    1    1    2    0    0  0.36513656951E+02 -0.63191560338E+02  0.15683002875E+03  0.17297999410E+03  0.00000000000E+00 0. -1.
         11    1    1    2    0    0 -0.44499099422E+02 -0.15097218128E+02  0.13000211272E+03  0.13823402315E+03  0.00000000000E+00 0.  1.
</event>
<event>
 7    1  0.6473813E-006  0.9101490E+02  0.7561462E-02  0.1300412E+00
         -2   -1    0    0    0  501 -0.00000000000E+00  0.00000000000E+00  0.47005703590E+03  0.47005703590E+03  0.00000000000E+00 0.  1.
          2   -1    0    0  501    0  0.00000000000E+00 -0.00000000000E+00 -0.40262392271E+02  0.40262392271E+02  0.00000000000E+00 0. -1.
         23    2    1    2    0    0  0.48034117174E+02  0.84276341033E+01  0.36491041385E+03  0.38882643910E+03  0.12509231862E+03 0.  0.
          5    1    3    3  502    0  0.87472484643E+02 -0.80428462252E+00  0.18959096075E+03  0.20884033911E+03  0.41800000000E+01 0.  1.
         -5    1    3    3    0  502 -0.39438367469E+02  0.92319187259E+01  0.17531945310E+03  0.17998609999E+03  0.41800000000E+01 0.  1.
        -11    1    1    2    0    0 -0.33632315293E+02 -0.16242150559E+02  0.86587422645E+02  0.94299108411E+02  0.00000000000E+00 0.  1.
         11    1    1    2    0    0 -0.14401801881E+02  0.78145164558E+01 -0.21703192866E+02  0.27193880662E+02  0.00000000000E+00 0. -1.
</event>
<event>
 7    1  0.6473813E-006  0.1126442E+03  0.7561462E-02  0.1255750E+00
          2   -1    0    0  501    0  0.00000000000E+00  0.00000000000E+00  0.17829047949E+03  0.17829047949E+03  0.00000000000E+00 0. -1.
         -2   -1    0    0    0  501 -0.00000000000E+00 -0.00000000000E+00 -0.13597163582E+03  0.13597163582E+03  0.00000000000E+00 0.  1.
         23    2    1    2    0    0 -0.93948997961E+02 -0.31057469901E+02 -0.29269529841E+02  0.16215780147E+03  0.12508983391E+03 0.  0.
          5    1    3    3  502    0 -0.65369700710E+02  0.11402356382E+02  0.38730083978E+02  0.76946106509E+02  0.41800000000E+01 0. -1.
         -5    1    3    3    0  502 -0.28579297251E+02 -0.42459826282E+02 -0.67999613819E+02  0.85211694965E+02  0.41800000000E+01 0. -1.
        -11    1    1    2    0    0  0.60718235539E+02 -0.17598740619E+01  0.84109799849E+02  0.10375095043E+03  0.00000000000E+00 0. -1.
         11    1    1    2    0    0  0.33230762422E+02  0.32817343962E+02 -0.12521426338E+02  0.48353363414E+02  0.00000000000E+00 0.  1.
</event>
<event>
 7    1  0.6473813E-006  0.1372033E+03  0.7561462E-02  0.1217142E+00
         -1   -1    0    0    0  501 -0.00000000000E+00  0.00000000000E+00  0.42879144508E+02  0.42879144508E+02  0.00000000000E+00 0.  1.
          1   -1    0    0  501    0  0.00000000000E+00 -0.00000000000E+00 -0.56711195035E+03  0.56711195035E+03  0.00000000000E+00 0. -1.
         23    2    1    2    0    0  0.75322823258E+02 -0.66700200059E+02 -0.17701252863E+03  0.23896568784E+03  0.12509484514E+03 0.  0.
          5    1    3    3  502    0  0.45896116568E+02  0.26771836764E+02 -0.27034112221E+02  0.59762031285E+02  0.41800000000E+01 0. -1.
         -5    1    3    3    0  502  0.29426706690E+02 -0.93472036823E+02 -0.14997841641E+03  0.17920365655E+03  0.41800000000E+01 0. -1.
        -11    1    1    2    0    0 -0.12639687453E+02  0.58450371453E+02 -0.23216788831E+03  0.23974598220E+03  0.00000000000E+00 0. -1.
         11    1    1    2    0    0 -0.62683135805E+02  0.82498286057E+01 -0.11505238891E+03  0.13127942481E+03  0.00000000000E+00 0.  1.
</event>
<event>
 7    1  0.6473813E-006  0.1376574E+03  0.7561462E-02  0.1216516E+00
          1   -1    0    0  501    0  0.00000000000E+00  0.00000000000E+00  0.61949503018E+02  0.61949503018E+02  0.00000000000E+00 0. -1.
         -1   -1    0    0    0  501 -0.00000000000E+00 -0.00000000000E+00 -0.32044511821E+03  0.32044511821E+03  0.00000000000E+00 0.  1.
         23    2    1    2    0    0 -0.41680439146E+02 -0.77107644936E+02 -0.16841319958E+03  0.22736144069E+03  0.12508945202E+03 0.  0.
          5    1    3    3  502    0 -0.57601693836E+02  0.11624435816E+02 -0.43373224696E+02  0.73155940711E+02  0.41800000000E+01 0. -1.
         -5    1    3    3    0  502  0.15921254690E+02 -0.88732080752E+02 -0.12503997488E+03  0.15420549998E+03  0.41800000000E+01 0. -1.
        -11    1    1    2    0    0 -0.29081805350E+02  0.23109589887E+02 -0.25309091995E+02  0.44948355752E+02  0.00000000000E+00 0. -1.
         11    1    1    2    0    0  0.70762244496E+02  0.53998055049E+02 -0.64773323619E+02  0.11008482478E+03  0.00000000000E+00 0.  1.
</event>
<event>
 7    1  0.6473813E-006  0.2103605E+03  0.7561462E-02  0.1141281E+00
         -2   -1    0    0    0  501 -0.00000000000E+00  0.00000000000E+00  0.56828277626E+02  0.56828277626E+02  0.00000000000E+00 0.  1.
          2   -1    0    0  501    0  0.00000000000E+00 -0.00000000000E+00 -0.98044477603E+03  0.98044477603E+03  0.00000000000E+00 0. -1.
         23    2    1    2    0    0 -0.71610140404E+02 -0.19526110948E+03 -0.42407429010E+03  0.48861234377E+03  0.12509238934E+03 0.  0.
          5    1    3    3  502    0 -0.71670850965E+01 -0.14377317359E+02 -0.16643115128E+03  0.16725691280E+03  0.41800000000E+01 0.  1.
         -5    1    3    3    0  502 -0.64443055308E+02 -0.18088379212E+03 -0.25764313883E+03  0.32135543097E+03  0.41800000000E+01 0.  1.
        -11    1    1    2    0    0  0.38553178721E+02  0.50312883880E+02 -0.71581162042E+02  0.95611697156E+02  0.00000000000E+00 0.  1.
         11    1    1    2    0    0  0.33056961683E+02  0.14494822560E+03 -0.42796104626E+03  0.45304901273E+03  0.00000000000E+00 0. -1.
</event>
<event>
 7    1  0.6473813E-006  0.1130102E+03  0.7561462E-02  0.1255095E+00
          2   -1    0    0  501    0  0.00000000000E+00  0.00000000000E+00  0.62151807791E+02  0.62151807791E+02  0.00000000000E+00 0. -1.
         -2   -1    0    0    0  501 -0.00000000000E+00 -0.00000000000E+00 -0.26277187431E+03  0.26277187431E+03  0.00000000000E+00 0.  1.
         23    2    1    2    0    0 -0.33519261464E+02 -0.53684641364E+02 -0.14156590525E+03  0.19923377793E+03  0.12509041182E+03 0.  0.
          5    1    3    3  502    0 -0.56119162991E+02  0.20364318088E+02 -0.81718523618E+02  0.10128896983E+03  0.41800000000E+01 0. -1.
         -5    1    3    3    0  502  0.22599901527E+02 -0.74048959452E+02 -0.59847381636E+02  0.97944808100E+02  0.41800000000E+01 0. -1.
        -11    1    1    2    0    0  0.48467398297E+02  0.21237884154E+02 -0.70524275630E+02  0.88169211600E+02  0.00000000000E+00 0.  1.
         11    1    1    2    0    0 -0.14948136833E+02  0.32446757211E+02  0.11470114361E+02  0.37520692580E+02  0.00000000000E+00 0. -1.
</event>
<event>
 6    1  0.6473813E-006  0.9950660E+02  0.7561462E-02  0.1281337E+00
         -1   -1    0    0    0  501 -0.00000000000E+00  0.00000000000E+00  0.24434576851E+03  0.24434576851E+03  0.00000000000E+00 0.  1.
          1   -1    0    0  501    0  0.00000000000E+00 -0.00000000000E+00 -0.11433139705E+03  0.11433139705E+03  0.00000000000E+00 0. -1.
          5    1    1    2  502    0  0.42478500187E+02 -0.18070597938E+02  0.27885668339E+02  0.54092997575E+02  0.41800000000E+01 0. -1.
         -5    1    1    2    0  502 -0.59388617481E+02  0.56448788640E+02  0.16607564853E+03  0.18523516691E+03  0.41800000000E+01 0.  1.
        -11    1    1    2    0    0 -0.27130046086E+01  0.14221891907E+02  0.16051677188E+02  0.21616635815E+02  0.00000000000E+00 0.  1.
         11    1    1    2    0    0  0.19623121903E+02 -0.52600082609E+02 -0.79998622591E+02  0.97732365264E+02  0.00000000000E+00 0. -1.
</event>
<event>
 6    1  0.6473813E-006  0.1127015E+03  0.7561462E-02  0.1255647E+00
         -3   -1    0    0    0  501 -0.00000000000E+00  0.00000000000E+00  0.18183323100E+03  0.18183323100E+03  0.00000000000E+00 0.  1.
          3   -1    0    0  501    0  0.00000000000E+00 -0.00000000000E+00 -0.10379032705E+03  0.10379032705E+03  0.00000000000E+00 0. -1.
          5    1    1    2  502    0  0.70508778795E+02  0.38937580552E+01  0.34120057235E+02  0.78538525226E+02  0.41800000000E+01 0. -1.
         -5    1    1    2    0  502 -0.61953478155E+02  0.34532494968E+00  0.85158357108E+02  0.10539341009E+03  0.41800000000E+01 0.  1.
        -11    1    1    2    0    0  0.75845020859E+01 -0.46612142625E+02 -0.16393442676E+02  0.49989613669E+02  0.00000000000E+00 0. -1.
         11    1    1    2    0    0 -0.16139802726E+02  0.42373059620E+02 -0.24842067718E+02  0.51702009073E+02  0.00000000000E+00 0.  1.
</event>
<event>
 7    1  0.6473813E-006  0.1295159E+03  0.7561462E-02  0.1228176E+00
         -1   -1    0    0    0  501 -0.00000000000E+00  0.00000000000E+00  0.40007350919E+02  0.40007350919E+02  0.00000000000E+00 0.  1.
          1   -1    0    0  501    0  0.00000000000E+00 -0.00000000000E+00 -0.51253556522E+03  0.51253556522E+03  0.00000000000E+00 0. -1.
         23    2    1    2    0    0  0.53672166066E+02 -0.54264835603E+01 -0.13852855451E+03  0.19428724173E+03  0.12508886342E+03 0.  0.
          5    1    3    3  502    0 -0.39530857226E+02 -0.44384186130E+01 -0.24316970704E+02  0.46809995695E+02  0.41800000000E+01 0.  1.
         -5    1    3    3    0  502  0.93203023291E+02 -0.98806494732E+00 -0.11421158381E+03  0.14747724604E+03  0.41800000000E+01 0.  1.
        -11    1    1    2    0    0 -0.56585734286E+02  0.53320136240E+02 -0.16204346288E+03  0.17973053751E+03  0.00000000000E+00 0.  1.
         11    1    1    2    0    0  0.29135682200E+01 -0.47893652680E+02 -0.17195619691E+03  0.17852513689E+03  0.00000000000E+00 0. -1.
</event>
<event>
 7    1  0.6473813E-006  0.8352050E+02  0.7561462E-02  0.1319348E+00
          2   -1    0    0  501    0  0.00000000000E+00  0.00000000000E+00  0.11599507539E+03  0.11599507539E+03  0.00000000000E+00 0.  1.
         -2   -1    0    0    0  501 -0.00000000000E+00 -0.00000000000E+00 -0.22310970361E+03  0.22310970361E+03  0.00000000000E+00 0. -1.
         23    2    1    2    0    0 -0.26584393564E+02 -0.91136244431E+01 -0.17953991647E+03  0.22061849603E+03  0.12509256993E+03 0.  0.
          5    1    3    3  502    0  0.20295579589E+02 -0.52298148061E+02 -0.12324453326E+03  0.13547580677E+03  0.41800000000E+01 0.  1.
         -5    1    3    3    0  502 -0.46879973153E+02  0.43184523618E+02 -0.56295383209E+02  0.85142689255E+02  0.41800000000E+01 0.  1.
        -11    1    1    2    0    0 -0.80245525642E+01  0.93244470987E+01 -0.17921385964E+02  0.21737406295E+02  0.00000000000E+00 0. -1.
         11    1    1    2    0    0  0.34608946128E+02 -0.21082265562E+00  0.90346674214E+02  0.96748876685E+02  0.00000000000E+00 0.  1.
</event>
<event>
 7    1  0.6473813E-006  0.6301196E+02  0.7561462E-02  0.1385610E+00
          1   -1    0    0  501    0  0.00000000000E+00  0.00000000000E+00  0.33544620403E+02  0.33544620403E+02  0.00000000000E+00 0. -1.
         -1   -1    0    0    0  501 -0.00000000000E+00 -0.00000000000E+00 -0.43132420453E+03  0.43132420453E+03  0.00000000000E+00 0.  1.
         23    2    1    2    0    0 -0.91230805527E+01 -0.16714767142E+02 -0.32052506655E+03  0.34459641695E+03  0.12509099989E+03 0.  0.
          5    1    3    3  502    0 -0.99959892132E+00 -0.29055629218E+02 -0.32672126421E+03  0.32803884781E+03  0.41800000000E+01 0.  1.
         -5    1    3    3    0  502 -0.81234816314E+01  0.12340862076E+02  0.61961976587E+01  0.16557569146E+02  0.41800000000E+01 0.  1.
        -11    1    1    2    0    0  0.44174269470E+02  0.56079352738E+01 -0.13250110135E+02  0.46458373194E+02  0.00000000000E+00 0.  1.
         11    1    1    2    0    0 -0.35051188918E+02  0.11106831868E+02 -0.64004407442E+02  0.73814034781E+02  0.00000000000E+00 0. -1.
</event>
<event>
 7    1  0.6473813E-006  0.7672143E+02  0.7561462E-02  0.1338622E+00
         -1   -1    0    0    0  501 -0.00000000000E+00  0.00000000000E+00  0.31335871387E+03  0.31335871387E+03  0.00000000000E+00 0.  1.
          1   -1    0    0  501    0  0.00000000000E+00 -0.00000000000E+00 -0.41376763583E+02  0.41376763583E+02  0.00000000000E+00 0. -1.
         23    2    1    2    0    0  0.62222317318E-01 -0.35871506148E+02  0.15881792439E+03  0.20532248120E+03  0.12508964527E+03 0.  0.
          5    1    3    3  502    0  0.10093092342E+02 -0.70141637905E+02  0.40640788079E+02  0.81797713518E+02  0.41800000000E+01 0.  1.
         -5    1    3    3    0  502 -0.10030870025E+02  0.34270131757E+02  0.11817713631E+03  0.12352476768E+03  0.41800000000E+01 0.  1.
        -11    1    1    2    0    0 -0.10221995531E+02  0.34820385769E+02  0.12707482865E+03  0.13215506246E+03  0.00000000000E+00 0.  1.
         11    1    1    2    0    0  0.10159773213E+02  0.10511203789E+01 -0.13910802749E+02  0.17257933797E+02  0.00000000000E+00 0. -1.
</event>
<event>
 7    1  0.6473813E-006  0.1017001E+03  0.7561462E-02  0.1276761E+00
         -1   -1    0    0    0  501 -0.00000000000E+00  0.00000000000E+00  0.34261229075E+02  0.34261229075E+02  0.00000000000E+00 0.  1.
          1   -1    0    0  501    0  0.00000000000E+00 -0.00000000000E+00 -0.41014332490E+03  0.41014332490E+03  0.00000000000E+00 0. -1.
         23    2    1    2    0    0  0.15252426470E+02 -0.28397277523E+01 -0.13316644504E+03  0.18334079788E+03  0.12505936795E+03 0.  0.
          5    1    3    3  502    0  0.30514344713E+02  0.55422367141E+02 -0.50954918721E+02  0.81342732648E+02  0.41800000000E+01 0. -1.
         -5    1    3    3    0  502 -0.15261918243E+02 -0.58262094894E+02 -0.82211526322E+02  0.10199806523E+03  0.41800000000E+01 0. -1.
        -11    1    1    2    0    0  0.87552412396E+00 -0.36808617337E+02 -0.18812120610E+03  0.19169045109E+03  0.00000000000E+00 0. -1.
         11    1    1    2    0    0 -0.16127950594E+02  0.39648345090E+02 -0.54594444684E+02  0.69373305018E+02  0.00000000000E+00 0.  1.
</event>
<event>
 7    1  0.6473813E-006  0.1950531E+03  0.7561462E-02  0.1153981E+00
          1   -1    0    0  501    0  0.00000000000E+00  0.00000000000E+00  0.97232747800E+02  0.97232747800E+02  0.00000000000E+00 0. -1.
         -1   -1    0    0    0  501 -0.00000000000E+00 -0.00000000000E+00 -0.51892987028E+03  0.51892987028E+03  0.00000000000E+00 0.  1.
         23    2    1    2    0    0  0.19324044883E+03  0.22186415029E+02 -0.25616368842E+03  0.34511149901E+03  0.12509197977E+03 0.  0.
          5    1    3    3  502    0  0.14202959382E+02  0.39381117894E+01 -0.11588820134E+03  0.11689645157E+03  0.41800000000E+01 0.  1.
         -5    1    3    3    0  502  0.17903748945E+03  0.18248303240E+02 -0.14027548708E+03  0.22821504743E+03  0.41800000000E+01 0.  1.
        -11    1    1    2    0    0 -0.73451386695E+02 -0.13381411491E+02 -0.11215380794E+02  0.75498034062E+02  0.00000000000E+00 0. -1.
         11    1    1    2    0    0 -0.11978906214E+03 -0.88050035377E+01 -0.15431805326E+03  0.19555308501E+03  0.00000000000E+00 0.  1.
</event>
<event>
 7    1  0.6473813E-006  0.1151890E+03  0.7561462E-02  0.1251252E+00
          1   -1    0    0  501    0  0.00000000000E+00  0.00000000000E+00  0.21289517991E+03  0.21289517991E+03  0.00000000000E+00 0. -1.
         -1   -1    0    0    0  501 -0.00000000000E+00 -0.00000000000E+00 -0.15936406477E+03  0.15936406477E+03  0.00000000000E+00 0.  1.
         23    2    1    2    0    0 -0.81932611358E+02  0.46551296127E+02 -0.90570148094E+02  0.18090446513E+03  0.12507396932E+03 0.  0.
          5    1    3    3  502    0 -0.87685215924E+02  0.47288139391E+01 -0.82526737164E+01  0.88298571882E+02  0.41800000000E+01 0.  1.
         -5    1    3    3    0  502  0.57526045659E+01  0.41822482188E+02 -0.82317474378E+02  0.92605893244E+02  0.41800000000E+01 0.  1.
        -11    1    1    2    0    0  0.44305655630E+02 -0.59764736605E+01  0.12509771075E+03  0.13284632698E+03  0.00000000000E+00 0. -1.
         11    1    1    2    0    0  0.37626955728E+02 -0.40574822466E+02  0.19003552485E+02  0.58508452574E+02  0.00000000000E+00 0.  1.
</event>
<event>
 7    1  0.6473813E-006  0.1206720E+03  0.7561462E-02  0.1241993E+00
          3   -1    0    0  501    0  0.00000000000E+00  0.00000000000E+00  0.63601531266E+03  0.63601531266E+03  0.00000000000E+00 0. -1.
         -3   -1    0    0    0  501 -0.00000000000E+00 -0.00000000000E+00 -0.25793768261E+02  0.25793768261E+02  0.00000000000E+00 0.  1.
         23    2    1    2    0    0 -0.50657468949E+02 -0.30470138242E+02  0.24238280392E+03  0.27909018777E+03  0.12508917135E+03 0.  0.
          5    1    3    3  502    0  0.31578912469E+01  0.44046053191E+02  0.10216223717E+03  0.11137603954E+03  0.41800000000E+01 0.  1.
         -5    1    3    3    0  502 -0.53815360196E+02 -0.74516191433E+02  0.14022056674E+03  0.16771414823E+03  0.41800000000E+01 0.  1.
        -11    1    1    2    0    0 -0.21381146959E+02  0.24755047967E+02  0.95072015466E+02  0.10054180210E+03  0.00000000000E+00 0.  1.
         11    1    1    2    0    0  0.72038615909E+02  0.57150902756E+01  0.27276672501E+03  0.28217709105E+03  0.00000000000E+00 0. -1.
</event>
<event>
 7    1  0.6473813E-006  0.1293450E+03  0.7561462E-02  0.1228431E+00
         -1   -1    0    0    0  501 -0.00000000000E+00  0.00000000000E+00  0.33587433688E+03  0.33587433688E+03  0.00000000000E+00 0.  1.
          1   -1    0    0  501    0  0.00000000000E+00 -0.00000000000E+00 -0.63679155916E+02  0.63679155916E+02  0.00000000000E+00 0. -1.
         23    2    1    2    0    0 -0.45457770273E+02 -0.57581361918E+02  0.23016181852E+03  0.27203799045E+03  0.12509269933E+03 0.  0.
          5    1    3    3  502    0  0.14682520130E+02  0.30579933842E+02  0.31467829088E+02  0.46458642023E+02  0.41800000000E+01 0. -1.
         -5    1    3    3    0  502 -0.60140290403E+02 -0.88161295760E+02  0.19869398943E+03  0.22557934842E+03  0.41800000000E+01 0. -1.
        -11    1    1    2    0    0  0.49397889263E+02 -0.96757823655E+01  0.31351025634E+02  0.59301425247E+02  0.00000000000E+00 0. -1.
         11    1    1    2    0    0 -0.39401189896E+01  0.67257144284E+02  0.10682336811E+02  0.68214077100E+02  0.00000000000E+00 0.  1.
</event>
<event>
 7    1  0.6473813E-006  0.8128113E+02  0.7561462E-02  0.1325455E+00
         -1   -1    0    0    0  501 -0.00000000000E+00  0.00000000000E+00  0.44716205692E+03  0.44716205692E+03  0.00000000000E+00 0.  1.
          1   -1    0    0  501    0  0.00000000000E+00 -0.00000000000E+00 -0.37887122984E+02  0.37887122984E+02  0.00000000000E+00 0. -1.
         23    2    1    2    0    0 -0.97505191894E+01 -0.42252927370E+02  0.33300781344E+03  0.35836327052E+03  0.12509855056E+03 0.  0.
          5    1    3    3  502    0  0.27600761419E+02 -0.30467215218E+01  0.28345698731E+03  0.28484455515E+03  0.41800000000E+01 0. -1.
         -5    1    3    3    0  502 -0.37351280608E+02 -0.39206205849E+02  0.49550826126E+02  0.73518715372E+02  0.41800000000E+01 0. -1.
        -11    1    1    2    0    0  0.37801739775E+02  0.34222432318E+02  0.69309855791E+01  0.51460518505E+02  0.00000000000E+00 0. -1.
         11    1    1    2    0    0 -0.28051220585E+02  0.80304950529E+01  0.69336134918E+02  0.75225390876E+02  0.00000000000E+00 0.  1.
</event>
<event>
 7    1  0.6473813E-006  0.1221391E+03  0.7561462E-02  0.1239609E+00
          1   -1    0    0  501    0  0.00000000000E+00  0.00000000000E+00  0.42757987063E+02  0.42757987063E+02  0.00000000000E+00 0. -1.
         -1   -1    0    0    0  501 -0.00000000000E+00 -0.00000000000E+00 -0.42215257699E+03  0.42215257699E+03  0.00000000000E+00 0.  1.
         23    2    1    2    0    0 -0.70653551097E+02  0.28796517286E+02 -0.18037071475E+03  0.23238627670E+03  0.12509445699E+03 0.  0.
          5    1    3    3  502    0 -0.51509893122E+02  0.66002011118E+02 -0.55271351060E+02  0.10040881042E+03  0.41800000000E+01 0. -1.
         -5    1    3    3    0  502 -0.19143657974E+02 -0.37205493831E+02 -0.12509936369E+03  0.13197746629E+03  0.41800000000E+01 0. -1.
        -11    1    1    2    0    0  0.76195450003E+01  0.30755101065E+02 -0.72659719790E+02  0.79267702045E+02  0.00000000000E+00 0.  1.
         11    1    1    2    0    0  0.63034006096E+02 -0.59551618351E+02 -0.12636415538E+03  0.15325658530E+03  0.00000000000E+00 0. -1.
</event>
<event>
 7    1  0.6473813E-006  0.7777863E+02  0.7561462E-02  0.1335476E+00
         -2   -1    0    0    0  501 -0.00000000000E+00  0.00000000000E+00  0.14575505400E+03  0.14575505400E+03  0.00000000000E+00 0.  1.
          2   -1    0    0  501    0  0.00000000000E+00 -0.00000000000E+00 -0.99617141035E+02  0.99617141035E+02  0.00000000000E+00 0. -1.
         23    2    1    2    0    0  0.92684605566E+01 -0.43785685279E+02  0.72108421746E+02  0.13912798186E+03  0.11024463820E+03 0.  0.
          5    1    3    3  502    0  0.12947074059E+02 -0.36145975883E+01 -0.27877618270E+02  0.31230210419E+02  0.41800000000E+01 0. -1.
         -5    1    3    3    0  502 -0.36786135027E+01 -0.40171087690E+02  0.99986040015E+02  0.10789777144E+03  0.41800000000E+01 0.  1.
        -11    1    1    2    0    0 -0.45339668245E+02  0.15276958359E+01 -0.11172230478E+01  0.45379153347E+02  0.00000000000E+00 0.  1.
         11    1    1    2    0    0  0.36071207688E+02  0.42257989443E+02 -0.24853285737E+02  0.60865059827E+02  0.00000000000E+00 0. -1.
</event>
<event>
 7    1  0.6473813E-006  0.1010751E+03  0.7561462E-02  0.1278051E+00
         -1   -1    0    0    0  501 -0.00000000000E+00  0.00000000000E+00  0.38394288137E+03  0.38394288137E+03  0.00000000000E+00 0.  1.
          1   -1    0    0  501    0  0.00000000000E+00 -0.00000000000E+00 -0.40294062534E+02  0.40294062534E+02  0.00000000000E+00 0. -1.
         23    2    1    2    0    0  0.15233858357E+02  0.20727996906E+02  0.28621671635E+03  0.31341486708E+03  0.12508856819E+03 0.  0.
          5    1    3    3  502    0  0.11211925552E+02  0.69304265891E+02  0.22078914134E+03  0.23171988667E+03  0.41800000000E+01 0.  1.
         -5    1    3    3    0  502  0.40219328052E+01 -0.48576268985E+02  0.65427575010E+02  0.81694980407E+02  0.41800000000E+01 0.  1.
        -11    1    1    2    0    0  0.27828196998E+02  0.10460251119E+02  0.48529885722E+02  0.56911995307E+02  0.00000000000E+00 0.  1.
         11    1    1    2    0    0 -0.43062055355E+02 -0.31188248025E+02  0.89022167657E+01  0.53910081521E+02  0.00000000000E+00 0. -1.
</event>
<event>
 7    1  0.6473813E-006  0.1215690E+03  0.7561462E-02  0.1240531E+00
          1   -1    0    0  501    0  0.00000000000E+00  0.00000000000E+00  0.73547863821E+02  0.73547863821E+02  0.00000000000E+00 0. -1.
         -1   -1    0    0    0  501 -0.00000000000E+00 -0.00000000000E+00 -0.78345794059E+03  0.78345794059E+03  0.00000000000E+00 0.  1.
         23    2    1    2    0    0  0.47233152802E+02  0.83741912015E+02 -0.70861705991E+03  0.72563897657E+03  0.12316699303E+03 0.  0.
          5    1    3    3  502    0 -0.35809176951E+02  0.34935825358E+02 -0.37579640986E+03  0.37913483500E+03  0.41800000000E+01 0. -1.
         -5    1    3    3    0  502  0.83042329753E+02  0.48806086656E+02 -0.33282065004E+03  0.34650414156E+03  0.41800000000E+01 0.  1.
        -11    1    1    2    0    0 -0.35219416250E+02 -0.69304574424E+02  0.38953478218E+02  0.86953463314E+02  0.00000000000E+00 0. -1.
         11    1    1    2    0    0 -0.12013736552E+02 -0.14437337590E+02 -0.40246495081E+02  0.44413364531E+02  0.00000000000E+00 0.  1.
</event>
<event>
 6    1  0.6473813E-006  0.8236765E+02  0.7561462E-02  0.1322464E+00
          1   -1    0    0  501    0  0.00000000000E+00  0.00000000000E+00  0.42456801908E+03  0.42456801908E+03  0.00000000000E+00 0. -1.
         -1   -1    0    0    0  501 -0.00000000000E+00 -0.00000000000E+00 -0.61619290167E+02  0.61619290167E+02  0.00000000000E+00 0.  1.
          5    1    1    2  502    0  0.34178317768E+02  0.11303439929E+02  0.91171807031E+02  0.98110631213E+02  0.41800000000E+01 0. -1.
         -5    1    1    2    0  502  0.20614634258E+02 -0.27582585298E+02 -0.43436406649E+02  0.55587372486E+02  0.41800000000E+01 0.  1.
        -11    1    1    2    0    0 -0.23123134574E+02  0.45294162569E+02  0.91433023266E+02  0.10462427184E+03  0.00000000000E+00 0.  1.
         11    1    1    2    0    0 -0.31669817453E+02 -0.29015017199E+02  0.22378030527E+03  0.22786503371E+03  0.00000000000E+00 0. -1.
</event>
<event>
 7    1  0.6473813E-006  0.1130853E+03  0.7561462E-02  0.1254961E+00
          2   -1    0    0  501    0  0.00000000000E+00  0.00000000000E+00  0.27229236819E+03  0.27229236819E+03  0.00000000000E+00 0. -1.
         -2   -1    0    0    0  501 -0.00000000000E+00 -0.00000000000E+00 -0.64484989106E+02  0.64484989106E+02  0.00000000000E+00 0.  1.
         23    2    1    2    0    0  0.23443673670E+02 -0.70067137035E+02  0.87591643411E+02  0.16964310426E+03  0.12508987690E+03 0.  0.
          5    1    3    3  502    0  0.16752440829E+02  0.16240993843E+02 -0.20330728177E+02  0.31228593675E+02  0.41800000000E+01 0.  1.
         -5    1    3    3    0  502  0.66912328410E+01 -0.86308130879E+02  0.10792237159E+03  0.13841451059E+03  0.41800000000E+01 0.  1.
        -11    1    1    2    0    0 -0.39517753423E+02  0.85076282973E+02  0.92359152405E+02  0.13164284938E+03  0.00000000000E+00 0. -1.
         11    1    1    2    0    0  0.16074079753E+02 -0.15009145938E+02  0.27856583273E+02  0.35491403654E+02  0.00000000000E+00 0.  1.
</event>
<event>
 7    1  0.6473813E-006  0.1529578E+03  0.7561462E-02  0.1196885E+00
         -1   -1    0    0    0  501 -0.00000000000E+00  0.00000000000E+00  0.23085978876E+03  0.23085978876E+03  0.00000000000E+00 0.  1.
          1   -1    0    0  501    0  0.00000000000E+00 -0.00000000000E+00 -0.27744903011E+03  0.27744903011E+03  0.00000000000E+00 0. -1.
         23    2    1    2    0    0 -0.14533326269E+03 -0.18732247596E+02  0.15203275715E+03  0.24542777921E+03  0.12509269050E+03 0.  0.
          5    1    3    3  502    0 -0.74515945144E+02 -0.86191644177E+01  0.15653298881E+03  0.17362881403E+03  0.41800000000E+01 0.  1.
         -5    1    3    3    0  502 -0.70817317545E+02 -0.10113083179E+02 -0.45002316588E+01  0.71798965178E+02  0.41800000000E+01 0.  1.
        -11    1    1    2    0    0  0.47296266036E+02  0.36184302955E+02 -0.29109629798E+02  0.66284320230E+02  0.00000000000E+00 0.  1.
         11    1    1    2    0    0  0.98036996653E+02 -0.17452055359E+02 -0.16951236870E+03  0.19659671943E+03  0.00000000000E+00 0. -1.
</event>
<event>
 7    1  0.6473813E-006  0.1223258E+03  0.7561462E-02  0.1239309E+00
         -1   -1    0    0    0  501 -0.00000000000E+00  0.00000000000E+00  0.40095924067E+03  0.40095924067E+03  0.00000000000E+00 0.  1.
          1   -1    0    0  501    0  0.00000000000E+00 -0.00000000000E+00 -0.45444068320E+02  0.45444068320E+02  0.00000000000E+00 0. -1.
         23    2    1    2    0    0  0.73945395129E+02 -0.18012272281E+02  0.27115896583E+03  0.30816755304E+03  0.12509073740E+03 0.  0.
          5    1    3    3  502    0  0.59294264499E+02  0.45145413648E+02  0.19047160763E+03  0.20457473913E+03  0.41800000000E+01 0. -1.
         -5    1    3    3    0  502  0.14651130630E+02 -0.63157685929E+02  0.80687358195E+02  0.10359281391E+03  0.41800000000E+01 0. -1.
        -11    1    1    2    0    0 -0.20986219830E+02 -0.27926540029E+02  0.10668502560E+02  0.36525744450E+02  0.00000000000E+00 0. -1.
         11    1    1    2    0    0 -0.52959175298E+02  0.45938812310E+02  0.73687703960E+02  0.10171001150E+03  0.00000000000E+00 0.  1.
</event>
<event>
 7    1  0.6473813E-006  0.1770489E+03  0.7561462E-02  0.1170690E+00
         -1   -1    0    0    0  501 -0.00000000000E+00  0.00000000000E+00  0.51239803140E+02  0.51239803140E+02  0.00000000000E+00 0.  1.
          1   -1    0    0  501    0  0.00000000000E+00 -0.00000000000E+00 -0.65472617586E+03  0.65472617586E+03  0.00000000000E+00 0. -1.
         23    2    1    2    0    0 -0.14055098276E+03  0.28801138570E+02 -0.25690994031E+03  0.31974121962E+03  0.12509055025E+03 0.  0.
          5    1    3    3  502    0 -0.51417753348E+02 -0.44656717488E+02 -0.57367507406E+02  0.89143205474E+02  0.41800000000E+01 0. -1.
         -5    1    3    3    0  502 -0.89133229412E+02  0.73457856059E+02 -0.19954243290E+03  0.23059801415E+03  0.41800000000E+01 0. -1.
        -11    1    1    2    0    0  0.81196780326E+02 -0.62109042930E+02 -0.19967623062E+03  0.22432353293E+03  0.00000000000E+00 0.  1.
         11    1    1    2    0    0  0.59354202435E+02  0.33307904360E+02 -0.14690020179E+03  0.16190122645E+03  0.00000000000E+00 0. -1.
</event>
<event>
 7    1  0.6473813E-006  0.8668542E+02  0.7561462E-02  0.1311083E+00
          1   -1    0    0  501    0  0.00000000000E+00  0.00000000000E+00  0.37276118843E+02  0.37276118843E+02  0.00000000000E+00 0. -1.
         -1   -1    0    0    0  501 -0.00000000000E+00 -0.00000000000E+00 -0.41587413415E+03  0.41587413415E+03  0.00000000000E+00 0.  1.
         23    2    1    2    0    0  0.27127793797E+02  0.53517837256E+02 -0.20531515412E+03  0.24778973388E+03  0.12508142790E+03 0.  0.
          5    1    3    3  502    0 -0.46360717345E+01  0.71064941097E+02 -0.19810283671E+03  0.21055622842E+03  0.41800000000E+01 0. -1.
         -5    1    3    3    0  502  0.31763865532E+02 -0.17547103841E+02 -0.72123174122E+01  0.37233505465E+02  0.41800000000E+01 0. -1.
        -11    1    1    2    0    0 -0.65624499981E+01 -0.40798897970E+02 -0.17622167511E+03  0.18100191879E+03  0.00000000000E+00 0.  1.
         11    1    1    2    0    0 -0.20565343799E+02 -0.12718939286E+02  0.29388139286E+01  0.24358600318E+02  0.00000000000E+00 0. -1.
</event>
<event>
 7    1  0.6473813E-006  0.9223297E+02  0.7561462E-02  0.1297533E+00
         -4   -1    0    0    0  501 -0.00000000000E+00  0.00000000000E+00  0.15276051991E+03  0.15276051991E+03  0.00000000000E+00 0.  1.
          4   -1    0    0  501    0  0.00000000000E+00 -0.00000000000E+00 -0.11405612444E+03  0.11405612444E+03  0.00000000000E+00 0. -1.
         23    2    1    2    0    0  0.72176342339E+01  0.22727372616E+02  0.94502527384E+02  0.15858034276E+03  0.12509344395E+03 0.  0.
          5    1    3    3  502    0  0.33349439670E+02 -0.21815783892E+02 -0.10559187621E+02  0.41437692941E+02  0.41800000000E+01 0. -1.
         -5    1    3    3    0  502 -0.26131805436E+02  0.44543156508E+02  0.10506171501E+03  0.11714264982E+03  0.41800000000E+01 0. -1.
        -11    1    1    2    0    0 -0.46824479704E+02 -0.24678480829E+02 -0.35035423201E+02  0.63474720909E+02  0.00000000000E+00 0. -1.
         11    1    1    2    0    0  0.39606845470E+02  0.19511082126E+01 -0.20762708714E+02  0.44761580675E+02  0.00000000000E+00 0.  1.
</event>
<event>
 7    1  0.6473813E-006  0.1120696E+03  0.7561462E-02  0.1256785E+00
         -3   -1    0    0    0  501 -0.00000000000E+00  0.00000000000E+00  0.36604406522E+02  0.36604406522E+02  0.00000000000E+00 0.  1.
          3   -1    0    0  501    0  0.00000000000E+00 -0.00000000000E+00 -0.56636666566E+03  0.56636666566E+03  0.00000000000E+00 0. -1.
         23    2    1    2    0    0  0.51386999189E+02  0.71871963654E+02 -0.21572282891E+03  0.26455637422E+03  0.12509010107E+03 0.  0.
          5    1    3    3  502    0  0.15289791710E+02  0.64803912312E+02 -0.26562773867E+02  0.71807925308E+02  0.41800000000E+01 0.  1.
         -5    1    3    3    0  502  0.36097207479E+02  0.70680513414E+01 -0.18916005504E+03  0.19274844892E+03  0.41800000000E+01 0.  1.
        -11    1    1    2    0    0  0.11720938677E+02 -0.53369114952E+02 -0.93677027675E+02  0.10844827499E+03  0.00000000000E+00 0.  1.
         11    1    1    2    0    0 -0.63107937866E+02 -0.18502848702E+02 -0.22036240256E+03  0.22996642297E+03  0.00000000000E+00 0. -1.
</event>
<event>
 6    1  0.6473813E-006  0.1038627E+03  0.7561462E-02  0.1272377E+00
          2   -1    0    0  501    0  0.00000000000E+00  0.00000000000E+00  0.31370790385E+03  0.31370790385E+03  0.00000000000E+00 0. -1.
         -2   -1    0    0    0  501 -0.00000000000E+00 -0.00000000000E+00 -0.66822200322E+02  0.66822200322E+02  0.00000000000E+00 0.  1.
          5    1    1    2  502    0 -0.76345176558E+02 -0.45571199981E+01  0.12908966855E+03  0.15010319201E+03  0.41800000000E+01 0. -1.
         -5    1    1    2    0  502  0.57603917010E+02  0.19975304900E+02  0.11592514389E+02  0.62201952145E+02  0.41800000000E+01 0.  1.
        -11    1    1    2    0    0  0.34674471089E+02 -0.31883995394E+02  0.12812800238E+03  0.13651261152E+03  0.00000000000E+00 0.  1.
         11    1    1    2    0    0 -0.15933211541E+02  0.16465810492E+02 -0.21924481796E+02  0.31712348497E+02  0.00000000000E+00 0. -1.
</event>
<event>
 7    1  0.6473813E-006  0.1588329E+03  0.7561462E-02  0.1190021E+00
          2   -1    0    0  501    0  0.00000000000E+00  0.00000000000E+00  0.14534633431E+03  0.14534633431E+03  0.00000000000E+00 0. -1.
         -2   -1    0    0    0  501 -0.00000000000E+00 -0.00000000000E+00 -0.30101026063E+03  0.30101026063E+03  0.00000000000E+00 0.  1.
         23    2    1    2    0    0 -0.14945234789E+03  0.24114427376E+00 -0.19076750240E+03  0.27271943915E+03  0.12509032767E+03 0.  0.
          5    1    3    3  502    0 -0.98640750095E+02 -0.39982297487E+01 -0.19777299811E+03  0.22108282294E+03  0.41800000000E+01 0.  1.
         -5    1    3    3    0  502 -0.50811597796E+02  0.42393740224E+01  0.70054957105E+01  0.51636616202E+02  0.41800000000E+01 0.  1.
        -11    1    1    2    0    0  0.12935367657E+03 -0.29044004723E+02  0.39271807574E+02  0.13826858906E+03  0.00000000000E+00 0. -1.
         11    1    1    2    0    0  0.20098671324E+02  0.28802860449E+02 -0.41682314990E+01  0.35368566735E+02  0.00000000000E+00 0.  1.
</event>
<event>
 7    1  0.6473813E-006  0.1100304E+03  0.7561462E-02  0.1260514E+00
          3   -1    0    0  501    0  0.00000000000E+00  0.00000000000E+00  0.12926506473E+03  0.12926506473E+03  0.00000000000E+00 0. -1.
         -3   -1    0    0    0  501 -0.00000000000E+00 -0.00000000000E+00 -0.10079354698E+03  0.10079354698E+03  0.00000000000E+00 0.  1.
         23    2    1    2    0    0 -0.31224082513E+02  0.18683203048E+02 -0.54984371368E+01  0.13039224801E+03  0.12509156697E+03 0.  0.
          5    1    3    3  502    0 -0.74951023746E+02  0.31923803926E+02 -0.16471052897E+02  0.83219908683E+02  0.41800000000E+01 0. -1.
         -5    1    3    3    0  502  0.43726941233E+02 -0.13240600878E+02  0.10972615760E+02  0.47172339329E+02  0.41800000000E+01 0. -1.
        -11    1    1    2    0    0 -0.77051865651E+01  0.29600028200E+02  0.42134215900E+01  0.30875305520E+02  0.00000000000E+00 0.  1.
         11    1    1    2    0    0  0.38929269078E+02 -0.48283231248E+02  0.29756533303E+02  0.68791058175E+02  0.00000000000E+00 0. -1.
</event>
<event>
 7    1  0.6473813E-006  0.1035433E+03  0.7561462E-02  0.1273016E+00
          2   -1    0    0  501    0  0.00000000000E+00  0.00000000000E+00  0.79783312183E+03  0.79783312183E+03  0.00000000000E+00 0.  1.
         -2   -1    0    0    0  501 -0.00000000000E+00 -0.00000000000E+00 -0.27319514922E+02  0.27319514922E+02  0.00000000000E+00 0. -1.
         23    2    1    2    0    0  0.67996522168E+02  0.70112917328E+02  0.38223214485E+03  0.41387085452E+03  0.12509325907E+03 0.  0.
          5    1    3    3  502    0  0.17105193274E+02 -0.22735110182E+01  0.27143283534E+03  0.27201289122E+03  0.41800000000E+01 0.  1.
         -5    1    3    3    0  502  0.50891328894E+02  0.72386428346E+02  0.11079930951E+03  0.14185796331E+03  0.41800000000E+01 0.  1.
        -11    1    1    2    0    0 -0.55666816942E+02 -0.41014301946E+02  0.36634115939E+03  0.37280935146E+03  0.00000000000E+00 0.  1.
         11    1    1    2    0    0 -0.12329705226E+02 -0.29098615382E+02  0.21940302673E+02  0.38472430772E+02  0.00000000000E+00 0. -1.
</event>
<event>
 7    1  0.6473813E-006  0.1219595E+03  0.7561462E-02  0.1239899E+00
         -2   -1    0    0    0  501 -0.00000000000E+00  0.00000000000E+00  0.26574657046E+03  0.26574657046E+03  0.00000000000E+00 0.  1.
          2   -1    0    0  501    0  0.00000000000E+00 -0.00000000000E+00 -0.67560007663E+02  0.67560007663E+02  0.00000000000E+00 0. -1.
         23    2    1    2    0    0 -0.45199977754E+02  0.59408981571E+02  0.14109388387E+03  0.20279901239E+03  0.12508992877E+03 0.  0.
          5    1    3    3  502    0  0.93432904781E+01  0.76609234142E+02  0.11782759514E+03  0.14091517452E+03  0.41800000000E+01 0. -1.
         -5    1    3    3    0  502 -0.54543268232E+02 -0.17200252571E+02  0.23266288731E+02  0.61883837868E+02  0.41800000000E+01 0. -1.
        -11    1    1    2    0    0 -0.23253728499E+02 -0.16056103025E+02  0.37835646505E+02  0.47223622054E+02  0.00000000000E+00 0.  1.
         11    1    1    2    0    0  0.68453706253E+02 -0.43352878546E+02  0.19257032424E+02  0.83283943685E+02  0.00000000000E+00 0. -1.
</event>
<event>
 7    1  0.6473813E-006  0.9912408E+02  0.7561462E-02  0.1282149E+00
          1   -1    0    0  501    0  0.00000000000E+00  0.00000000000E+00  0.47728866300E+02  0.47728866300E+02  0.00000000000E+00 0. -1.
         -1   -1    0    0    0  501 -0.00000000000E+00 -0.00000000000E+00 -0.46928984205E+03  0.46928984205E+03  0.00000000000E+00 0.  1.
         23    2    1    2    0    0  0.50126105953E+01  0.58662788198E+02 -0.37262108819E+03  0.39744279051E+03  0.12509135613E+03 0.  0.
          5    1    3    3  502    0 -0.30790369942E+02  0.27761176869E+02 -0.33301982723E+03  0.33561645900E+03  0.41800000000E+01 0. -1.
         -5    1    3    3    0  502  0.35802980538E+02  0.30901611329E+02 -0.39601260960E+02  0.61826331508E+02  0.41800000000E+01 0. -1.
        -11    1    1    2    0    0  0.39137389037E+02 -0.51008363301E+02 -0.29031325960E+02  0.70543647725E+02  0.00000000000E+00 0. -1.
         11    1    1    2    0    0 -0.44149999632E+02 -0.76544248964E+01 -0.19908561599E+02  0.49032270118E+02  0.00000000000E+00 0.  1.
</event>
<event>
 7    1  0.6473813E-006  0.7558840E+02  0.7561462E-02  0.1342059E+00
          1   -1    0    0  501    0  0.00000000000E+00  0.00000000000E+00  0.11724716746E+03  0.11724716746E+03  0.00000000000E+00 0. -1.
         -1   -1    0    0    0  501 -0.00000000000E+00 -0.00000000000E+00 -0.10714494280E+03  0.10714494280E+03  0.00000000000E+00 0.  1.
         23    2    1    2    0    0 -0.21598261499E+02  0.18197615598E+02  0.14241308004E+02  0.12902871870E+03  0.12509179542E+03 0.  0.
          5    1    3    3  502    0  0.20511439418E+02 -0.19265627052E+02  0.53238518845E+02  0.60363033567E+02  0.41800000000E+01 0.  1.
         -5    1    3    3    0  502 -0.42109700917E+02  0.37463242650E+02 -0.38997210840E+02  0.68665685131E+02  0.41800000000E+01 0.  1.
        -11    1    1    2    0    0  0.40342033143E+02 -0.23555988978E+02 -0.35337105321E+02  0.58575381068E+02  0.00000000000E+00 0.  1.
         11    1    1    2    0    0 -0.18743771643E+02  0.53583733799E+01  0.31198021976E+02  0.36788010491E+02  0.00000000000E+00 0. -1.
</event>
<event>
 7    1  0.6473813E-006  0.1922572E+03  0.7561462E-02  0.1156441E+00
          1   -1    0    0  501    0  0.00000000000E+00  0.00000000000E+00  0.16786043716E+03  0.16786043716E+03  0.00000000000E+00 0. -1.
         -1   -1    0    0    0  501 -0.00000000000E+00 -0.00000000000E+00 -0.40361549146E+03  0.40361549146E+03  0.00000000000E+00 0.  1.
         23    2    1    2    0    0  0.32629554017E+02 -0.17746980041E+03 -0.28864218127E+03  0.36265898670E+03  0.12508802490E+03 0.  0.
          5    1    3    3  502    0  0.21443250562E+02 -0.51067276897E+02 -0.20061703135E+03  0.20816422707E+03  0.41800000000E+01 0.  1.
         -5    1    3    3    0  502  0.11186303455E+02 -0.12640252351E+03 -0.88025149927E+02  0.15449475963E+03  0.41800000000E+01 0.  1.
        -11    1    1    2    0    0  0.25479468339E+02  0.15257078916E+02  0.73328816837E+01  0.30590078746E+02  0.00000000000E+00 0.  1.
         11    1    1    2    0    0 -0.58109022356E+02  0.16221272149E+03  0.45554245288E+02  0.17822686317E+03  0.00000000000E+00 0. -1.
</event>
<event>
 7    1  0.6473813E-006  0.1503515E+03  0.7561462E-02  0.1200042E+00
          1   -1    0    0  501    0  0.00000000000E+00  0.00000000000E+00  0.42979911420E+03  0.42979911420E+03  0.00000000000E+00 0. -1.
         -1   -1    0    0    0  501 -0.00000000000E+00 -0.00000000000E+00 -0.82500572525E+02  0.82500572525E+02  0.00000000000E+00 0.  1.
         23    2    1    2    0    0 -0.11173560077E+03  0.44719846390E+02  0.51144500300E+02  0.18094743148E+03  0.12506599820E+03 0.  0.
          5    1    3    3  502    0 -0.80568192549E+02  0.81641622583E+02  0.63124239441E+02  0.13099133633E+03  0.41800000000E+01 0.  1.
         -5    1    3    3    0  502 -0.31167408219E+02 -0.36921776193E+02 -0.11979739141E+02  0.49956095146E+02  0.41800000000E+01 0.  1.
        -11    1    1    2    0    0  0.10329259828E+03 -0.12414740905E+02  0.15767430034E+03  0.18890386877E+03  0.00000000000E+00 0.  1.
         11    1    1    2    0    0  0.84430024892E+01 -0.32305105484E+02  0.13847974104E+03  0.14244838648E+03  0.00000000000E+00 0. -1.
</event>
<event>
 7    1  0.6473813E-006  0.9736386E+02  0.7561462E-02  0.1285939E+00
          2   -1    0    0  501    0  0.00000000000E+00  0.00000000000E+00  0.43511677528E+03  0.43511677528E+03  0.00000000000E+00 0.  1.
         -2   -1    0    0    0  501 -0.00000000000E+00 -0.00000000000E+00 -0.30847216867E+02  0.30847216867E+02  0.00000000000E+00 0. -1.
         23    2    1    2    0    0  0.26378834434E+02  0.29881110084E+02  0.21113401738E+03  0.24862511364E+03  0.12509256650E+03 0.  0.
          5    1    3    3  502    0  0.41259442168E+02 -0.21295105409E+02  0.18172705852E+03  0.18761135169E+03  0.41800000000E+01 0.  1.
         -5    1    3    3    0  502 -0.14880607734E+02  0.51176215493E+02  0.29406958853E+02  0.61013761953E+02  0.41800000000E+01 0.  1.
        -11    1    1    2    0    0  0.31169474710E+02 -0.17636444469E+02  0.42241778784E+02  0.55380034327E+02  0.00000000000E+00 0. -1.
         11    1    1    2    0    0 -0.57548309144E+02 -0.12244665615E+02  0.15089376226E+03  0.16195884418E+03  0.00000000000E+00 0.  1.
</event>
<event>
 7    1  0.6473813E-006  0.1120493E+03  0.7561462E-02  0.1256821E+00
         -1   -1    0    0    0  501 -0.00000000000E+00  0.00000000000E+00  0.17639931588E+03  0.17639931588E+03  0.00000000000E+00 0.  1.
          1   -1    0    0  501    0  0.00000000000E+00 -0.00000000000E+00 -0.89119758811E+02  0.89119758811E+02  0.00000000000E+00 0. -1.
         23    2    1    2    0    0  0.61145763742E+02 -0.14353931092E+02  0.44904209989E+02  0.14699861788E+03  0.12508943129E+03 0.  0.
          5    1    3    3  502    0 -0.38151607494E+02  0.10191450332E+01  0.20453366610E+02  0.43501682917E+02  0.41800000000E+01 0.  1.
         -5    1    3    3    0  502  0.99297371236E+02 -0.15373076125E+02  0.24450843379E+02  0.10349693496E+03  0.41800000000E+01 0.  1.
        -11    1    1    2    0    0 -0.65850676607E+02 -0.42118624773E+01  0.62395446521E+02  0.90814333349E+02  0.00000000000E+00 0.  1.
         11    1    1    2    0    0  0.47049128646E+01  0.18565793569E+02 -0.20020099440E+02  0.27706123466E+02  0.00000000000E+00 0. -1.
</event>
<event>
 7    1  0.6473813E-006  0.2120085E+03  0.7561462E-02  0.1139985E+00
         -1   -1    0    0    0  501 -0.00000000000E+00  0.00000000000E+00  0.73707470817E+02  0.73707470817E+02  0.00000000000E+00 0.  1.
          1   -1    0    0  501    0  0.00000000000E+00 -0.00000000000E+00 -0.76282056260E+03  0.76282056260E+03  0.00000000000E+00 0. -1.
         23    2    1    2    0    0  0.64565423193E+02 -0.18159528336E+03 -0.20658561502E+03  0.30898479971E+03  0.12509376207E+03 0.  0.
          5    1    3    3  502    0  0.84241660726E+02 -0.76269513622E+02 -0.63708538501E+02  0.13034548856E+03  0.41800000000E+01 0.  1.
         -5    1    3    3    0  502 -0.19676237533E+02 -0.10532576973E+03 -0.14287707652E+03  0.17863931115E+03  0.41800000000E+01 0.  1.
        -11    1    1    2    0    0 -0.40823925369E+02  0.32726210466E+02 -0.63830322527E+02  0.82534282622E+02  0.00000000000E+00 0.  1.
         11    1    1    2    0    0 -0.23741497824E+02  0.14886907289E+03 -0.41869715423E+03  0.44500895109E+03  0.00000000000E+00 0. -1.
</event>
<event>
 7    1  0.6473813E-006  0.1300512E+03  0.7561462E-02  0.1227380E+00
          1   -1    0    0  501    0  0.00000000000E+00  0.00000000000E+00  0.45526676245E+03  0.45526676245E+03  0.00000000000E+00 0. -1.
         -1   -1    0    0    0  501 -0.00000000000E+00 -0.00000000000E+00 -0.44139212323E+02  0.44139212323E+02  0.00000000000E+00 0.  1.
         23    2    1    2    0    0  0.74402439272E+02  0.27060841859E+02  0.14814354414E+03  0.20943254250E+03  0.12508983994E+03 0.  0.
          5    1    3    3  502    0 -0.28258540074E+02 -0.16575186865E+02  0.16777416108E+02  0.37043703891E+02  0.41800000000E+01 0. -1.
         -5    1    3    3    0  502  0.10266097935E+03  0.43636028724E+02  0.13136612804E+03  0.17238883861E+03  0.41800000000E+01 0. -1.
        -11    1    1    2    0    0 -0.93243140882E+02 -0.20273432052E+02  0.17087869463E+03  0.19571618137E+03  0.00000000000E+00 0.  1.
         11    1    1    2    0    0  0.18840701611E+02 -0.67874098069E+01  0.92105311352E+02  0.94257250906E+02  0.00000000000E+00 0. -1.
</event>
