<event>
 8    1  0.6443238E-009  0.9055492E+02  0.7561462E-02  0.1301513E+00
          1   -1    0    0  501    0  0.00000000000E+00  0.00000000000E+00  0.11812478633E+03  0.11812478633E+03  0.00000000000E+00 0. -1.
         -1   -1    0    0    0  501 -0.00000000000E+00 -0.00000000000E+00 -0.16824214714E+03  0.16824214714E+03  0.00000000000E+00 0.  1.
         25    2    1    2    0    0  0.17751102277E+02  0.82854395275E+02  0.73712686557E+01  0.15126796208E+03  0.12509080023E+03 0.  0.
         23    2    1    2    0    0 -0.17751102277E+02 -0.82854395275E+02 -0.57488629460E+02  0.13509897139E+03  0.88129660764E+02 0.  0.
          5    1    3    3  502    0  0.32526483469E+02  0.46793930863E+02  0.61817808564E+02  0.84181696040E+02  0.41800000000E+01 0.  1.
         -5    1    3    3    0  502 -0.14775381191E+02  0.36060464412E+02 -0.54446539908E+02  0.67086266039E+02  0.41800000000E+01 0.  1.
        -11    1    4    4    0    0 -0.11929601049E+02 -0.49565961655E+02 -0.79735002972E+02  0.94640216794E+02  0.00000000000E+00 0.  1.
         11    1    4    4    0    0 -0.58215012287E+01 -0.33288433620E+02  0.22246373511E+02  0.40458754601E+02  0.00000000000E+00 0. -1.
</event>
<event>
 8    1  0.6443238E-009  0.1380007E+03  0.7561462E-02  0.1216045E+00
          2   -1    0    0  501    0  0.00000000000E+00  0.00000000000E+00  0.78213712998E+03  0.78213712998E+03  0.00000000000E+00 0.  1.
         -2   -1    0    0    0  501 -0.00000000000E+00 -0.00000000000E+00 -0.39770345222E+02  0.39770345222E+02  0.00000000000E+00 0. -1.
         25    2    1    2    0    0 -0.10076044032E+03 -0.19813840908E+02  0.60604267437E+03  0.62728059472E+03  0.12509183316E+03 0.  0.
         23    2    1    2    0    0  0.10076044032E+03  0.19813840908E+02  0.13632411039E+03  0.19462688049E+03  0.93541995433E+02 0.  0.
          5    1    3    3  502    0 -0.58244612329E+02  0.43515462211E+02  0.17544341771E+03  0.18995761510E+03  0.41800000000E+01 0. -1.
         -5    1    3    3    0  502 -0.42515827994E+02 -0.63329303119E+02  0.43059925666E+03  0.43732297961E+03  0.41800000000E+01 0. -1.
        -11    1    4    4    0    0  0.63737084096E+02 -0.25167634898E+02  0.11241146472E+03  0.13165167350E+03  0.00000000000E+00 0.  1.
         11    1    4    4    0    0  0.37023356227E+02  0.44981475806E+02  0.23912645668E+02  0.62975206985E+02  0.00000000000E+00 0. -1.
</event>
<event>
 8    1  0.6443238E-009  0.2735955E+03  0.7561462E-02  0.1099239E+00
          2   -1    0    0  501    0  0.00000000000E+00  0.00000000000E+00  0.16342005225E+04  0.16342005225E+04  0.00000000000E+00 0. -1.
         -2   -1    0    0    0  501 -0.00000000000E+00 -0.00000000000E+00 -0.51837536865E+02  0.51837536865E+02  0.00000000000E+00 0.  1.
         25    2    1    2    0    0 -0.20570022266E+03 -0.15460535165E+03  0.10580744588E+04  0.10960781404E+04  0.12510129114E+03 0.  0.
         23    2    1    2    0    0  0.20570022266E+03  0.15460535165E+03  0.52428852680E+03  0.58995991897E+03  0.83419723686E+02 0.  0.
          5    1    3    3  502    0  0.23881324858E+01 -0.44844326652E+02  0.26585748901E+03  0.26965606552E+03  0.41800000000E+01 0.  1.
         -5    1    3    3    0  502 -0.20808835514E+03 -0.10976102500E+03  0.79221696980E+03  0.82642207484E+03  0.41800000000E+01 0.  1.
        -11    1    4    4    0    0  0.11875072178E+03  0.13074911759E+03  0.39096346572E+03  0.42900990339E+03  0.00000000000E+00 0. -1.
         11    1    4    4    0    0  0.86949500872E+02  0.23856234060E+02  0.13332506108E+03  0.16095001558E+03  0.00000000000E+00 0.  1.
</event>
<event>
 8    1  0.6443238E-009  0.8614525E+02  0.7561462E-02  0.1312464E+00
          2   -1    0    0  501    0  0.00000000000E+00  0.00000000000E+00  0.17507981706E+03  0.17507981706E+03  0.00000000000E+00 0. -1.
         -2   -1    0    0    0  501 -0.00000000000E+00 -0.00000000000E+00 -0.10053145453E+03  0.10053145453E+03  0.00000000000E+00 0.  1.
         25    2    1    2    0    0  0.88430504626E+01  0.40433963293E+02  0.10759876093E+03  0.17011150923E+03  0.12508927727E+03 0.  0.
         23    2    1    2    0    0 -0.88430504626E+01 -0.40433963293E+02 -0.33050398408E+02  0.10549976237E+03  0.91240156155E+02 0.  0.
          5    1    3    3  502    0  0.37054073653E+02 -0.12647807803E+02 -0.76021488382E+01  0.40102823884E+02  0.41800000000E+01 0. -1.
         -5    1    3    3    0  502 -0.28211023191E+02  0.53081771096E+02  0.11520090977E+03  0.13000868534E+03  0.41800000000E+01 0. -1.
        -11    1    4    4    0    0  0.64225786657E+01  0.14384199582E+02 -0.44718286644E+02  0.47411811553E+02  0.00000000000E+00 0.  1.
         11    1    4    4    0    0 -0.15265629128E+02 -0.54818162875E+02  0.11667888237E+02  0.58087950812E+02  0.00000000000E+00 0. -1.
</event>
<event>
 8    1  0.6443238E-009  0.1249240E+03  0.7561462E-02  0.1235188E+00
         -3   -1    0    0    0  501 -0.00000000000E+00  0.00000000000E+00  0.44762276683E+03  0.44762276683E+03  0.00000000000E+00 0.  1.
          3   -1    0    0  501    0  0.00000000000E+00 -0.00000000000E+00 -0.35892976417E+02  0.35892976417E+02  0.00000000000E+00 0. -1.
         25    2    1    2    0    0 -0.65631280225E+02  0.18449449412E+02  0.22194503905E+03  0.26373206602E+03  0.12508858924E+03 0.  0.
         23    2    1    2    0    0  0.65631280225E+02 -0.18449449412E+02  0.18978475136E+03  0.21978367723E+03  0.87400033182E+02 0.  0.
          5    1    3    3  502    0 -0.61639551309E+02  0.68224110792E+02  0.13524154726E+03  0.16359007331E+03  0.41800000000E+01 0.  1.
         -5    1    3    3    0  502 -0.39917289154E+01 -0.49774661380E+02  0.86703491792E+02  0.10014199271E+03  0.41800000000E+01 0.  1.
        -11    1    4    4    0    0  0.81970085450E+02 -0.30431874935E+02  0.17144700144E+03  0.19245588643E+03  0.00000000000E+00 0.  1.
         11    1    4    4    0    0 -0.16338805225E+02  0.11982425523E+02  0.18337749919E+02  0.27327790794E+02  0.00000000000E+00 0. -1.
</event>
<event>
 8    1  0.6443238E-009  0.1158383E+03  0.7561462E-02  0.1250125E+00
          2   -1    0    0  501    0  0.00000000000E+00  0.00000000000E+00  0.16226520007E+03  0.16226520007E+03  0.00000000000E+00 0. -1.
         -2   -1    0    0    0  501 -0.00000000000E+00 -0.00000000000E+00 -0.13926745714E+03  0.13926745714E+03  0.00000000000E+00 0.  1.
         25    2    1    2    0    0 -0.95964064933E+01 -0.72007665734E+02 -0.60660045166E+02  0.15685566755E+03  0.12508742711E+03 0.  0.
         23    2    1    2    0    0  0.95964064933E+01  0.72007665734E+02  0.83657788087E+02  0.14467698966E+03  0.93035535611E+02 0.  0.
          5    1    3    3  502    0 -0.50480114443E+02 -0.45644931379E+02 -0.79308665489E+02  0.10458985867E+03  0.41800000000E+01 0.  1.
         -5    1    3    3    0  502  0.40883707949E+02 -0.26362734355E+02  0.18648620324E+02  0.52265808884E+02  0.41800000000E+01 0.  1.
        -11    1    4    4    0    0 -0.18496646610E+02 -0.14632848238E+02  0.45116101017E+01  0.24012513593E+02  0.00000000000E+00 0. -1.
         11    1    4    4    0    0  0.28093053103E+02  0.86640513971E+02  0.79146177985E+02  0.12066447606E+03  0.00000000000E+00 0.  1.
</event>
<event>
 8    1  0.6443238E-009  0.1123914E+03  0.7561462E-02  0.1256204E+00
         -2   -1    0    0    0  501 -0.00000000000E+00  0.00000000000E+00  0.16202740062E+03  0.16202740062E+03  0.00000000000E+00 0.  1.
          2   -1    0    0  501    0  0.00000000000E+00 -0.00000000000E+00 -0.96672531673E+02  0.96672531673E+02  0.00000000000E+00 0. -1.
         25    2    1    2    0    0 -0.23712445255E+02 -0.30120821729E+02 -0.17543897457E+02  0.13200805253E+03  0.12509513832E+03 0.  0.
         23    2    1    2    0    0  0.23712445255E+02  0.30120821729E+02  0.82898766407E+02  0.12669187977E+03  0.87801383622E+02 0.  0.
          5    1    3    3  502    0 -0.51885140653E+02 -0.65583969432E+02 -0.13948377451E+01  0.83742121059E+02  0.41800000000E+01 0.  1.
         -5    1    3    3    0  502  0.28172695398E+02  0.35463147703E+02 -0.16149059712E+02  0.48265931469E+02  0.41800000000E+01 0.  1.
        -11    1    4    4    0    0  0.44513971323E+02 -0.14104451236E+02  0.44961195399E+02  0.64822359408E+02  0.00000000000E+00 0.  1.
         11    1    4    4    0    0 -0.20801526068E+02  0.44225272966E+02  0.37937571008E+02  0.61869520360E+02  0.00000000000E+00 0. -1.
</event>
<event>
 8    1  0.6443238E-009  0.1217282E+03  0.7561462E-02  0.1240273E+00
         -1   -1    0    0    0  501 -0.00000000000E+00  0.00000000000E+00  0.37147040678E+02  0.37147040678E+02  0.00000000000E+00 0.  1.
          1   -1    0    0  501    0  0.00000000000E+00 -0.00000000000E+00 -0.62975583030E+03  0.62975583030E+03  0.00000000000E+00 0. -1.
         25    2    1    2    0    0  0.70422863693E+02  0.41679586511E+02 -0.47103857084E+03  0.49418558730E+03  0.12508194042E+03 0.  0.
         23    2    1    2    0    0 -0.70422863693E+02 -0.41679586511E+02 -0.12157021878E+03  0.17271728367E+03  0.91407736661E+02 0.  0.
          5    1    3    3  502    0  0.19990906651E+02  0.82040857980E+02 -0.27931927311E+03  0.29183397242E+03  0.41800000000E+01 0. -1.
         -5    1    3    3    0  502  0.50431957041E+02 -0.40361271469E+02 -0.19171929772E+03  0.20235161488E+03  0.41800000000E+01 0. -1.
        -11    1    4    4    0    0 -0.62890849002E+02 -0.12596691609E+02 -0.12691625627E+03  0.14220292413E+03  0.00000000000E+00 0. -1.
         11    1    4    4    0    0 -0.75320146907E+01 -0.29082894901E+02  0.53460374844E+01  0.30514359537E+02  0.00000000000E+00 0.  1.
</event>
<event>
 8    1  0.6443238E-009  0.1006026E+03  0.7561462E-02  0.1279034E+00
          1   -1    0    0  501    0  0.00000000000E+00  0.00000000000E+00  0.33889276376E+03  0.33889276376E+03  0.00000000000E+00 0. -1.
         -1   -1    0    0    0  501 -0.00000000000E+00 -0.00000000000E+00 -0.49284647179E+02  0.49284647179E+02  0.00000000000E+00 0.  1.
         25    2    1    2    0    0 -0.25575407905E+02  0.67291956721E+02  0.15019647890E+03  0.20829953851E+03  0.12508959405E+03 0.  0.
         23    2    1    2    0    0  0.25575407905E+02 -0.67291956721E+02  0.13941163768E+03  0.17987787243E+03  0.87966671756E+02 0.  0.
          5    1    3    3  502    0  0.28147971394E+02 -0.12438688846E+01  0.10752571677E+03  0.11123447159E+03  0.41800000000E+01 0.  1.
         -5    1    3    3    0  502 -0.53723379300E+02  0.68535825605E+02  0.42670762128E+02  0.97065066916E+02  0.41800000000E+01 0.  1.
        -11    1    4    4    0    0 -0.75193422550E+01 -0.45029090253E+02  0.13152072426E+03  0.13921875013E+03  0.00000000000E+00 0. -1.
         11    1    4    4    0    0  0.33094750160E+02 -0.22262866467E+02  0.78909134161E+01  0.40659122298E+02  0.00000000000E+00 0.  1.
</event>
<event>
 8    1  0.6443238E-009  0.1082854E+03  0.7561462E-02  0.1263778E+00
         -2   -1    0    0    0  501 -0.00000000000E+00  0.00000000000E+00  0.10482135088E+03  0.10482135088E+03  0.00000000000E+00 0.  1.
          2   -1    0    0  501    0  0.00000000000E+00 -0.00000000000E+00 -0.29618603968E+03  0.29618603968E+03  0.00000000000E+00 0. -1.
         25    2    1    2    0    0  0.46361389594E+02 -0.11848402062E+02 -0.25398589414E+03  0.28713211274E+03  0.12508498178E+03 0.  0.
         23    2    1    2    0    0 -0.46361389594E+02  0.11848402062E+02  0.62621205342E+02  0.11387527782E+03  0.82197326383E+02 0.  0.
          5    1    3    3  502    0  0.21823428832E+02  0.52633188564E+02 -0.16398741378E+03  0.17365442368E+03  0.41800000000E+01 0. -1.
         -5    1    3    3    0  502  0.24537960761E+02 -0.64481590626E+02 -0.89998480359E+02  0.11347768906E+03  0.41800000000E+01 0. -1.
        -11    1    4    4    0    0 -0.45213905270E+02  0.41066326262E+02  0.58077954503E+02  0.84283979389E+02  0.00000000000E+00 0.  1.
         11    1    4    4    0    0 -0.11474843235E+01 -0.29217924201E+02  0.45432508394E+01  0.29591298435E+02  0.00000000000E+00 0. -1.
</event>
<event>
 8    1  0.6443238E-009  0.1023730E+03  0.7561462E-02  0.1275384E+00
          2   -1    0    0  501    0  0.00000000000E+00  0.00000000000E+00  0.60870624025E+03  0.60870624025E+03  0.00000000000E+00 0. -1.
         -2   -1    0    0    0  501 -0.00000000000E+00 -0.00000000000E+00 -0.47596761163E+02  0.47596761163E+02  0.00000000000E+00 0.  1.
         25    2    1    2    0    0  0.18346800580E+02 -0.66942388288E+02  0.75733133969E+02  0.16186589332E+03  0.12508865416E+03 0.  0.
         23    2    1    2    0    0 -0.18346800580E+02  0.66942388288E+02  0.48537634512E+03  0.49443710809E+03  0.63717886133E+02 0.  0.
          5    1    3    3  502    0  0.52243094353E+02 -0.28907284867E+02  0.90639435572E+02  0.10861837647E+03  0.41800000000E+01 0.  1.
         -5    1    3    3    0  502 -0.33896293773E+02 -0.38035103421E+02 -0.14906301603E+02  0.53247516856E+02  0.41800000000E+01 0.  1.
        -11    1    4    4    0    0  0.23421169842E+02  0.29613719022E+02  0.21951086218E+03  0.22273424112E+03  0.00000000000E+00 0.  1.
         11    1    4    4    0    0 -0.41767970422E+02  0.37328669267E+02  0.26586548294E+03  0.27170286697E+03  0.00000000000E+00 0. -1.
</event>
<event>
 8    1  0.6443238E-009  0.5720035E+02  0.7561462E-02  0.1409971E+00
         -1   -1    0    0    0  501 -0.00000000000E+00  0.00000000000E+00  0.11600877093E+03  0.11600877093E+03  0.00000000000E+00 0.  1.
          1   -1    0    0  501    0  0.00000000000E+00 -0.00000000000E+00 -0.10401803644E+03  0.10401803644E+03  0.00000000000E+00 0. -1.
         25    2    1    2    0    0  0.13312936480E+02  0.12649308174E+02 -0.74025835582E+00  0.12643401923E+03  0.12509106268E+03 0.  0.
         23    2    1    2    0    0 -0.13312936480E+02 -0.12649308174E+02  0.12730992843E+02  0.93592788143E+02  0.90886151523E+02 0.  0.
          5    1    3    3  502    0  0.18277835910E+02  0.99717189887E+01  0.60847736209E+02  0.64447140099E+02  0.41800000000E+01 0. -1.
         -5    1    3    3    0  502 -0.49648994300E+01  0.26775891856E+01 -0.61587994565E+02  0.61986879133E+02  0.41800000000E+01 0. -1.
        -11    1    4    4    0    0 -0.12512360346E+02 -0.48599470246E+02  0.24381315950E+02  0.55793514292E+02  0.00000000000E+00 0.  1.
         11    1    4    4    0    0 -0.80057613482E+00  0.35950162072E+02 -0.11650323107E+02  0.37799273851E+02  0.00000000000E+00 0. -1.
</event>
<event>
 7    1  0.6443238E-009  0.1463003E+03  0.7561462E-02  0.1205094E+00
          2   -1    0    0  501    0  0.00000000000E+00  0.00000000000E+00  0.71867830670E+03  0.71867830670E+03  0.00000000000E+00 0. -1.
         -2   -1    0    0    0  501 -0.00000000000E+00 -0.00000000000E+00 -0.32831489768E+02  0.32831489768E+02  0.00000000000E+00 0.  1.
         23    2    1    2    0    0 -0.34608692439E+02 -0.94615762016E+02  0.20018329583E+03  0.24000382954E+03  0.85898674333E+02 0.  0.
          5    1    1    2  502    0 -0.31255787671E+02 -0.13143974512E+02  0.10268491212E+03  0.10821899975E+03  0.41800000000E+01 0. -1.
         -5    1    1    2    0  502  0.65864480110E+02  0.10775973653E+03  0.38297860898E+03  0.40328696718E+03  0.41800000000E+01 0. -1.
        -11    1    3    3    0    0 -0.62566182818E+02 -0.76202545107E+02  0.14192230833E+03  0.17281000178E+03  0.00000000000E+00 0.  1.
         11    1    3    3    0    0  0.27957490379E+02 -0.18413216909E+02  0.58260987499E+02  0.67193827764E+02  0.00000000000E+00 0. -1.
</event>
<event>
 8    1  0.6443238E-009  0.6216595E+02  0.7561462E-02  0.1388961E+00
          1   -1    0    0  501    0  0.00000000000E+00  0.00000000000E+00  0.21649162781E+03  0.21649162781E+03  0.00000000000E+00 0. -1.
         -1   -1    0    0    0  501 -0.00000000000E+00 -0.00000000000E+00 -0.66260205047E+02  0.66260205047E+02  0.00000000000E+00 0.  1.
         25    2    1    2    0    0  0.13572702912E+01  0.30392250985E+02  0.14579514194E+03  0.19450046266E+03  0.12509466600E+03 0.  0.
         23    2    1    2    0    0 -0.13572702912E+01 -0.30392250985E+02  0.44362808328E+01  0.88251370200E+02  0.82722987446E+02 0.  0.
          5    1    3    3  502    0  0.21218158579E+02  0.22671564093E+02  0.16350472165E+03  0.16647965783E+03  0.41800000000E+01 0. -1.
         -5    1    3    3    0  502 -0.19860888288E+02  0.77206868920E+01 -0.17709579711E+02  0.28020804828E+02  0.41800000000E+01 0. -1.
        -11    1    4    4    0    0  0.30892474379E+02 -0.22108461088E+02  0.28228010081E+02  0.47328105583E+02  0.00000000000E+00 0.  1.
         11    1    4    4    0    0 -0.32249744670E+02 -0.82837898970E+01 -0.23791729248E+02  0.40923264618E+02  0.00000000000E+00 0. -1.
</event>
<event>
 8    1  0.6443238E-009  0.2825667E+03  0.7561462E-02  0.1094295E+00
         -1   -1    0    0    0  501 -0.00000000000E+00  0.00000000000E+00  0.82578212043E+02  0.82578212043E+02  0.00000000000E+00 0.  1.
          1   -1    0    0  501    0  0.00000000000E+00 -0.00000000000E+00 -0.10607152819E+04  0.10607152819E+04  0.00000000000E+00 0. -1.
         25    2    1    2    0    0 -0.26888960722E+03  0.47027473639E+01 -0.61321340004E+03  0.68117695520E+03  0.12509050168E+03 0.  0.
         23    2    1    2    0    0  0.26888960722E+03 -0.47027473639E+01 -0.36492366983E+03  0.46211653875E+03  0.89770116842E+02 0.  0.
          5    1    3    3  502    0 -0.13668351773E+03 -0.39234782472E+02 -0.41622358653E+03  0.43986509131E+03  0.41800000000E+01 0. -1.
         -5    1    3    3    0  502 -0.13220608950E+03  0.43937529836E+02 -0.19698981351E+03  0.24131186389E+03  0.41800000000E+01 0. -1.
        -11    1    4    4    0    0  0.41406040857E+02  0.32943484786E+02 -0.70658137967E+02  0.88274038484E+02  0.00000000000E+00 0.  1.
         11    1    4    4    0    0  0.22748356637E+03 -0.37646232150E+02 -0.29426553186E+03  0.37384250026E+03  0.00000000000E+00 0. -1.
</event>
<event>
 8    1  0.6443238E-009  0.9806811E+02  0.7561462E-02  0.1284412E+00
         -1   -1    0    0    0  501 -0.00000000000E+00  0.00000000000E+00  0.11717985887E+02  0.11717985887E+02  0.00000000000E+00 0.  1.
          1   -1    0    0  501    0  0.00000000000E+00 -0.00000000000E+00 -0.12854065119E+04  0.12854065119E+04  0.00000000000E+00 0. -1.
         25    2    1    2    0    0  0.31804471965E+02  0.42374981280E+02 -0.84004544329E+03  0.85096067581E+03  0.12510220422E+03 0.  0.
         23    2    1    2    0    0 -0.31804471965E+02 -0.42374981280E+02 -0.43364308269E+03  0.44616382195E+03  0.90601707356E+02 0.  0.
          5    1    3    3  502    0  0.47589370508E+02  0.53862624537E+02 -0.81821891359E+03  0.82138029771E+03  0.41800000000E+01 0.  1.
         -5    1    3    3    0  502 -0.15784898543E+02 -0.11487643258E+02 -0.21826529701E+02  0.29580378098E+02  0.41800000000E+01 0.  1.
        -11    1    4    4    0    0  0.22136946378E+02 -0.45021029418E+02 -0.18180840389E+03  0.18860337539E+03  0.00000000000E+00 0. -1.
         11    1    4    4    0    0 -0.53941418344E+02  0.26460481378E+01 -0.25183467880E+03  0.25756044655E+03  0.00000000000E+00 0.  1.
</event>
<event>
 8    1  0.6443238E-009  0.1452027E+03  0.7561462E-02  0.1206495E+00
          2   -1    0    0  501    0  0.00000000000E+00  0.00000000000E+00  0.68289485927E+03  0.68289485927E+03  0.00000000000E+00 0. -1.
         -2   -1    0    0    0  501 -0.00000000000E+00 -0.00000000000E+00 -0.38310879273E+02  0.38310879273E+02  0.00000000000E+00 0.  1.
         25    2    1    2    0    0  0.70808639555E+02 -0.80966323576E+02  0.46360731499E+03  0.49208467757E+03  0.12508468491E+03 0.  0.
         23    2    1    2    0    0 -0.70808639555E+02  0.80966323576E+02  0.18097666501E+03  0.22912106097E+03  0.90412932235E+02 0.  0.
          5    1    3    3  502    0  0.45115617463E+02  0.17632469656E+02  0.25841517418E+03  0.26294903988E+03  0.41800000000E+01 0.  1.
         -5    1    3    3    0  502  0.25693022092E+02 -0.98598793232E+02  0.20519214080E+03  0.22913563769E+03  0.41800000000E+01 0.  1.
        -11    1    4    4    0    0 -0.88729823821E+02  0.44692129586E+02  0.11782673175E+03  0.15412172721E+03  0.00000000000E+00 0.  1.
         11    1    4    4    0    0  0.17921184265E+02  0.36274193990E+02  0.63149933257E+02  0.74999333767E+02  0.00000000000E+00 0. -1.
</event>
<event>
 8    1  0.6443238E-009  0.9459474E+02  0.7561462E-02  0.1292091E+00
         -2   -1    0    0    0  501 -0.00000000000E+00  0.00000000000E+00  0.40261412596E+02  0.40261412596E+02  0.00000000000E+00 0.  1.
          2   -1    0    0  501    0  0.00000000000E+00 -0.00000000000E+00 -0.32923171638E+03  0.32923171638E+03  0.00000000000E+00 0. -1.
         25    2    1    2    0    0  0.46696364090E+02  0.40062007723E+01 -0.12662654284E+03  0.18406082365E+03  0.12508998916E+03 0.  0.
         23    2    1    2    0    0 -0.46696364090E+02 -0.40062007723E+01 -0.16234376094E+03  0.18543230532E+03  0.76374361382E+02 0.  0.
          5    1    3    3  502    0 -0.33989273073E+02 -0.15508869796E+02 -0.67602302245E+01  0.38196450608E+02  0.41800000000E+01 0. -1.
         -5    1    3    3    0  502  0.80685637162E+02  0.19515070568E+02 -0.11986631261E+03  0.14586437304E+03  0.41800000000E+01 0. -1.
        -11    1    4    4    0    0 -0.13590447387E+02 -0.25578365676E+02 -0.14485007951E+02  0.32384695555E+02  0.00000000000E+00 0.  1.
         11    1    4    4    0    0 -0.33105916703E+02  0.21572164904E+02 -0.14785875299E+03  0.15304760977E+03  0.00000000000E+00 0. -1.
</event>
<event>
 8    1  0.6443238E-009  0.1988130E+03  0.7561462E-02  0.1150744E+00
         -2   -1    0    0    0  501 -0.00000000000E+00  0.00000000000E+00  0.55695928694E+02  0.55695928694E+02  0.00000000000E+00 0.  1.
          2   -1    0    0  501    0  0.00000000000E+00 -0.00000000000E+00 -0.81901125362E+03  0.81901125362E+03  0.00000000000E+00 0. -1.
         25    2    1    2    0    0  0.16939855718E+03 -0.44515866895E+02 -0.50935340474E+03  0.55296447799E+03  0.12510511347E+03 0.  0.
         23    2    1    2    0    0 -0.16939855718E+03  0.44515866895E+02 -0.25396192019E+03  0.32174270433E+03  0.91346468467E+02 0.  0.
          5    1    3    3  502    0 -0.19652612950E+02 -0.93798143282E+01 -0.40060543243E+02  0.45787832854E+02  0.41800000000E+01 0.  1.
         -5    1    3    3    0  502  0.18905117013E+03 -0.35136052567E+02 -0.46929286150E+03  0.50717664513E+03  0.41800000000E+01 0.  1.
        -11    1    4    4    0    0 -0.13126405555E+03  0.99353449419E+01 -0.11960121294E+03  0.17785784631E+03  0.00000000000E+00 0.  1.
         11    1    4    4    0    0 -0.38134501633E+02  0.34580521953E+02 -0.13436070725E+03  0.14388485802E+03  0.00000000000E+00 0. -1.
</event>
<event>
 8    1  0.6443238E-009  0.7820958E+02  0.7561462E-02  0.1334211E+00
         -1   -1    0    0    0  501 -0.00000000000E+00  0.00000000000E+00  0.48625021766E+02  0.48625021766E+02  0.00000000000E+00 0.  1.
          1   -1    0    0  501    0  0.00000000000E+00 -0.00000000000E+00 -0.31025725410E+03  0.31025725410E+03  0.00000000000E+00 0. -1.
         25    2    1    2    0    0  0.15704369864E+02 -0.11210747477E+02 -0.22717453166E+03  0.26005040937E+03  0.12508253070E+03 0.  0.
         23    2    1    2    0    0 -0.15704369864E+02  0.11210747477E+02 -0.34457700674E+02  0.98831866498E+02  0.90598546390E+02 0.  0.
          5    1    3    3  502    0  0.53702947580E+02  0.22223335812E+02 -0.53507940462E+02  0.79110399607E+02  0.41800000000E+01 0. -1.
         -5    1    3    3    0  502 -0.37998577716E+02 -0.33434083289E+02 -0.17366659120E+03  0.18094000976E+03  0.41800000000E+01 0. -1.
        -11    1    4    4    0    0 -0.19560447239E+02  0.25741406479E+02  0.22846931609E+02  0.39588046020E+02  0.00000000000E+00 0.  1.
         11    1    4    4    0    0  0.38560773749E+01 -0.14530659002E+02 -0.57304632283E+02  0.59243820478E+02  0.00000000000E+00 0. -1.
</event>
<event>
 8    1  0.6443238E-009  0.2449564E+03  0.7561462E-02  0.1116534E+00
         -2   -1    0    0    0  501 -0.00000000000E+00  0.00000000000E+00  0.17085684303E+03  0.17085684303E+03  0.00000000000E+00 0.  1.
          2   -1    0    0  501    0  0.00000000000E+00 -0.00000000000E+00 -0.46572204200E+03  0.46572204200E+03  0.00000000000E+00 0. -1.
         25    2    1    2    0    0  0.14496796157E+03  0.17479151787E+03 -0.76722343591E+01  0.25936977303E+03  0.12508409723E+03 0.  0.
         23    2    1    2    0    0 -0.14496796157E+03 -0.17479151787E+03 -0.28719296462E+03  0.37720911200E+03  0.90769657097E+02 0.  0.
          5    1    3    3  502    0  0.13564202523E+03  0.19311403406E+03 -0.16508888268E+02  0.23660474414E+03  0.41800000000E+01 0. -1.
         -5    1    3    3    0  502  0.93259363414E+01 -0.18322516187E+02  0.88366539092E+01  0.22765028890E+02  0.41800000000E+01 0. -1.
        -11    1    4    4    0    0 -0.94306834714E+02 -0.73198854810E+02 -0.89370599944E+02  0.14912731324E+03  0.00000000000E+00 0.  1.
         11    1    4    4    0    0 -0.50661126857E+02 -0.10159266306E+03 -0.19782236467E+03  0.22808179876E+03  0.00000000000E+00 0. -1.
</event>
<event>
 8    1  0.6443238E-009  0.1019770E+03  0.7561462E-02  0.1276193E+00
          1   -1    0    0  501    0  0.00000000000E+00  0.00000000000E+00  0.35382476379E+02  0.35382476379E+02  0.00000000000E+00 0. -1.
         -1   -1    0    0    0  501 -0.00000000000E+00 -0.00000000000E+00 -0.49454846681E+03  0.49454846681E+03  0.00000000000E+00 0.  1.
         25    2    1    2    0    0 -0.69741433848E+02  0.90141248053E+01 -0.31129774921E+03  0.34278008411E+03  0.12508707110E+03 0.  0.
         23    2    1    2    0    0  0.69741433848E+02 -0.90141248053E+01 -0.14786824122E+03  0.18715085908E+03  0.90638321100E+02 0.  0.
          5    1    3    3  502    0 -0.82538878594E+02 -0.18963159013E+02 -0.10891575451E+03  0.13803036571E+03  0.41800000000E+01 0. -1.
         -5    1    3    3    0  502  0.12797444745E+02  0.27977283819E+02 -0.20238199471E+03  0.20474971840E+03  0.41800000000E+01 0. -1.
        -11    1    4    4    0    0  0.44153712892E+02 -0.31347864316E+02 -0.24940820546E+02  0.59617811842E+02  0.00000000000E+00 0.  1.
         11    1    4    4    0    0  0.25587720956E+02  0.22333739511E+02 -0.12292742067E+03  0.12753304724E+03  0.00000000000E+00 0. -1.
</event>
<event>
 8    1  0.6443238E-009  0.1186169E+03  0.7561462E-02  0.1245396E+00
          2   -1    0    0  501    0  0.00000000000E+00  0.00000000000E+00  0.17115828719E+04  0.17115828719E+04  0.00000000000E+00 0. -1.
         -2   -1    0    0    0  501 -0.00000000000E+00 -0.00000000000E+00 -0.14037453638E+02  0.14037453638E+02  0.00000000000E+00 0.  1.
         25    2    1    2    0    0  0.59435572916E+02 -0.69881296062E+02  0.12556590351E+04  0.12652053902E+04  0.12509629957E+03 0.  0.
         23    2    1    2    0    0 -0.59435572916E+02  0.69881296062E+02  0.44188638323E+03  0.46041493538E+03  0.91117255044E+02 0.  0.
          5    1    3    3  502    0  0.50447704781E+02 -0.15877033499E+02  0.10768546132E+04  0.10781606474E+04  0.41800000000E+01 0. -1.
         -5    1    3    3    0  502  0.89878681352E+01 -0.54004262563E+02  0.17880442182E+03  0.18704474281E+03  0.41800000000E+01 0. -1.
        -11    1    4    4    0    0  0.49681367182E+01  0.64451976806E+02  0.21651911704E+03  0.22596297870E+03  0.00000000000E+00 0.  1.
         11    1    4    4    0    0 -0.64403709634E+02  0.54293192557E+01  0.22536726619E+03  0.23445195668E+03  0.00000000000E+00 0. -1.
</event>
<event>
 8    1  0.6443238E-009  0.1206938E+03  0.7561462E-02  0.1241957E+00
         -3   -1    0    0    0  501 -0.00000000000E+00  0.00000000000E+00  0.71120137920E+02  0.71120137920E+02  0.00000000000E+00 0.  1.
          3   -1    0    0  501    0  0.00000000000E+00 -0.00000000000E+00 -0.32678111263E+03  0.32678111263E+03  0.00000000000E+00 0. -1.
         25    2    1    2    0    0  0.17504402751E+02  0.96032800582E+02 -0.15631578727E+03  0.22273282433E+03  0.12508630134E+03 0.  0.
         23    2    1    2    0    0 -0.17504402751E+02 -0.96032800582E+02 -0.99345187444E+02  0.17516842622E+03  0.10623468535E+03 0.  0.
          5    1    3    3  502    0  0.17793872096E+02  0.82006448661E+02 -0.17784820898E+03  0.19669554480E+03  0.41800000000E+01 0. -1.
         -5    1    3    3    0  502 -0.28946934558E+00  0.14026351922E+02  0.21532421714E+02  0.26037279535E+02  0.41800000000E+01 0. -1.
        -11    1    4    4    0    0  0.39728862357E+02 -0.68572280665E+02 -0.67740077942E+02  0.10425573528E+03  0.00000000000E+00 0.  1.
         11    1    4    4    0    0 -0.57233265107E+02 -0.27460519918E+02 -0.31605109502E+02  0.70912690935E+02  0.00000000000E+00 0. -1.
</event>
<event>
 8    1  0.6443238E-009  0.1065362E+03  0.7561462E-02  0.1267122E+00
          3   -1    0    0  501    0  0.00000000000E+00  0.00000000000E+00  0.16124215554E+02  0.16124215554E+02  0.00000000000E+00 0. -1.
         -3   -1    0    0    0  501 -0.00000000000E+00 -0.00000000000E+00 -0.10823401281E+04  0.10823401281E+04  0.00000000000E+00 0.  1.
         25    2    1    2    0    0 -0.34181983315E+02  0.47947893492E+02 -0.78015055760E+03  0.79230669474E+03  0.12509035749E+03 0.  0.
         23    2    1    2    0    0  0.34181983315E+02 -0.47947893492E+02 -0.28606535499E+03  0.30615764896E+03  0.91824344352E+02 0.  0.
          5    1    3    3  502    0 -0.72546412015E+01 -0.28520429952E+02 -0.49318606750E+03  0.49408097952E+03  0.41800000000E+01 0. -1.
         -5    1    3    3    0  502 -0.26927342114E+02  0.76468323444E+02 -0.28696449010E+03  0.29822571522E+03  0.41800000000E+01 0. -1.
        -11    1    4    4    0    0  0.27432567352E+02 -0.72073628446E+02 -0.15985013954E+03  0.17748019828E+03  0.00000000000E+00 0. -1.
         11    1    4    4    0    0  0.67494159636E+01  0.24125734954E+02 -0.12621521545E+03  0.12867745068E+03  0.00000000000E+00 0.  1.
</event>
<event>
 8    1  0.6443238E-009  0.1293984E+03  0.7561462E-02  0.1228351E+00
         -2   -1    0    0    0  501 -0.00000000000E+00  0.00000000000E+00  0.34771147357E+02  0.34771147357E+02  0.00000000000E+00 0.  1.
          2   -1    0    0  501    0  0.00000000000E+00 -0.00000000000E+00 -0.69610861930E+03  0.69610861930E+03  0.00000000000E+00 0. -1.
         25    2    1    2    0    0  0.24739365600E+02  0.10609072204E+03 -0.30014994665E+03  0.34293512582E+03  0.12508889852E+03 0.  0.
         23    2    1    2    0    0 -0.24739365600E+02 -0.10609072204E+03 -0.36118752529E+03  0.38794464084E+03  0.90428637121E+02 0.  0.
          5    1    3    3  502    0  0.38238190563E+02  0.46092254290E+02 -0.32475894418E+02  0.68255485064E+02  0.41800000000E+01 0.  1.
         -5    1    3    3    0  502 -0.13498824963E+02  0.59998467753E+02 -0.26767405223E+03  0.27467964076E+03  0.41800000000E+01 0.  1.
        -11    1    4    4    0    0 -0.46852033576E+02 -0.25068959165E+02 -0.95358471712E+02  0.10916411448E+03  0.00000000000E+00 0.  1.
         11    1    4    4    0    0  0.22112667975E+02 -0.81021762878E+02 -0.26582905358E+03  0.27878052635E+03  0.00000000000E+00 0. -1.
</event>
<event>
 8    1  0.6443238E-009  0.1746898E+03  0.7561462E-02  0.1173043E+00
         -2   -1    0    0    0  501 -0.00000000000E+00  0.00000000000E+00  0.37659582037E+02  0.37659582037E+02  0.00000000000E+00 0.  1.
          2   -1    0    0  501    0  0.00000000000E+00 -0.00000000000E+00 -0.19512462384E+04  0.19512462384E+04  0.00000000000E+00 0. -1.
         25    2    1    2    0    0  0.70390502851E+02  0.14094185187E+03 -0.16835844007E+04  0.16955594870E+04  0.12508441629E+03 0.  0.
         23    2    1    2    0    0 -0.70390502851E+02 -0.14094185187E+03 -0.23000225570E+03  0.29334633346E+03  0.91277627209E+02 0.  0.
          5    1    3    3  502    0  0.26899474564E+02  0.12939897640E+03 -0.80285618669E+03  0.81367266498E+03  0.41800000000E+01 0. -1.
         -5    1    3    3    0  502  0.43491028287E+02  0.11542875472E+02 -0.88072821398E+03  0.88188682200E+03  0.41800000000E+01 0. -1.
        -11    1    4    4    0    0  0.10963040675E+02 -0.44281674592E+02 -0.23636126675E+02  0.51378219605E+02  0.00000000000E+00 0. -1.
         11    1    4    4    0    0 -0.81353543526E+02 -0.96660177282E+02 -0.20636612902E+03  0.24196811386E+03  0.00000000000E+00 0.  1.
</event>
<event>
 8    1  0.6443238E-009  0.1105431E+03  0.7561462E-02  0.1259567E+00
         -1   -1    0    0    0  501 -0.00000000000E+00  0.00000000000E+00  0.33661742071E+02  0.33661742071E+02  0.00000000000E+00 0.  1.
          1   -1    0    0  501    0  0.00000000000E+00 -0.00000000000E+00 -0.50601685197E+03  0.50601685197E+03  0.00000000000E+00 0. -1.
         25    2    1    2    0    0  0.44353380817E+02 -0.49539361324E+02 -0.20120679559E+03  0.24607553100E+03  0.12509045390E+03 0.  0.
         23    2    1    2    0    0 -0.44353380817E+02  0.49539361324E+02 -0.27114831431E+03  0.29360306304E+03  0.90884429710E+02 0.  0.
          5    1    3    3  502    0  0.55114817914E+02 -0.76360105993E+02 -0.87282796643E+02  0.12846893761E+03  0.41800000000E+01 0. -1.
         -5    1    3    3    0  502 -0.10761437096E+02  0.26820744670E+02 -0.11392399895E+03  0.11760659339E+03  0.41800000000E+01 0. -1.
        -11    1    4    4    0    0  0.10801654311E+02  0.40268586870E+02 -0.48120819322E+02  0.63669836474E+02  0.00000000000E+00 0.  1.
         11    1    4    4    0    0 -0.55155035129E+02  0.92707744534E+01 -0.22302749499E+03  0.22993322657E+03  0.00000000000E+00 0. -1.
</event>
<event>
 8    1  0.6443238E-009  0.1603452E+03  0.7561462E-02  0.1188308E+00
         -2   -1    0    0    0  501 -0.00000000000E+00  0.00000000000E+00  0.49210533236E+03  0.49210533236E+03  0.00000000000E+00 0.  1.
          2   -1    0    0  501    0  0.00000000000E+00 -0.00000000000E+00 -0.68533255353E+02  0.68533255353E+02  0.00000000000E+00 0. -1.
         25    2    1    2    0    0  0.10944894868E+03 -0.84925917376E+02  0.14183476028E+03  0.23442714838E+03  0.12508998707E+03 0.  0.
         23    2    1    2    0    0 -0.10944894868E+03  0.84925917376E+02  0.28173731674E+03  0.32621143934E+03  0.88580492790E+02 0.  0.
          5    1    3    3  502    0  0.12621089635E+03 -0.56329082443E+02  0.14561190631E+03  0.20080452073E+03  0.41800000000E+01 0.  1.
         -5    1    3    3    0  502 -0.16761947667E+02 -0.28596834933E+02 -0.37771460362E+01  0.33622627648E+02  0.41800000000E+01 0.  1.
        -11    1    4    4    0    0 -0.97549746081E+02  0.92879400174E+02  0.28130832838E+03  0.31189246793E+03  0.00000000000E+00 0.  1.
         11    1    4    4    0    0 -0.11899202604E+02 -0.79534827982E+01  0.42898836138E+00  0.14318971410E+02  0.00000000000E+00 0. -1.
</event>
<event>
 8    1  0.6443238E-009  0.1262036E+03  0.7561462E-02  0.1233200E+00
         -1   -1    0    0    0  501 -0.00000000000E+00  0.00000000000E+00  0.14527925658E+02  0.14527925658E+02  0.00000000000E+00 0.  1.
          1   -1    0    0  501    0  0.00000000000E+00 -0.00000000000E+00 -0.14552790957E+04  0.14552790957E+04  0.00000000000E+00 0. -1.
         25    2    1    2    0    0 -0.27794807398E+02 -0.84449491001E+02 -0.97254908852E+03  0.98458298303E+03  0.12509057933E+03 0.  0.
         23    2    1    2    0    0  0.27794807398E+02  0.84449491001E+02 -0.46820208155E+03  0.48522403835E+03  0.91240946863E+02 0.  0.
          5    1    3    3  502    0 -0.66269386360E+02 -0.55031136824E+02 -0.81886009663E+03  0.82338896510E+03  0.41800000000E+01 0.  1.
         -5    1    3    3    0  502  0.38474578962E+02 -0.29418354178E+02 -0.15368899189E+03  0.16119401793E+03  0.41800000000E+01 0.  1.
        -11    1    4    4    0    0 -0.25607595412E+02  0.42609227850E+02 -0.29590794042E+03  0.30005466909E+03  0.00000000000E+00 0. -1.
         11    1    4    4    0    0  0.53402402810E+02  0.41840263151E+02 -0.17229414112E+03  0.18516936926E+03  0.00000000000E+00 0.  1.
</event>
<event>
 8    1  0.6443238E-009  0.1371853E+03  0.7561462E-02  0.1217167E+00
         -4   -1    0    0    0  501 -0.00000000000E+00  0.00000000000E+00  0.14172930271E+02  0.14172930271E+02  0.00000000000E+00 0.  1.
          4   -1    0    0  501    0  0.00000000000E+00 -0.00000000000E+00 -0.15692987151E+04  0.15692987151E+04  0.00000000000E+00 0. -1.
         25    2    1    2    0    0  0.76225166395E+02 -0.40319333937E+02 -0.11482184682E+04  0.11582263132E+04  0.12508643901E+03 0.  0.
         23    2    1    2    0    0 -0.76225166395E+02  0.40319333937E+02 -0.40690731658E+03  0.42524533211E+03  0.88453962673E+02 0.  0.
          5    1    3    3  502    0  0.40697662049E+02  0.43999550769E+02 -0.42242439026E+03  0.42667563564E+03  0.41800000000E+01 0.  1.
         -5    1    3    3    0  502  0.35527504346E+02 -0.84318884706E+02 -0.72579407797E+03  0.73155067760E+03  0.41800000000E+01 0.  1.
        -11    1    4    4    0    0 -0.13245811207E+02 -0.27267456644E+02 -0.12326479193E+03  0.12693768013E+03  0.00000000000E+00 0. -1.
         11    1    4    4    0    0 -0.62979355188E+02  0.67586790581E+02 -0.28364252465E+03  0.29830765198E+03  0.00000000000E+00 0.  1.
</event>
<event>
 8    1  0.6443238E-009  0.9875561E+02  0.7561462E-02  0.1282935E+00
         -2   -1    0    0    0  501 -0.00000000000E+00  0.00000000000E+00  0.49110127546E+03  0.49110127546E+03  0.00000000000E+00 0. -1.
          2   -1    0    0  501    0  0.00000000000E+00 -0.00000000000E+00 -0.25961274300E+02  0.25961274300E+02  0.00000000000E+00 0.  1.
         25    2    1    2    0    0 -0.19845286376E+02  0.13208264990E+02  0.24997493022E+03  0.28054210294E+03  0.12509241435E+03 0.  0.
         23    2    1    2    0    0  0.19845286376E+02 -0.13208264990E+02  0.21516507094E+03  0.23652044682E+03  0.95276546724E+02 0.  0.
          5    1    3    3  502    0  0.72992877434E+01  0.51496064842E+02  0.21660977003E+03  0.22280572068E+03  0.41800000000E+01 0. -1.
         -5    1    3    3    0  502 -0.27144574119E+02 -0.38287799852E+02  0.33365160185E+02  0.57736382254E+02  0.41800000000E+01 0. -1.
        -11    1    4    4    0    0 -0.24129817787E+02 -0.40003510904E+02  0.10272077029E+03  0.11284540593E+03  0.00000000000E+00 0. -1.
         11    1    4    4    0    0  0.43975104162E+02  0.26795245914E+02  0.11244430065E+03  0.12367504088E+03  0.00000000000E+00 0.  1.
</event>
<event>
 8    1  0.6443238E-009  0.1345203E+03  0.7561462E-02  0.1220898E+00
         -1   -1    0    0    0  501 -0.00000000000E+00  0.00000000000E+00  0.44989985905E+03  0.44989985905E+03  0.00000000000E+00 0.  1.
          1   -1    0    0  501    0  0.00000000000E+00 -0.00000000000E+00 -0.53792027391E+02  0.53792027391E+02  0.00000000000E+00 0. -1.
         25    2    1    2    0    0 -0.57776464886E+02 -0.73759966228E+02  0.31022292401E+03  0.34737023354E+03  0.12509661889E+03 0.  0.
         23    2    1    2    0    0  0.57776464886E+02  0.73759966228E+02  0.85884907658E+02  0.15632165291E+03  0.91003237808E+02 0.  0.
          5    1    3    3  502    0 -0.41060917693E+02  0.29684933741E+02  0.87610621572E+02  0.10129307807E+03  0.41800000000E+01 0.  1.
         -5    1    3    3    0  502 -0.16715547193E+02 -0.10344489997E+03  0.22261230243E+03  0.24607715547E+03  0.41800000000E+01 0.  1.
        -11    1    4    4    0    0 -0.98929251973E+01  0.32734365803E+02  0.66607656343E+02  0.74873149774E+02  0.00000000000E+00 0.  1.
         11    1    4    4    0    0  0.67669390083E+02  0.41025600425E+02  0.19277251314E+02  0.81448503134E+02  0.00000000000E+00 0. -1.
</event>
<event>
 8    1  0.6443238E-009  0.1204305E+03  0.7561462E-02  0.1242389E+00
         -1   -1    0    0    0  501 -0.00000000000E+00  0.00000000000E+00  0.34585626359E+02  0.34585626359E+02  0.00000000000E+00 0.  1.
          1   -1    0    0  501    0  0.00000000000E+00 -0.00000000000E+00 -0.51285534838E+03  0.51285534838E+03  0.00000000000E+00 0. -1.
         25    2    1    2    0    0  0.28289345888E+02  0.65471706151E+02 -0.32019393493E+03  0.35108159776E+03  0.12508917187E+03 0.  0.
         23    2    1    2    0    0 -0.28289345888E+02 -0.65471706151E+02 -0.15807578709E+03  0.19635937698E+03  0.92098963445E+02 0.  0.
          5    1    3    3  502    0 -0.24446680821E+02  0.67424308356E+02 -0.26516039193E+03  0.27472019112E+03  0.41800000000E+01 0.  1.
         -5    1    3    3    0  502  0.52736026709E+02 -0.19526022050E+01 -0.55033543002E+02  0.76361406638E+02  0.41800000000E+01 0.  1.
        -11    1    4    4    0    0 -0.43776756917E+02  0.48784119837E+01 -0.52185326481E+02  0.68289908841E+02  0.00000000000E+00 0.  1.
         11    1    4    4    0    0  0.15487411029E+02 -0.70350118135E+02 -0.10589046061E+03  0.12806946814E+03  0.00000000000E+00 0. -1.
</event>
<event>
 8    1  0.6443238E-009  0.1132668E+03  0.7561462E-02  0.1254637E+00
          1   -1    0    0  501    0  0.00000000000E+00  0.00000000000E+00  0.20905119117E+02  0.20905119117E+02  0.00000000000E+00 0. -1.
         -1   -1    0    0    0  501 -0.00000000000E+00 -0.00000000000E+00 -0.81713315500E+03  0.81713315500E+03  0.00000000000E+00 0.  1.
         25    2    1    2    0    0  0.16132494526E+02 -0.69272731745E+02 -0.50765763822E+03  0.52765913104E+03  0.12509561217E+03 0.  0.
         23    2    1    2    0    0 -0.16132494526E+02  0.69272731745E+02 -0.28857039766E+03  0.31037914308E+03  0.89461552107E+02 0.  0.
          5    1    3    3  502    0  0.66755447920E+02 -0.56179212979E+02 -0.25297960060E+03  0.26763509583E+03  0.41800000000E+01 0.  1.
         -5    1    3    3    0  502 -0.50622953394E+02 -0.13093518766E+02 -0.25467803761E+03  0.26002403521E+03  0.41800000000E+01 0.  1.
        -11    1    4    4    0    0  0.55516470708E+01  0.64225646530E+02 -0.27864196823E+03  0.28600192468E+03  0.00000000000E+00 0.  1.
         11    1    4    4    0    0 -0.21684141597E+02  0.50470852146E+01 -0.99284294311E+01  0.24377218400E+02  0.00000000000E+00 0. -1.
</event>
<event>
 8    1  0.6443238E-009  0.1041245E+03  0.7561462E-02  0.1271854E+00
         -1   -1    0    0    0  501 -0.00000000000E+00  0.00000000000E+00  0.39876185933E+02  0.39876185933E+02  0.00000000000E+00 0.  1.
          1   -1    0    0  501    0  0.00000000000E+00 -0.00000000000E+00 -0.38970408021E+03  0.38970408021E+03  0.00000000000E+00 0. -1.
         25    2    1    2    0    0 -0.38407199981E+02  0.47370021989E+02 -0.20789105606E+03  0.25016542313E+03  0.12508003737E+03 0.  0.
         23    2    1    2    0    0  0.38407199981E+02 -0.47370021989E+02 -0.14193683822E+03  0.17941484301E+03  0.91239179391E+02 0.  0.
          5    1    3    3  502    0  0.83400644487E+01  0.65575140733E+02 -0.46036223091E+02  0.80662643111E+02  0.41800000000E+01 0.  1.
         -5    1    3    3    0  502 -0.46747264430E+02 -0.18205118744E+02 -0.16185483297E+03  0.16950278002E+03  0.41800000000E+01 0.  1.
        -11    1    4    4    0    0  0.33399138416E+02  0.93885638195E+01 -0.10721808796E+03  0.11269146358E+03  0.00000000000E+00 0.  1.
         11    1    4    4    0    0  0.50080615650E+01 -0.56758585809E+02 -0.34718750261E+02  0.66723379436E+02  0.00000000000E+00 0. -1.
</event>
<event>
 8    1  0.6443238E-009  0.1147127E+03  0.7561462E-02  0.1252083E+00
         -2   -1    0    0    0  501 -0.00000000000E+00  0.00000000000E+00  0.50957461309E+02  0.50957461309E+02  0.00000000000E+00 0.  1.
          2   -1    0    0  501    0  0.00000000000E+00 -0.00000000000E+00 -0.49838995234E+03  0.49838995234E+03  0.00000000000E+00 0. -1.
         25    2    1    2    0    0 -0.96827969548E+01 -0.43441571285E+02 -0.42389257009E+03  0.44419870964E+03  0.12508659400E+03 0.  0.
         23    2    1    2    0    0  0.96827969548E+01  0.43441571285E+02 -0.23539920944E+02  0.10514870401E+03  0.92310321221E+02 0.  0.
          5    1    3    3  502    0 -0.31428456302E+02 -0.82117109111E+02 -0.27038087911E+03  0.28434883447E+03  0.41800000000E+01 0.  1.
         -5    1    3    3    0  502  0.21745659347E+02  0.38675537826E+02 -0.15351169098E+03  0.15984987517E+03  0.41800000000E+01 0.  1.
        -11    1    4    4    0    0 -0.34526706517E+02  0.39479468420E+02 -0.29800929691E+02  0.60322610190E+02  0.00000000000E+00 0.  1.
         11    1    4    4    0    0  0.44209503472E+02  0.39621028643E+01  0.62610087475E+01  0.44826093817E+02  0.00000000000E+00 0. -1.
</event>
<event>
 7    1  0.6443238E-009  0.1204358E+03  0.7561462E-02  0.1242380E+00
         -1   -1    0    0    0  501 -0.00000000000E+00  0.00000000000E+00  0.18947667541E+03  0.18947667541E+03  0.00000000000E+00 0.  1.
          1   -1    0    0  501    0  0.00000000000E+00 -0.00000000000E+00 -0.13819422700E+03  0.13819422700E+03  0.00000000000E+00 0. -1.
         23    2    1    2    0    0  0.87462047284E+02  0.94337282778E+01  0.10592130846E+03  0.16522122590E+03  0.91324284607E+02 0.  0.
          5    1    1    2  502    0 -0.35304947166E+02 -0.66338309535E+02 -0.32947214874E+02  0.82159612793E+02  0.41800000000E+01 0. -1.
         -5    1    1    2    0  502 -0.52157100118E+02  0.56904581257E+02 -0.21691645181E+02  0.80290063716E+02  0.41800000000E+01 0. -1.
        -11    1    3    3    0    0  0.30010239253E+02 -0.41593495135E+00 -0.13057816925E+02  0.32730628542E+02  0.00000000000E+00 0. -1.
         11    1    3    3    0    0  0.57451808031E+02  0.98496632291E+01  0.11897912539E+03  0.13249059736E+03  0.00000000000E+00 0.  1.
</event>
<event>
 8    1  0.6443238E-009  0.1041493E+03  0.7561462E-02  0.1271805E+00
         -2   -1    0    0    0  501 -0.00000000000E+00  0.00000000000E+00  0.73695826830E+02  0.73695826830E+02  0.00000000000E+00 0.  1.
          2   -1    0    0  501    0  0.00000000000E+00 -0.00000000000E+00 -0.24710399148E+03  0.24710399148E+03  0.00000000000E+00 0. -1.
         25    2    1    2    0    0 -0.43393997101E+02 -0.66599430396E+02 -0.99988184056E+02  0.17878179712E+03  0.12508705336E+03 0.  0.
         23    2    1    2    0    0  0.43393997101E+02  0.66599430396E+02 -0.73419980598E+02  0.14201802119E+03  0.91978811034E+02 0.  0.
          5    1    3    3  502    0 -0.41690029460E+02  0.16249936454E+02  0.47172958291E+01  0.45186770974E+02  0.41800000000E+01 0. -1.
         -5    1    3    3    0  502 -0.17039676409E+01 -0.82849366850E+02 -0.10470547988E+03  0.13359502615E+03  0.41800000000E+01 0. -1.
        -11    1    4    4    0    0  0.12878719227E+02  0.30563140735E+02  0.19007778970E+02  0.38226465202E+02  0.00000000000E+00 0.  1.
         11    1    4    4    0    0  0.30515277874E+02  0.36036289661E+02 -0.92427759568E+02  0.10379155599E+03  0.00000000000E+00 0. -1.
</event>
<event>
 8    1  0.6443238E-009  0.8442074E+02  0.7561462E-02  0.1316954E+00
         -2   -1    0    0    0  501 -0.00000000000E+00  0.00000000000E+00  0.20356432361E+02  0.20356432361E+02  0.00000000000E+00 0.  1.
          2   -1    0    0  501    0  0.00000000000E+00 -0.00000000000E+00 -0.61597903311E+03  0.61597903311E+03  0.00000000000E+00 0. -1.
         25    2    1    2    0    0 -0.32434873838E+02 -0.14556317876E+02 -0.37007633588E+03  0.39225943555E+03  0.12508822073E+03 0.  0.
         23    2    1    2    0    0  0.32434873838E+02  0.14556317876E+02 -0.22554626487E+03  0.24407602992E+03  0.86244323619E+02 0.  0.
          5    1    3    3  502    0 -0.37023853559E+02 -0.41794918356E+02 -0.35708755791E+03  0.36145065686E+03  0.41800000000E+01 0.  1.
         -5    1    3    3    0  502  0.45889797207E+01  0.27238600479E+02 -0.12988777974E+02  0.30808778688E+02  0.41800000000E+01 0.  1.
        -11    1    4    4    0    0  0.57604253738E+02  0.44011047411E+01 -0.98753750032E+02  0.11441120101E+03  0.00000000000E+00 0.  1.
         11    1    4    4    0    0 -0.25169379899E+02  0.10155213135E+02 -0.12679251483E+03  0.12966482891E+03  0.00000000000E+00 0. -1.
</event>
<event>
 8    1  0.6443238E-009  0.8041911E+02  0.7561462E-02  0.1327866E+00
         -1   -1    0    0    0  501 -0.00000000000E+00  0.00000000000E+00  0.48655397448E+02  0.48655397448E+02  0.00000000000E+00 0.  1.
          1   -1    0    0  501    0  0.00000000000E+00 -0.00000000000E+00 -0.29988887856E+03  0.29988887856E+03  0.00000000000E+00 0. -1.
         25    2    1    2    0    0 -0.53284339288E+01  0.67881668387E+01 -0.64085285630E+02  0.14081080724E+03  0.12508512375E+03 0.  0.
         23    2    1    2    0    0  0.53284339288E+01 -0.67881668387E+01 -0.18714819549E+03  0.20773346877E+03  0.89745615813E+02 0.  0.
          5    1    3    3  502    0 -0.42493926958E+02 -0.30534255554E+02  0.62243949601E+01  0.52861045045E+02  0.41800000000E+01 0. -1.
         -5    1    3    3    0  502  0.37165493029E+02  0.37322422393E+02 -0.70309680590E+02  0.87949762195E+02  0.41800000000E+01 0. -1.
        -11    1    4    4    0    0 -0.24172215752E+02 -0.93030608257E+01 -0.94269495967E+01  0.27562843354E+02  0.00000000000E+00 0.  1.
         11    1    4    4    0    0  0.29500649681E+02  0.25148939870E+01 -0.17772124589E+03  0.18017062542E+03  0.00000000000E+00 0. -1.
</event>
<event>
 8    1  0.6443238E-009  0.1213378E+03  0.7561462E-02  0.1240906E+00
          1   -1    0    0  501    0  0.00000000000E+00  0.00000000000E+00  0.53202104496E+03  0.53202104496E+03  0.00000000000E+00 0. -1.
         -1   -1    0    0    0  501 -0.00000000000E+00 -0.00000000000E+00 -0.36569893489E+02  0.36569893489E+02  0.00000000000E+00 0.  1.
         25    2    1    2    0    0 -0.65631901309E+02 -0.39884965290E+02  0.18905313758E+03  0.23934711756E+03  0.12509035505E+03 0.  0.
         23    2    1    2    0    0  0.65631901309E+02  0.39884965290E+02  0.30639801389E+03  0.32924382090E+03  0.92862229967E+02 0.  0.
          5    1    3    3  502    0 -0.95206711054E+02 -0.24535993509E+02  0.85082943058E+02  0.13008809479E+03  0.41800000000E+01 0.  1.
         -5    1    3    3    0  502  0.29574809744E+02 -0.15348971781E+02  0.10397019452E+03  0.10925902276E+03  0.41800000000E+01 0.  1.
        -11    1    4    4    0    0  0.49117922361E+02  0.64483473378E+02  0.15439560829E+03  0.17438088340E+03  0.00000000000E+00 0. -1.
         11    1    4    4    0    0  0.16513978948E+02 -0.24598508088E+02  0.15200240560E+03  0.15486293749E+03  0.00000000000E+00 0.  1.
</event>
<event>
 8    1  0.6443238E-009  0.1060646E+03  0.7561462E-02  0.1268036E+00
         -1   -1    0    0    0  501 -0.00000000000E+00  0.00000000000E+00  0.52229453131E+02  0.52229453131E+02  0.00000000000E+00 0.  1.
          1   -1    0    0  501    0  0.00000000000E+00 -0.00000000000E+00 -0.34775913533E+03  0.34775913533E+03  0.00000000000E+00 0. -1.
         25    2    1    2    0    0  0.12003730175E+02 -0.69952516247E+02 -0.11667873621E+03  0.18520258360E+03  0.12509446600E+03 0.  0.
         23    2    1    2    0    0 -0.12003730175E+02  0.69952516247E+02 -0.17885094599E+03  0.21478600486E+03  0.95435438561E+02 0.  0.
          5    1    3    3  502    0  0.34363600222E+02 -0.24631363746E+02  0.14238036334E+02  0.44807981196E+02  0.41800000000E+01 0. -1.
         -5    1    3    3    0  502 -0.22359870047E+02 -0.45321152500E+02 -0.13091677254E+03  0.14039460241E+03  0.41800000000E+01 0. -1.
        -11    1    4    4    0    0 -0.31468627068E+02 -0.12763603200E+02 -0.50881803160E+02  0.61173049204E+02  0.00000000000E+00 0.  1.
         11    1    4    4    0    0  0.19464896893E+02  0.82716119447E+02 -0.12796914283E+03  0.15361295566E+03  0.00000000000E+00 0. -1.
</event>
<event>
 8    1  0.6443238E-009  0.1152029E+03  0.7561462E-02  0.1251227E+00
         -1   -1    0    0    0  501 -0.00000000000E+00  0.00000000000E+00  0.11566753661E+03  0.11566753661E+03  0.00000000000E+00 0.  1.
          1   -1    0    0  501    0  0.00000000000E+00 -0.00000000000E+00 -0.16836704066E+03  0.16836704066E+03  0.00000000000E+00 0. -1.
         25    2    1    2    0    0 -0.31285511340E+02 -0.80685759476E+02 -0.13179831611E+02  0.15267690393E+03  0.12509018359E+03 0.  0.
         23    2    1    2    0    0  0.31285511340E+02  0.80685759476E+02 -0.39519672436E+02  0.13135767333E+03  0.90576259756E+02 0.  0.
          5    1    3    3  502    0 -0.58234474774E+02 -0.69948462881E+01 -0.38310373119E+02  0.70180759580E+02  0.41800000000E+01 0. -1.
         -5    1    3    3    0  502  0.26948963434E+02 -0.73690913188E+02  0.25130541508E+02  0.82496144353E+02  0.41800000000E+01 0. -1.
        -11    1    4    4    0    0 -0.11972340721E+01  0.44050390542E+02  0.24766371694E+02  0.50549415854E+02  0.00000000000E+00 0.  1.
         11    1    4    4    0    0  0.32482745412E+02  0.36635368934E+02 -0.64286044130E+02  0.80808257477E+02  0.00000000000E+00 0. -1.
</event>
<event>
 8    1  0.6443238E-009  0.1432230E+03  0.7561462E-02  0.1209057E+00
          2   -1    0    0  501    0  0.00000000000E+00  0.00000000000E+00  0.38759721608E+03  0.38759721608E+03  0.00000000000E+00 0. -1.
         -2   -1    0    0    0  501 -0.00000000000E+00 -0.00000000000E+00 -0.57249762248E+02  0.57249762248E+02  0.00000000000E+00 0.  1.
         25    2    1    2    0    0 -0.34956113408E+01 -0.10029574594E+03  0.15779865278E+03  0.22498789080E+03  0.12509068803E+03 0.  0.
         23    2    1    2    0    0  0.34956113408E+01  0.10029574594E+03  0.17254880105E+03  0.21985908753E+03  0.92160043800E+02 0.  0.
          5    1    3    3  502    0  0.53493589633E+02 -0.82507619675E+02  0.11525945767E+03  0.15156281344E+03  0.41800000000E+01 0. -1.
         -5    1    3    3    0  502 -0.56989200973E+02 -0.17788126269E+02  0.42539195112E+02  0.73425077355E+02  0.41800000000E+01 0. -1.
        -11    1    4    4    0    0  0.36457743757E+02  0.83655515195E+02  0.84449230043E+02  0.12433456783E+03  0.00000000000E+00 0.  1.
         11    1    4    4    0    0 -0.32962132416E+02  0.16640230750E+02  0.88099571008E+02  0.95524519704E+02  0.00000000000E+00 0. -1.
</event>
<event>
 8    1  0.6443238E-009  0.1165023E+03  0.7561462E-02  0.1248981E+00
          3   -1    0    0  501    0  0.00000000000E+00  0.00000000000E+00  0.86445984606E+03  0.86445984606E+03  0.00000000000E+00 0. -1.
         -3   -1    0    0    0  501 -0.00000000000E+00 -0.00000000000E+00 -0.16891095428E+02  0.16891095428E+02  0.00000000000E+00 0.  1.
         25    2    1    2    0    0  0.16467424265E+02 -0.48866488114E+02  0.43271098171E+03  0.45337180383E+03  0.12509232226E+03 0.  0.
         23    2    1    2    0    0 -0.16467424265E+02  0.48866488114E+02  0.41485776892E+03  0.42797913766E+03  0.91651863693E+02 0.  0.
          5    1    3    3  502    0 -0.41853346248E+02  0.14250021746E+02  0.20945000447E+03  0.21410638123E+03  0.41800000000E+01 0. -1.
         -5    1    3    3    0  502  0.58320770513E+02 -0.63116509860E+02  0.22326097725E+03  0.23926542260E+03  0.41800000000E+01 0. -1.
        -11    1    4    4    0    0 -0.27776714141E+02  0.71800563136E+02  0.34762600991E+03  0.35604874594E+03  0.00000000000E+00 0. -1.
         11    1    4    4    0    0  0.11309289876E+02 -0.22934075022E+02  0.67231759008E+02  0.71930391726E+02  0.00000000000E+00 0.  1.
</event>
<event>
 8    1  0.6443238E-009  0.8701432E+02  0.7561462E-02  0.1310247E+00
         -2   -1    0    0    0  501 -0.00000000000E+00  0.00000000000E+00  0.62463756185E+02  0.62463756185E+02  0.00000000000E+00 0.  1.
          2   -1    0    0  501    0  0.00000000000E+00 -0.00000000000E+00 -0.18794829770E+03  0.18794829770E+03  0.00000000000E+00 0. -1.
         25    2    1    2    0    0  0.19545038151E+01 -0.12586815676E+02 -0.75478243570E+02  0.14665064573E+03  0.12508876299E+03 0.  0.
         23    2    1    2    0    0 -0.19545038151E+01  0.12586815676E+02 -0.50006297943E+02  0.10376140816E+03  0.90019731029E+02 0.  0.
          5    1    3    3  502    0  0.71281192014E+01  0.44204614899E+02  0.77901686339E+01  0.45640083141E+02  0.41800000000E+01 0.  1.
         -5    1    3    3    0  502 -0.51736153863E+01 -0.56791430575E+02 -0.83268412204E+02  0.10101056259E+03  0.41800000000E+01 0.  1.
        -11    1    4    4    0    0  0.53200993867E+01 -0.29089647266E+02  0.92206041370E+01  0.30976290549E+02  0.00000000000E+00 0.  1.
         11    1    4    4    0    0 -0.72746032018E+01  0.41676462942E+02 -0.59226902080E+02  0.72785117607E+02  0.00000000000E+00 0. -1.
</event>
<event>
 8    1  0.6443238E-009  0.1185321E+03  0.7561462E-02  0.1245539E+00
          2   -1    0    0  501    0  0.00000000000E+00  0.00000000000E+00  0.77363727888E+03  0.77363727888E+03  0.00000000000E+00 0. -1.
         -2   -1    0    0    0  501 -0.00000000000E+00 -0.00000000000E+00 -0.28276956832E+02  0.28276956832E+02  0.00000000000E+00 0.  1.
         25    2    1    2    0    0 -0.11233936199E+02 -0.92963587806E+02  0.29884475180E+03  0.33722971580E+03  0.12508903055E+03 0.  0.
         23    2    1    2    0    0  0.11233936199E+02  0.92963587806E+02  0.44651557025E+03  0.46468451990E+03  0.88244651885E+02 0.  0.
          5    1    3    3  502    0 -0.42422984086E+02 -0.54447361234E+02  0.27211856205E+03  0.28076717923E+03  0.41800000000E+01 0.  1.
         -5    1    3    3    0  502  0.31189047887E+02 -0.38516226572E+02  0.26726189751E+02  0.56462536572E+02  0.41800000000E+01 0.  1.
        -11    1    4    4    0    0 -0.30252732144E+02  0.50097128669E+02  0.31334138381E+03  0.31875974168E+03  0.00000000000E+00 0.  1.
         11    1    4    4    0    0  0.41486668342E+02  0.42866459137E+02  0.13317418643E+03  0.14592477823E+03  0.00000000000E+00 0. -1.
</event>
<event>
 8    1  0.6443238E-009  0.1089798E+03  0.7561462E-02  0.1262471E+00
         -1   -1    0    0    0  501 -0.00000000000E+00  0.00000000000E+00  0.37998298115E+03  0.37998298115E+03  0.00000000000E+00 0.  1.
          1   -1    0    0  501    0  0.00000000000E+00 -0.00000000000E+00 -0.40826592407E+02  0.40826592407E+02  0.00000000000E+00 0. -1.
         25    2    1    2    0    0 -0.23943042198E+02  0.54912849367E+02  0.16800393483E+03  0.21787712554E+03  0.12512565451E+03 0.  0.
         23    2    1    2    0    0  0.23943042198E+02 -0.54912849367E+02  0.17115245392E+03  0.20293244803E+03  0.91102830281E+02 0.  0.
          5    1    3    3  502    0 -0.71603628036E+02  0.88135032716E+01  0.85560726279E+02  0.11199494484E+03  0.41800000000E+01 0.  1.
         -5    1    3    3    0  502  0.47660585837E+02  0.46099346095E+02  0.82443208554E+02  0.10588218070E+03  0.41800000000E+01 0.  1.
        -11    1    4    4    0    0  0.37556123972E+02 -0.53779919322E+02  0.17647535639E+03  0.18827186084E+03  0.00000000000E+00 0.  1.
         11    1    4    4    0    0 -0.13613081773E+02 -0.11329300446E+01 -0.53229024776E+01  0.14660587186E+02  0.00000000000E+00 0. -1.
</event>
<event>
 8    1  0.6443238E-009  0.1006966E+03  0.7561462E-02  0.1278838E+00
          2   -1    0    0  501    0  0.00000000000E+00  0.00000000000E+00  0.48999526397E+03  0.48999526397E+03  0.00000000000E+00 0.  1.
         -2   -1    0    0    0  501 -0.00000000000E+00 -0.00000000000E+00 -0.27751128543E+02  0.27751128543E+02  0.00000000000E+00 0. -1.
         25    2    1    2    0    0 -0.40474940286E+02 -0.13057586524E+02  0.25817421219E+03  0.29001634207E+03  0.12508730339E+03 0.  0.
         23    2    1    2    0    0  0.40474940286E+02  0.13057586524E+02  0.20406992324E+03  0.22773005045E+03  0.91693625448E+02 0.  0.
          5    1    3    3  502    0 -0.71086518847E+02 -0.42385926421E+02  0.20971916581E+03  0.22549825017E+03  0.41800000000E+01 0.  1.
         -5    1    3    3    0  502  0.30611578561E+02  0.29328339897E+02  0.48455046380E+02  0.64518091903E+02  0.41800000000E+01 0.  1.
        -11    1    4    4    0    0 -0.55209282892E+01  0.27238463337E+02  0.12984611247E+02  0.30675962305E+02  0.00000000000E+00 0. -1.
         11    1    4    4    0    0  0.45995868575E+02 -0.14180876813E+02  0.19108531199E+03  0.19705408814E+03  0.00000000000E+00 0.  1.
</event>
<event>
 8    1  0.6443238E-009  0.1095369E+03  0.7561462E-02  0.1261430E+00
         -2   -1    0    0    0  501 -0.00000000000E+00  0.00000000000E+00  0.17074171803E+02  0.17074171803E+02  0.00000000000E+00 0.  1.
          2   -1    0    0  501    0  0.00000000000E+00 -0.00000000000E+00 -0.76127131870E+03  0.76127131870E+03  0.00000000000E+00 0. -1.
         25    2    1    2    0    0  0.11755608954E+02  0.23092229097E+02 -0.52166453973E+03  0.53707716343E+03  0.12508613863E+03 0.  0.
         23    2    1    2    0    0 -0.11755608954E+02 -0.23092229097E+02 -0.22253260716E+03  0.24126832707E+03  0.89544396864E+02 0.  0.
          5    1    3    3  502    0 -0.48758367123E+02 -0.20382282437E+02 -0.20620638501E+03  0.21291162819E+03  0.41800000000E+01 0. -1.
         -5    1    3    3    0  502  0.60513976077E+02  0.43474511533E+02 -0.31545815473E+03  0.32416553524E+03  0.41800000000E+01 0. -1.
        -11    1    4    4    0    0  0.13281822426E+02 -0.51721723979E+02 -0.10608219479E+03  0.11876437003E+03  0.00000000000E+00 0.  1.
         11    1    4    4    0    0 -0.25037431379E+02  0.28629494883E+02 -0.11645041237E+03  0.12250395703E+03  0.00000000000E+00 0. -1.
</event>
<event>
 8    1  0.6443238E-009  0.1352782E+03  0.7561462E-02  0.1219828E+00
          2   -1    0    0  501    0  0.00000000000E+00  0.00000000000E+00  0.15385144577E+02  0.15385144577E+02  0.00000000000E+00 0.  1.
         -2   -1    0    0    0  501 -0.00000000000E+00 -0.00000000000E+00 -0.20280513844E+04  0.20280513844E+04  0.00000000000E+00 0. -1.
         25    2    1    2    0    0 -0.44414595917E+02  0.72738641107E+02 -0.16958081840E+04  0.17025500829E+04  0.12509125292E+03 0.  0.
         23    2    1    2    0    0  0.44414595917E+02 -0.72738641107E+02 -0.31685805583E+03  0.34088644610E+03  0.92417397451E+02 0.  0.
          5    1    3    3  502    0 -0.55346047609E+02  0.10381574410E+03 -0.12664138568E+04  0.12718735876E+04  0.41800000000E+01 0.  1.
         -5    1    3    3    0  502  0.10931451692E+02 -0.31077102991E+02 -0.42939432722E+03  0.43067649531E+03  0.41800000000E+01 0.  1.
        -11    1    4    4    0    0  0.47938109854E+02 -0.11501264393E+01 -0.78519893033E+02  0.92004123653E+02  0.00000000000E+00 0.  1.
         11    1    4    4    0    0 -0.35235139364E+01 -0.71588514668E+02 -0.23833816280E+03  0.24888232245E+03  0.00000000000E+00 0. -1.
</event>
<event>
 8    1  0.6443238E-009  0.1125257E+03  0.7561462E-02  0.1255963E+00
          1   -1    0    0  501    0  0.00000000000E+00  0.00000000000E+00  0.16323185035E+03  0.16323185035E+03  0.00000000000E+00 0. -1.
         -1   -1    0    0    0  501 -0.00000000000E+00 -0.00000000000E+00 -0.83349637304E+02  0.83349637304E+02  0.00000000000E+00 0.  1.
         25    2    1    2    0    0  0.38351803187E+02 -0.16723193684E+02  0.46054472134E+02  0.13971239245E+03  0.12509201487E+03 0.  0.
         23    2    1    2    0    0 -0.38351803187E+02  0.16723193684E+02  0.33827740914E+02  0.10686909521E+03  0.92337215904E+02 0.  0.
          5    1    3    3  502    0  0.71896662833E+02  0.26752773723E+02  0.27444064859E+02  0.81581187319E+02  0.41800000000E+01 0.  1.
         -5    1    3    3    0  502 -0.33544859645E+02 -0.43475967407E+02  0.18610407275E+02  0.58131205127E+02  0.41800000000E+01 0.  1.
        -11    1    4    4    0    0 -0.10744344956E+02  0.49296770166E+02 -0.29141378067E+01  0.50538150901E+02  0.00000000000E+00 0.  1.
         11    1    4    4    0    0 -0.27607458232E+02 -0.32573576482E+02  0.36741878721E+02  0.56330944309E+02  0.00000000000E+00 0. -1.
</event>
<event>
 8    1  0.6443238E-009  0.9306987E+02  0.7561462E-02  0.1295583E+00
          1   -1    0    0  501    0  0.00000000000E+00  0.00000000000E+00  0.33015660211E+03  0.33015660211E+03  0.00000000000E+00 0. -1.
         -1   -1    0    0    0  501 -0.00000000000E+00 -0.00000000000E+00 -0.44552649799E+02  0.44552649799E+02  0.00000000000E+00 0.  1.
         25    2    1    2    0    0 -0.30179456940E+02  0.88410605859E+01  0.19470508647E+03  0.23354912574E+03  0.12508460921E+03 0.  0.
         23    2    1    2    0    0  0.30179456940E+02 -0.88410605859E+01  0.90898865842E+02  0.14116012618E+03  0.10331802087E+03 0.  0.
          5    1    3    3  502    0 -0.60502910057E+02 -0.27105267713E+02  0.55522605074E+02  0.86576727458E+02  0.41800000000E+01 0. -1.
         -5    1    3    3    0  502  0.30323453117E+02  0.35946328299E+02  0.13918248140E+03  0.14697239828E+03  0.41800000000E+01 0. -1.
        -11    1    4    4    0    0  0.26937887312E+02  0.26039825023E+02 -0.61632462888E+01  0.37969828349E+02  0.00000000000E+00 0.  1.
         11    1    4    4    0    0  0.32415696282E+01 -0.34880885609E+02  0.97062112131E+02  0.10319029783E+03  0.00000000000E+00 0. -1.
</event>
<event>
 8    1  0.6443238E-009  0.1092221E+03  0.7561462E-02  0.1262017E+00
         -2   -1    0    0    0  501 -0.00000000000E+00  0.00000000000E+00  0.99678105759E+02  0.99678105759E+02  0.00000000000E+00 0.  1.
          2   -1    0    0  501    0  0.00000000000E+00 -0.00000000000E+00 -0.17604745396E+03  0.17604745396E+03  0.00000000000E+00 0. -1.
         25    2    1    2    0    0  0.52489104232E+02 -0.37809177068E+02 -0.83118618532E+02  0.16352659918E+03  0.12509038316E+03 0.  0.
         23    2    1    2    0    0 -0.52489104232E+02  0.37809177068E+02  0.67492703326E+01  0.11219896054E+03  0.91424363068E+02 0.  0.
          5    1    3    3  502    0  0.90817436670E+02 -0.44068489991E+02 -0.67245487319E+02  0.12136418985E+03  0.41800000000E+01 0. -1.
         -5    1    3    3    0  502 -0.38328332438E+02  0.62593129237E+01 -0.15873131213E+02  0.42162409327E+02  0.41800000000E+01 0. -1.
        -11    1    4    4    0    0 -0.31141987417E+02  0.45947498092E+02 -0.34279348513E+02  0.65238559883E+02  0.00000000000E+00 0. -1.
         11    1    4    4    0    0 -0.21347116815E+02 -0.81383210244E+01  0.41028618845E+02  0.46960400656E+02  0.00000000000E+00 0.  1.
</event>
<event>
 8    1  0.6443238E-009  0.1200706E+03  0.7561462E-02  0.1242981E+00
         -2   -1    0    0    0  501 -0.00000000000E+00  0.00000000000E+00  0.17019519754E+03  0.17019519754E+03  0.00000000000E+00 0. -1.
          2   -1    0    0  501    0  0.00000000000E+00 -0.00000000000E+00 -0.10856113763E+03  0.10856113763E+03  0.00000000000E+00 0.  1.
         25    2    1    2    0    0  0.48895305292E+02 -0.63859739271E+02  0.45273340740E+02  0.15548598197E+03  0.12512952501E+03 0.  0.
         23    2    1    2    0    0 -0.48895305292E+02  0.63859739271E+02  0.16360719169E+02  0.12327035319E+03  0.91973309522E+02 0.  0.
          5    1    3    3  502    0  0.60258003128E+02 -0.80584457755E+02  0.70465715456E+02  0.12291367388E+03  0.41800000000E+01 0. -1.
         -5    1    3    3    0  502 -0.11362697836E+02  0.16724718483E+02 -0.25192374716E+02  0.32572308090E+02  0.41800000000E+01 0. -1.
        -11    1    4    4    0    0 -0.60354453793E+02  0.69735492670E+01  0.22782814774E+02  0.64887187726E+02  0.00000000000E+00 0. -1.
         11    1    4    4    0    0  0.11459148501E+02  0.56886190004E+02 -0.64220956047E+01  0.58383165464E+02  0.00000000000E+00 0.  1.
</event>
<event>
 8    1  0.6443238E-009  0.1599133E+03  0.7561462E-02  0.1188795E+00
         -1   -1    0    0    0  501 -0.00000000000E+00  0.00000000000E+00  0.10687654740E+03  0.10687654740E+03  0.00000000000E+00 0.  1.
          1   -1    0    0  501    0  0.00000000000E+00 -0.00000000000E+00 -0.29577466184E+03  0.29577466184E+03  0.00000000000E+00 0. -1.
         25    2    1    2    0    0  0.94243264193E+02 -0.87969090619E+02 -0.37101288913E+02  0.18342676215E+03  0.12509403536E+03 0.  0.
         23    2    1    2    0    0 -0.94243264193E+02  0.87969090619E+02 -0.15179682553E+03  0.21922444708E+03  0.91633663074E+02 0.  0.
          5    1    3    3  502    0  0.11359921902E+03 -0.31504294513E+02 -0.36873939720E+02  0.12358989831E+03  0.41800000000E+01 0.  1.
         -5    1    3    3    0  502 -0.19355954824E+02 -0.56464796105E+02 -0.22734919312E+00  0.59836863838E+02  0.41800000000E+01 0.  1.
        -11    1    4    4    0    0 -0.83052038655E+02  0.38919300201E+02 -0.14029563137E+03  0.16761627974E+03  0.00000000000E+00 0. -1.
         11    1    4    4    0    0 -0.11191225538E+02  0.49049790418E+02 -0.11501194155E+02  0.51608167339E+02  0.00000000000E+00 0.  1.
</event>
<event>
 8    1  0.6443238E-009  0.1677686E+03  0.7561462E-02  0.1180195E+00
         -2   -1    0    0    0  501 -0.00000000000E+00  0.00000000000E+00  0.15330418736E+02  0.15330418736E+02  0.00000000000E+00 0.  1.
          2   -1    0    0  501    0  0.00000000000E+00 -0.00000000000E+00 -0.25854601464E+04  0.25854601464E+04  0.00000000000E+00 0. -1.
         25    2    1    2    0    0 -0.12645040507E+03 -0.17503125813E+02 -0.20389309467E+04  0.20467492109E+04  0.12508742090E+03 0.  0.
         23    2    1    2    0    0  0.12645040507E+03  0.17503125813E+02 -0.53119878102E+03  0.55404135421E+03  0.92160798980E+02 0.  0.
          5    1    3    3  502    0 -0.12083704390E+03  0.34581837944E+02 -0.14996587664E+04  0.15049223843E+04  0.41800000000E+01 0. -1.
         -5    1    3    3    0  502 -0.56133611729E+01 -0.52084963757E+02 -0.53927218023E+03  0.54182682662E+03  0.41800000000E+01 0. -1.
        -11    1    4    4    0    0  0.13941540305E+02  0.40114386325E+02 -0.13079192845E+03  0.13751385052E+03  0.00000000000E+00 0.  1.
         11    1    4    4    0    0  0.11250886476E+03 -0.22611260512E+02 -0.40040685257E+03  0.41652750370E+03  0.00000000000E+00 0. -1.
</event>
<event>
 8    1  0.6443238E-009  0.2348837E+03  0.7561462E-02  0.1123249E+00
          1   -1    0    0  501    0  0.00000000000E+00  0.00000000000E+00  0.16445450025E+03  0.16445450025E+03  0.00000000000E+00 0. -1.
         -1   -1    0    0    0  501 -0.00000000000E+00 -0.00000000000E+00 -0.42588188789E+03  0.42588188789E+03  0.00000000000E+00 0.  1.
         25    2    1    2    0    0  0.19584953542E+03  0.89754872726E+02 -0.25461353132E+03  0.35621426033E+03  0.12509025234E+03 0.  0.
         23    2    1    2    0    0 -0.19584953542E+03 -0.89754872726E+02 -0.68138563323E+01  0.23412212781E+03  0.91398929931E+02 0.  0.
          5    1    3    3  502    0  0.99393331440E+02  0.10806652633E+03 -0.12070279013E+03  0.19011587097E+03  0.41800000000E+01 0.  1.
         -5    1    3    3    0  502  0.96456203977E+02 -0.18311653608E+02 -0.13391074118E+03  0.16609838936E+03  0.41800000000E+01 0.  1.
        -11    1    4    4    0    0 -0.11167095387E+03 -0.16222224094E+02 -0.36278251991E+02  0.11853132101E+03  0.00000000000E+00 0. -1.
         11    1    4    4    0    0 -0.84178581550E+02 -0.73532648632E+02  0.29464395659E+02  0.11559080681E+03  0.00000000000E+00 0.  1.
</event>
<event>
 8    1  0.6443238E-009  0.7687757E+02  0.7561462E-02  0.1338153E+00
          2   -1    0    0  501    0  0.00000000000E+00  0.00000000000E+00  0.47914516482E+03  0.47914516482E+03  0.00000000000E+00 0. -1.
         -2   -1    0    0    0  501 -0.00000000000E+00 -0.00000000000E+00 -0.30203622178E+02  0.30203622178E+02  0.00000000000E+00 0.  1.
         25    2    1    2    0    0  0.19156127257E+02 -0.39484769531E+02  0.29139403739E+03  0.32013157872E+03  0.12509092064E+03 0.  0.
         23    2    1    2    0    0 -0.19156127257E+02  0.39484769531E+02  0.15754750525E+03  0.18921720828E+03  0.95162656871E+02 0.  0.
          5    1    3    3  502    0  0.51336123475E+02 -0.30414496534E+02  0.27718224657E+03  0.28356288435E+03  0.41800000000E+01 0.  1.
         -5    1    3    3    0  502 -0.32179996218E+02 -0.90702729962E+01  0.14211790827E+02  0.36568694361E+02  0.41800000000E+01 0.  1.
        -11    1    4    4    0    0 -0.65794738580E+01  0.45731785286E+02  0.16634774718E+03  0.17264489176E+03  0.00000000000E+00 0. -1.
         11    1    4    4    0    0 -0.12576653399E+02 -0.62470157552E+01 -0.88002419306E+01  0.16572316513E+02  0.00000000000E+00 0.  1.
</event>
<event>
 8    1  0.6443238E-009  0.1099973E+03  0.7561462E-02  0.1260575E+00
          2   -1    0    0  501    0  0.00000000000E+00  0.00000000000E+00  0.11727555852E+04  0.11727555852E+04  0.00000000000E+00 0. -1.
         -2   -1    0    0    0  501 -0.00000000000E+00 -0.00000000000E+00 -0.15752809323E+02  0.15752809323E+02  0.00000000000E+00 0.  1.
         25    2    1    2    0    0  0.15467312746E+02 -0.57721515165E+02  0.88241900623E+03  0.89324149543E+03  0.12508419375E+03 0.  0.
         23    2    1    2    0    0 -0.15467312746E+02  0.57721515165E+02  0.27458376962E+03  0.29526689907E+03  0.90638204243E+02 0.  0.
          5    1    3    3  502    0 -0.37313773663E+02 -0.59254599365E+01  0.94643974368E+02  0.10199207354E+03  0.41800000000E+01 0. -1.
         -5    1    3    3    0  502  0.52781086409E+02 -0.51796055229E+02  0.78777503187E+03  0.79124942190E+03  0.41800000000E+01 0. -1.
        -11    1    4    4    0    0  0.91426440895E+01 -0.22349205847E+02  0.75832077546E+02  0.79583785583E+02  0.00000000000E+00 0. -1.
         11    1    4    4    0    0 -0.24609956836E+02  0.80070721012E+02  0.19875169207E+03  0.21568311348E+03  0.00000000000E+00 0.  1.
</event>
<event>
 8    1  0.6443238E-009  0.1044076E+03  0.7561462E-02  0.1271291E+00
          1   -1    0    0  501    0  0.00000000000E+00  0.00000000000E+00  0.34541180850E+03  0.34541180850E+03  0.00000000000E+00 0. -1.
         -1   -1    0    0    0  501 -0.00000000000E+00 -0.00000000000E+00 -0.62304125570E+02  0.62304125570E+02  0.00000000000E+00 0.  1.
         25    2    1    2    0    0  0.63651672294E+02  0.44373021557E+02  0.22873753539E+03  0.27201043023E+03  0.12509321974E+03 0.  0.
         23    2    1    2    0    0 -0.63651672294E+02 -0.44373021557E+02  0.54370147537E+02  0.13570550385E+03  0.97156422345E+02 0.  0.
          5    1    3    3  502    0 -0.17509340844E+02 -0.20106353875E+02  0.80608302679E+01  0.28165437464E+02  0.41800000000E+01 0. -1.
         -5    1    3    3    0  502  0.81161013138E+02  0.64479375432E+02  0.22067670513E+03  0.24384499276E+03  0.41800000000E+01 0. -1.
        -11    1    4    4    0    0 -0.26650281089E+02 -0.23911381084E+02 -0.26435227791E+02  0.44506324223E+02  0.00000000000E+00 0.  1.
         11    1    4    4    0    0 -0.37001391205E+02 -0.20461640472E+02  0.80805375328E+02  0.91199179622E+02  0.00000000000E+00 0. -1.
</event>
<event>
 8    1  0.6443238E-009  0.1256797E+03  0.7561462E-02  0.1234011E+00
         -2   -1    0    0    0  501 -0.00000000000E+00  0.00000000000E+00  0.10940933693E+03  0.10940933693E+03  0.00000000000E+00 0.  1.
          2   -1    0    0  501    0  0.00000000000E+00 -0.00000000000E+00 -0.17964608497E+03  0.17964608497E+03  0.00000000000E+00 0. -1.
         25    2    1    2    0    0  0.62799041055E+02 -0.41052588436E+02 -0.89274800801E+02  0.17101272141E+03  0.12508527591E+03 0.  0.
         23    2    1    2    0    0 -0.62799041055E+02  0.41052588436E+02  0.19038052765E+02  0.11804270049E+03  0.89121249495E+02 0.  0.
          5    1    3    3  502    0  0.97335646780E+02 -0.30821142259E+02 -0.87795125984E+02  0.13472055333E+03  0.41800000000E+01 0. -1.
         -5    1    3    3    0  502 -0.34536605725E+02 -0.10231446176E+02 -0.14796748167E+01  0.36292168073E+02  0.41800000000E+01 0. -1.
        -11    1    4    4    0    0 -0.26196420652E+02  0.64382274249E+02  0.25744565285E+02  0.74122279607E+02  0.00000000000E+00 0.  1.
         11    1    4    4    0    0 -0.36602620403E+02 -0.23329685813E+02 -0.67065125200E+01  0.43920420884E+02  0.00000000000E+00 0. -1.
</event>
<event>
 8    1  0.6443238E-009  0.1101891E+03  0.7561462E-02  0.1260220E+00
         -2   -1    0    0    0  501 -0.00000000000E+00  0.00000000000E+00  0.52175143623E+03  0.52175143623E+03  0.00000000000E+00 0.  1.
          2   -1    0    0  501    0  0.00000000000E+00 -0.00000000000E+00 -0.24145173011E+02  0.24145173011E+02  0.00000000000E+00 0. -1.
         25    2    1    2    0    0 -0.10938040875E+02 -0.27270568240E+02  0.30206839265E+03  0.32826082429E+03  0.12508609151E+03 0.  0.
         23    2    1    2    0    0  0.10938040875E+02  0.27270568240E+02  0.19553787057E+03  0.21763578496E+03  0.90922777334E+02 0.  0.
          5    1    3    3  502    0 -0.43945456400E+02 -0.64677789101E+02  0.19116911402E+03  0.20658538694E+03  0.41800000000E+01 0. -1.
         -5    1    3    3    0  502  0.33007415525E+02  0.37407220861E+02  0.11089927864E+03  0.12167543735E+03  0.41800000000E+01 0. -1.
        -11    1    4    4    0    0  0.23162839714E+02  0.56100670374E+02  0.15465145575E+03  0.16613511106E+03  0.00000000000E+00 0.  1.
         11    1    4    4    0    0 -0.12224798840E+02 -0.28830102134E+02  0.40886414813E+02  0.51500673899E+02  0.00000000000E+00 0. -1.
</event>
<event>
 8    1  0.6443238E-009  0.1620382E+03  0.7561462E-02  0.1186415E+00
         -2   -1    0    0    0  501 -0.00000000000E+00  0.00000000000E+00  0.21622841875E+02  0.21622841875E+02  0.00000000000E+00 0.  1.
          2   -1    0    0  501    0  0.00000000000E+00 -0.00000000000E+00 -0.12970406202E+04  0.12970406202E+04  0.00000000000E+00 0. -1.
         25    2    1    2    0    0  0.92443344531E+02  0.85875795671E+02 -0.72222415679E+03  0.74375716978E+03  0.12508625314E+03 0.  0.
         23    2    1    2    0    0 -0.92443344531E+02 -0.85875795671E+02 -0.55319362154E+03  0.57490629229E+03  0.92593940285E+02 0.  0.
          5    1    3    3  502    0  0.11804980870E+03  0.68385881454E+02 -0.66161860135E+03  0.67555091012E+03  0.41800000000E+01 0.  1.
         -5    1    3    3    0  502 -0.25606464173E+02  0.17489914217E+02 -0.60605555441E+02  0.68206259662E+02  0.41800000000E+01 0.  1.
        -11    1    4    4    0    0 -0.41680029141E+02 -0.95887195468E+02 -0.35578003907E+03  0.37082477706E+03  0.00000000000E+00 0. -1.
         11    1    4    4    0    0 -0.50763315390E+02  0.10011399797E+02 -0.19741358247E+03  0.20408151523E+03  0.00000000000E+00 0.  1.
</event>
<event>
 8    1  0.6443238E-009  0.1211966E+03  0.7561462E-02  0.1241136E+00
          3   -1    0    0  501    0  0.00000000000E+00  0.00000000000E+00  0.15942135743E+03  0.15942135743E+03  0.00000000000E+00 0. -1.
         -3   -1    0    0    0  501 -0.00000000000E+00 -0.00000000000E+00 -0.14869722830E+03  0.14869722830E+03  0.00000000000E+00 0.  1.
         25    2    1    2    0    0 -0.96764961919E+02 -0.46147422633E+02 -0.14019568734E+02  0.16533978555E+03  0.12509058280E+03 0.  0.
         23    2    1    2    0    0  0.96764961919E+02  0.46147422633E+02  0.24743697858E+02  0.14277880018E+03  0.90997212739E+02 0.  0.
          5    1    3    3  502    0 -0.28490739163E+02  0.12849555416E+02  0.46808100334E+02  0.56438497051E+02  0.41800000000E+01 0. -1.
         -5    1    3    3    0  502 -0.68274222756E+02 -0.58996978049E+02 -0.60827669069E+02  0.10890128850E+03  0.41800000000E+01 0. -1.
        -11    1    4    4    0    0  0.79083656382E+02  0.92590410593E+01 -0.20057690384E+02  0.82111299415E+02  0.00000000000E+00 0.  1.
         11    1    4    4    0    0  0.17681305537E+02  0.36888381574E+02  0.44801388242E+02  0.60667500765E+02  0.00000000000E+00 0. -1.
</event>
<event>
 8    1  0.6443238E-009  0.1491136E+03  0.7561462E-02  0.1201566E+00
         -2   -1    0    0    0  501 -0.00000000000E+00  0.00000000000E+00  0.13047885658E+03  0.13047885658E+03  0.00000000000E+00 0.  1.
          2   -1    0    0  501    0  0.00000000000E+00 -0.00000000000E+00 -0.24733025930E+03  0.24733025930E+03  0.00000000000E+00 0. -1.
         25    2    1    2    0    0  0.85229351589E+02  0.85584150957E+02 -0.14269591666E+03  0.22493545498E+03  0.12508055408E+03 0.  0.
         23    2    1    2    0    0 -0.85229351589E+02 -0.85584150957E+02  0.25844513936E+02  0.15287366091E+03  0.90076234558E+02 0.  0.
          5    1    3    3  502    0  0.10097638595E+03  0.10547155442E+03 -0.10758264961E+03  0.18141658746E+03  0.41800000000E+01 0.  1.
         -5    1    3    3    0  502 -0.15747034356E+02 -0.19887403458E+02 -0.35113267049E+02  0.43518867519E+02  0.41800000000E+01 0.  1.
        -11    1    4    4    0    0 -0.42323892249E+02 -0.17140376275E+02  0.50819584083E+02  0.68320820255E+02  0.00000000000E+00 0.  1.
         11    1    4    4    0    0 -0.42905459340E+02 -0.68443774683E+02 -0.24975070147E+02  0.84552840655E+02  0.00000000000E+00 0. -1.
</event>
<event>
 8    1  0.6443238E-009  0.1261180E+03  0.7561462E-02  0.1233332E+00
         -3   -1    0    0    0  501 -0.00000000000E+00  0.00000000000E+00  0.70054862716E+02  0.70054862716E+02  0.00000000000E+00 0.  1.
          3   -1    0    0  501    0  0.00000000000E+00 -0.00000000000E+00 -0.22933357259E+03  0.22933357259E+03  0.00000000000E+00 0. -1.
         25    2    1    2    0    0 -0.11815905011E+02 -0.63501697205E+02 -0.93508729521E+02  0.16900928487E+03  0.12509266452E+03 0.  0.
         23    2    1    2    0    0  0.11815905011E+02  0.63501697205E+02 -0.65769980356E+02  0.13037915044E+03  0.92200604088E+02 0.  0.
          5    1    3    3  502    0 -0.39478888466E+02 -0.92396644879E+02 -0.66942474271E+02  0.12080765655E+03  0.41800000000E+01 0.  1.
         -5    1    3    3    0  502  0.27662983456E+02  0.28894947674E+02 -0.26566255249E+02  0.48201628320E+02  0.41800000000E+01 0.  1.
        -11    1    4    4    0    0  0.41437923704E+02  0.62871398807E-01 -0.15737868991E+02  0.44325906580E+02  0.00000000000E+00 0.  1.
         11    1    4    4    0    0 -0.29622018694E+02  0.63438825806E+02 -0.50032111366E+02  0.86053243860E+02  0.00000000000E+00 0. -1.
</event>
<event>
 8    1  0.6443238E-009  0.1703215E+03  0.7561462E-02  0.1177513E+00
          2   -1    0    0  501    0  0.00000000000E+00  0.00000000000E+00  0.33818901693E+03  0.33818901693E+03  0.00000000000E+00 0. -1.
         -2   -1    0    0    0  501 -0.00000000000E+00 -0.00000000000E+00 -0.10610802308E+03  0.10610802308E+03  0.00000000000E+00 0.  1.
         25    2    1    2    0    0 -0.47087372271E+02  0.14321400306E+03  0.76351654738E+02  0.21024885984E+03  0.12509011385E+03 0.  0.
         23    2    1    2    0    0  0.47087372271E+02 -0.14321400306E+03  0.15572933911E+03  0.23404818016E+03  0.88314507736E+02 0.  0.
          5    1    3    3  502    0 -0.15388506232E+02 -0.10570815948E+02 -0.18619196236E+02  0.26696350731E+02  0.41800000000E+01 0.  1.
         -5    1    3    3    0  502 -0.31698866039E+02  0.15378481901E+03  0.94970850974E+02  0.18355250911E+03  0.41800000000E+01 0.  1.
        -11    1    4    4    0    0  0.60141783631E+02 -0.81097937529E+02  0.13222032062E+03  0.16636142220E+03  0.00000000000E+00 0.  1.
         11    1    4    4    0    0 -0.13054411360E+02 -0.62116065535E+02  0.23509018484E+02  0.67686757964E+02  0.00000000000E+00 0. -1.
</event>
<event>
 8    1  0.6443238E-009  0.1231008E+03  0.7561462E-02  0.1238068E+00
          2   -1    0    0  501    0  0.00000000000E+00  0.00000000000E+00  0.43912412601E+03  0.43912412601E+03  0.00000000000E+00 0. -1.
         -2   -1    0    0    0  501 -0.00000000000E+00 -0.00000000000E+00 -0.47166204066E+02  0.47166204066E+02  0.00000000000E+00 0.  1.
         25    2    1    2    0    0  0.35075108063E+02 -0.73842257363E+02  0.13716280415E+03  0.20283987507E+03  0.12508971940E+03 0.  0.
         23    2    1    2    0    0 -0.35075108063E+02  0.73842257363E+02  0.25479511780E+03  0.28345045501E+03  0.93491530150E+02 0.  0.
          5    1    3    3  502    0  0.66473845918E+02 -0.81287608927E+01  0.30717137079E+02  0.73796096476E+02  0.41800000000E+01 0.  1.
         -5    1    3    3    0  502 -0.31398737855E+02 -0.65713496470E+02  0.10644566707E+03  0.12904377860E+03  0.41800000000E+01 0.  1.
        -11    1    4    4    0    0 -0.19228657976E+01  0.72963535859E+02  0.23199322263E+03  0.24320409191E+03  0.00000000000E+00 0. -1.
         11    1    4    4    0    0 -0.33152242265E+02  0.87872150385E+00  0.22801895171E+02  0.40246363092E+02  0.00000000000E+00 0.  1.
</event>
<event>
 8    1  0.6443238E-009  0.1003272E+03  0.7561462E-02  0.1279609E+00
          2   -1    0    0  501    0  0.00000000000E+00  0.00000000000E+00  0.61576506830E+02  0.61576506830E+02  0.00000000000E+00 0. -1.
         -2   -1    0    0    0  501 -0.00000000000E+00 -0.00000000000E+00 -0.25824191563E+03  0.25824191563E+03  0.00000000000E+00 0.  1.
         25    2    1    2    0    0  0.58260249076E+01  0.63551426455E+02 -0.11371691074E+03  0.18069595282E+03  0.12508703053E+03 0.  0.
         23    2    1    2    0    0 -0.58260249076E+01 -0.63551426455E+02 -0.82948498060E+02  0.13912246964E+03  0.91661779705E+02 0.  0.
          5    1    3    3  502    0  0.43412868850E+02  0.17451897471E+02 -0.11154056873E+03  0.12102899149E+03  0.41800000000E+01 0.  1.
         -5    1    3    3    0  502 -0.37586843942E+02  0.46099528984E+02 -0.21763420090E+01  0.59666961332E+02  0.41800000000E+01 0.  1.
        -11    1    4    4    0    0 -0.36996137481E+02 -0.42957213589E+02 -0.84471563163E+02  0.10173240079E+03  0.00000000000E+00 0.  1.
         11    1    4    4    0    0  0.31170112573E+02 -0.20594212866E+02  0.15230651028E+01  0.37390068851E+02  0.00000000000E+00 0. -1.
</event>
<event>
 8    1  0.6443238E-009  0.1113334E+03  0.7561462E-02  0.1258120E+00
         -2   -1    0    0    0  501 -0.00000000000E+00  0.00000000000E+00  0.37947514892E+02  0.37947514892E+02  0.00000000000E+00 0.  1.
          2   -1    0    0  501    0  0.00000000000E+00 -0.00000000000E+00 -0.34513687593E+03  0.34513687593E+03  0.00000000000E+00 0. -1.
         25    2    1    2    0    0  0.12221890310E+01  0.39083085559E+02 -0.18234364471E+03  0.22455497302E+03  0.12508696902E+03 0.  0.
         23    2    1    2    0    0 -0.12221890310E+01 -0.39083085559E+02 -0.12484571633E+03  0.15852941780E+03  0.89532910712E+02 0.  0.
          5    1    3    3  502    0  0.51584401930E+01 -0.44564425129E+02 -0.84003416210E+02  0.95323889069E+02  0.41800000000E+01 0.  1.
         -5    1    3    3    0  502 -0.39362511620E+01  0.83647510688E+02 -0.98340228496E+02  0.12923108395E+03  0.41800000000E+01 0.  1.
        -11    1    4    4    0    0  0.35268881160E+02 -0.44600495171E+02 -0.52864868720E+02  0.77638859423E+02  0.00000000000E+00 0.  1.
         11    1    4    4    0    0 -0.36491070191E+02  0.55174096114E+01 -0.71980847609E+02  0.80890558380E+02  0.00000000000E+00 0. -1.
</event>
<event>
 8    1  0.6443238E-009  0.1193938E+03  0.7561462E-02  0.1244100E+00
         -2   -1    0    0    0  501 -0.00000000000E+00  0.00000000000E+00  0.59955095497E+02  0.59955095497E+02  0.00000000000E+00 0.  1.
          2   -1    0    0  501    0  0.00000000000E+00 -0.00000000000E+00 -0.30434417492E+03  0.30434417492E+03  0.00000000000E+00 0. -1.
         25    2    1    2    0    0  0.51928186740E+02 -0.29186168444E+02 -0.20546672704E+03  0.24781659747E+03  0.12509245002E+03 0.  0.
         23    2    1    2    0    0 -0.51928186740E+02  0.29186168444E+02 -0.38922352384E+02  0.11648267295E+03  0.92221985321E+02 0.  0.
          5    1    3    3  502    0 -0.33401379541E+02  0.11737427790E+02 -0.99439698732E+02  0.10563685650E+03  0.41800000000E+01 0. -1.
         -5    1    3    3    0  502  0.85329566280E+02 -0.40923596234E+02 -0.10602702831E+03  0.14217974097E+03  0.41800000000E+01 0. -1.
        -11    1    4    4    0    0  0.20705809211E+02  0.29175554095E+02 -0.43477190195E+01  0.36039508217E+02  0.00000000000E+00 0.  1.
         11    1    4    4    0    0 -0.72633995950E+02  0.10614348578E-01 -0.34574633364E+02  0.80443164735E+02  0.00000000000E+00 0. -1.
</event>
<event>
 8    1  0.6443238E-009  0.5067371E+02  0.7561462E-02  0.1441741E+00
         -2   -1    0    0    0  501 -0.00000000000E+00  0.00000000000E+00  0.57729297816E+03  0.57729297816E+03  0.00000000000E+00 0.  1.
          2   -1    0    0  501    0  0.00000000000E+00 -0.00000000000E+00 -0.20775538791E+02  0.20775538791E+02  0.00000000000E+00 0. -1.
         25    2    1    2    0    0  0.11768542941E+02 -0.27325734819E+01  0.24398930517E+03  0.27445302247E+03  0.12509082678E+03 0.  0.
         23    2    1    2    0    0 -0.11768542941E+02  0.27325734819E+01  0.31252813420E+03  0.32361549448E+03  0.83109494299E+02 0.  0.
          5    1    3    3  502    0  0.14926518644E+02 -0.41527721607E+01  0.25848074122E+03  0.25897840152E+03  0.41800000000E+01 0.  1.
         -5    1    3    3    0  502 -0.31579757027E+01  0.14201986788E+01 -0.14491436044E+02  0.15474620947E+02  0.41800000000E+01 0.  1.
        -11    1    4    4    0    0  0.23703262520E+02  0.27727811876E+02  0.19386162214E+03  0.19726379482E+03  0.00000000000E+00 0.  1.
         11    1    4    4    0    0 -0.35471805461E+02 -0.24995238394E+02  0.11866651205E+03  0.12635169966E+03  0.00000000000E+00 0. -1.
</event>
<event>
 8    1  0.6443238E-009  0.9260167E+02  0.7561462E-02  0.1296671E+00
         -1   -1    0    0    0  501 -0.00000000000E+00  0.00000000000E+00  0.44296334509E+02  0.44296334509E+02  0.00000000000E+00 0.  1.
          1   -1    0    0  501    0  0.00000000000E+00 -0.00000000000E+00 -0.39759367160E+03  0.39759367160E+03  0.00000000000E+00 0. -1.
         25    2    1    2    0    0  0.68304655837E+02 -0.10248969365E+02 -0.14165507373E+03  0.20120942618E+03  0.12509398822E+03 0.  0.
         23    2    1    2    0    0 -0.68304655837E+02  0.10248969365E+02 -0.21164226336E+03  0.24068057993E+03  0.91455598686E+02 0.  0.
          5    1    3    3  502    0  0.14968267695E+02 -0.14970784034E+02  0.20882197556E+02  0.30028519563E+02  0.41800000000E+01 0. -1.
         -5    1    3    3    0  502  0.53336388142E+02  0.47218146691E+01 -0.16253727129E+03  0.17118090662E+03  0.41800000000E+01 0. -1.
        -11    1    4    4    0    0  0.15542907910E+01  0.35574759348E+02 -0.10362333175E+03  0.10957086386E+03  0.00000000000E+00 0. -1.
         11    1    4    4    0    0 -0.69858946628E+02 -0.25325789983E+02 -0.10801893161E+03  0.13110971607E+03  0.00000000000E+00 0.  1.
</event>
<event>
 8    1  0.6443238E-009  0.2908273E+03  0.7561462E-02  0.1089918E+00
          4   -1    0    0  501    0  0.00000000000E+00  0.00000000000E+00  0.43964418476E+03  0.43964418476E+03  0.00000000000E+00 0.  1.
         -4   -1    0    0    0  501 -0.00000000000E+00 -0.00000000000E+00 -0.21683208371E+03  0.21683208371E+03  0.00000000000E+00 0. -1.
         25    2    1    2    0    0 -0.28292276944E+03 -0.19906621299E+02  0.57756515784E+02  0.31531774432E+03  0.12509155738E+03 0.  0.
         23    2    1    2    0    0  0.28292276944E+03  0.19906621299E+02  0.16505558527E+03  0.34115852414E+03  0.93296437909E+02 0.  0.
          5    1    3    3  502    0 -0.25220458001E+03 -0.17530231957E+02  0.91999807058E+02  0.26906485484E+03  0.41800000000E+01 0.  1.
         -5    1    3    3    0  502 -0.30718189431E+02 -0.23763893423E+01 -0.34243291275E+02  0.46252889483E+02  0.41800000000E+01 0.  1.
        -11    1    4    4    0    0  0.69107585233E+02  0.44946836827E+02  0.34341652247E+02  0.89305238125E+02  0.00000000000E+00 0.  1.
         11    1    4    4    0    0  0.21381518421E+03 -0.25040215528E+02  0.13071393302E+03  0.25185328602E+03  0.00000000000E+00 0. -1.
</event>
<event>
 8    1  0.6443238E-009  0.1122794E+03  0.7561462E-02  0.1256406E+00
         -2   -1    0    0    0  501 -0.00000000000E+00  0.00000000000E+00  0.30361042637E+02  0.30361042637E+02  0.00000000000E+00 0.  1.
          2   -1    0    0  501    0  0.00000000000E+00 -0.00000000000E+00 -0.48962154507E+03  0.48962154507E+03  0.00000000000E+00 0. -1.
         25    2    1    2    0    0  0.16021502484E+02 -0.46966230869E+02 -0.31946518708E+03  0.34665309283E+03  0.12509134915E+03 0.  0.
         23    2    1    2    0    0 -0.16021502484E+02  0.46966230869E+02 -0.13979531535E+03  0.17332949487E+03  0.89654158931E+02 0.  0.
          5    1    3    3  502    0  0.30095175631E+02  0.30656878354E+02 -0.51038445546E+02  0.66842794005E+02  0.41800000000E+01 0.  1.
         -5    1    3    3    0  502 -0.14073673148E+02 -0.77623109223E+02 -0.26842674153E+03  0.27981029883E+03  0.41800000000E+01 0.  1.
        -11    1    4    4    0    0 -0.11011291467E+02 -0.26532853210E+02 -0.36289988711E+02  0.46283950997E+02  0.00000000000E+00 0.  1.
         11    1    4    4    0    0 -0.50102110170E+01  0.73499084079E+02 -0.10350532664E+03  0.12704554387E+03  0.00000000000E+00 0. -1.
</event>
<event>
 8    1  0.6443238E-009  0.1408160E+03  0.7561462E-02  0.1212235E+00
          1   -1    0    0  501    0  0.00000000000E+00  0.00000000000E+00  0.19818261664E+03  0.19818261664E+03  0.00000000000E+00 0. -1.
         -1   -1    0    0    0  501 -0.00000000000E+00 -0.00000000000E+00 -0.15262666308E+03  0.15262666308E+03  0.00000000000E+00 0.  1.
         25    2    1    2    0    0 -0.91583018523E+02  0.10251604801E+03  0.27370767680E+02  0.18786769981E+03  0.12509246311E+03 0.  0.
         23    2    1    2    0    0  0.91583018523E+02 -0.10251604801E+03  0.18185185887E+02  0.16294157991E+03  0.85570252410E+02 0.  0.
          5    1    3    3  502    0 -0.61222242611E+02  0.90816169142E+02  0.72985602899E+02  0.13168185220E+03  0.41800000000E+01 0.  1.
         -5    1    3    3    0  502 -0.30360775913E+02  0.11699878867E+02 -0.45614835220E+02  0.56185847610E+02  0.41800000000E+01 0.  1.
        -11    1    4    4    0    0  0.11364021874E+02 -0.25948060010E+02 -0.30679938411E+02  0.41757651183E+02  0.00000000000E+00 0.  1.
         11    1    4    4    0    0  0.80218996649E+02 -0.76567987999E+02  0.48865124298E+02  0.12118392873E+03  0.00000000000E+00 0. -1.
</event>
<event>
 8    1  0.6443238E-009  0.1322211E+03  0.7561462E-02  0.1224197E+00
          2   -1    0    0  501    0  0.00000000000E+00  0.00000000000E+00  0.29456988924E+02  0.29456988924E+02  0.00000000000E+00 0. -1.
         -2   -1    0    0    0  501 -0.00000000000E+00 -0.00000000000E+00 -0.62339702606E+03  0.62339702606E+03  0.00000000000E+00 0.  1.
         25    2    1    2    0    0  0.63708464329E+02 -0.59120688832E+02 -0.30296063538E+03  0.33909532990E+03  0.12508585811E+03 0.  0.
         23    2    1    2    0    0 -0.63708464329E+02  0.59120688832E+02 -0.29097940176E+03  0.31375868508E+03  0.78876333209E+02 0.  0.
          5    1    3    3  502    0 -0.27739760048E+02  0.16273609982E+02 -0.84686718296E+02  0.90684272755E+02  0.41800000000E+01 0. -1.
         -5    1    3    3    0  502  0.91448224377E+02 -0.75394298814E+02 -0.21827391708E+03  0.24841105715E+03  0.41800000000E+01 0. -1.
        -11    1    4    4    0    0  0.44131767417E+01  0.43245155887E+02 -0.74446238744E+02  0.86208248444E+02  0.00000000000E+00 0. -1.
         11    1    4    4    0    0 -0.68121641071E+02  0.15875532945E+02 -0.21653316301E+03  0.22755043663E+03  0.00000000000E+00 0.  1.
</event>
<event>
 8    1  0.6443238E-009  0.1106746E+03  0.7561462E-02  0.1259326E+00
          1   -1    0    0  501    0  0.00000000000E+00  0.00000000000E+00  0.40392758459E+03  0.40392758459E+03  0.00000000000E+00 0. -1.
         -1   -1    0    0    0  501 -0.00000000000E+00 -0.00000000000E+00 -0.91778018876E+02  0.91778018876E+02  0.00000000000E+00 0.  1.
         25    2    1    2    0    0  0.53059686647E+02 -0.55841716939E+01 -0.28569538143E+02  0.13895900732E+03  0.12508746494E+03 0.  0.
         23    2    1    2    0    0 -0.53059686647E+02  0.55841716939E+01  0.34071910386E+03  0.35674659615E+03  0.91280407595E+02 0.  0.
          5    1    3    3  502    0  0.79135162029E+02  0.34001787208E+02 -0.30137888615E+02  0.91346921858E+02  0.41800000000E+01 0. -1.
         -5    1    3    3    0  502 -0.26075475383E+02 -0.39585958901E+02  0.15683504718E+01  0.47612085459E+02  0.41800000000E+01 0. -1.
        -11    1    4    4    0    0 -0.52696699382E+02 -0.24028190999E+02  0.30451217359E+03  0.30997090179E+03  0.00000000000E+00 0. -1.
         11    1    4    4    0    0 -0.36298726439E+00  0.29612362693E+02  0.36206930266E+02  0.46775694365E+02  0.00000000000E+00 0.  1.
</event>
<event>
 8    1  0.6443238E-009  0.1546694E+03  0.7561462E-02  0.1194850E+00
          2   -1    0    0  501    0  0.00000000000E+00  0.00000000000E+00  0.19330554542E+03  0.19330554542E+03  0.00000000000E+00 0. -1.
         -2   -1    0    0    0  501 -0.00000000000E+00 -0.00000000000E+00 -0.29960356563E+03  0.29960356563E+03  0.00000000000E+00 0.  1.
         25    2    1    2    0    0 -0.12318765323E+03  0.23864199804E+02 -0.23377045571E+03  0.29332616259E+03  0.12508762431E+03 0.  0.
         23    2    1    2    0    0  0.12318765323E+03 -0.23864199804E+02  0.12747243551E+03  0.19958294846E+03  0.88540575792E+02 0.  0.
          5    1    3    3  502    0  0.59873320041E+01 -0.18920773873E+02 -0.10151746238E+03  0.10352348235E+03  0.41800000000E+01 0.  1.
         -5    1    3    3    0  502 -0.12917498523E+03  0.42784973677E+02 -0.13225299333E+03  0.18980268024E+03  0.41800000000E+01 0.  1.
        -11    1    4    4    0    0  0.12490044731E+03 -0.44214289016E+02  0.10376266757E+03  0.16829057095E+03  0.00000000000E+00 0.  1.
         11    1    4    4    0    0 -0.17127940747E+01  0.20350089212E+02  0.23709767941E+02  0.31292377511E+02  0.00000000000E+00 0. -1.
</event>
<event>
 8    1  0.6443238E-009  0.1222274E+03  0.7561462E-02  0.1239467E+00
         -1   -1    0    0    0  501 -0.00000000000E+00  0.00000000000E+00  0.19195165196E+02  0.19195165196E+02  0.00000000000E+00 0.  1.
          1   -1    0    0  501    0  0.00000000000E+00 -0.00000000000E+00 -0.96274489597E+03  0.96274489597E+03  0.00000000000E+00 0. -1.
         25    2    1    2    0    0 -0.20460464553E+02 -0.63117129254E+02 -0.68230036943E+03  0.69683775762E+03  0.12508662483E+03 0.  0.
         23    2    1    2    0    0  0.20460464553E+02  0.63117129254E+02 -0.26124936135E+03  0.28510230355E+03  0.92896135912E+02 0.  0.
          5    1    3    3  502    0 -0.27516655117E+02 -0.94284416641E+02 -0.60731356448E+03  0.61521862417E+03  0.41800000000E+01 0.  1.
         -5    1    3    3    0  502  0.70561905637E+01  0.31167287387E+02 -0.74986804950E+02  0.81619133448E+02  0.41800000000E+01 0.  1.
        -11    1    4    4    0    0  0.53053575766E+01  0.86169153890E+02 -0.20559651304E+03  0.22298698634E+03  0.00000000000E+00 0.  1.
         11    1    4    4    0    0  0.15155106976E+02 -0.23052024636E+02 -0.55652848309E+02  0.62115317211E+02  0.00000000000E+00 0. -1.
</event>
<event>
 8    1  0.6443238E-009  0.7984618E+02  0.7561462E-02  0.1329489E+00
          2   -1    0    0  501    0  0.00000000000E+00  0.00000000000E+00  0.76289621330E+03  0.76289621330E+03  0.00000000000E+00 0. -1.
         -2   -1    0    0    0  501 -0.00000000000E+00 -0.00000000000E+00 -0.19678867296E+02  0.19678867296E+02  0.00000000000E+00 0.  1.
         25    2    1    2    0    0  0.40520725740E+02 -0.87349235008E+01  0.28824391492E+03  0.31694012312E+03  0.12509300161E+03 0.  0.
         23    2    1    2    0    0 -0.40520725740E+02  0.87349235008E+01  0.45497343109E+03  0.46563495748E+03  0.89982567916E+02 0.  0.
          5    1    3    3  502    0 -0.85978511231E+01 -0.68664096991E+01  0.25965821351E+03  0.25992485620E+03  0.41800000000E+01 0.  1.
         -5    1    3    3    0  502  0.49118576864E+02 -0.18685138018E+01  0.28585701406E+02  0.57015266919E+02  0.41800000000E+01 0.  1.
        -11    1    4    4    0    0 -0.24047654566E+02 -0.40262861608E+02  0.23940991643E+03  0.24396002910E+03  0.00000000000E+00 0. -1.
         11    1    4    4    0    0 -0.16473071175E+02  0.48997785108E+02  0.21556351466E+03  0.22167492838E+03  0.00000000000E+00 0.  1.
</event>
<event>
 8    1  0.6443238E-009  0.1464702E+03  0.7561462E-02  0.1204879E+00
          2   -1    0    0  501    0  0.00000000000E+00  0.00000000000E+00  0.22914971662E+03  0.22914971662E+03  0.00000000000E+00 0. -1.
         -2   -1    0    0    0  501 -0.00000000000E+00 -0.00000000000E+00 -0.11437637541E+03  0.11437637541E+03  0.00000000000E+00 0.  1.
         25    2    1    2    0    0  0.40693610197E+02  0.10883673862E+03  0.29986497814E+02  0.17334473126E+03  0.12509116763E+03 0.  0.
         23    2    1    2    0    0 -0.40693610197E+02 -0.10883673862E+03  0.84786843392E+02  0.17018136077E+03  0.90947683635E+02 0.  0.
          5    1    3    3  502    0  0.30933821037E+02  0.13501783834E+03  0.10403168324E+02  0.13896911983E+03  0.41800000000E+01 0. -1.
         -5    1    3    3    0  502  0.97597891599E+01 -0.26181099726E+02  0.19583329489E+02  0.34375611430E+02  0.41800000000E+01 0. -1.
        -11    1    4    4    0    0 -0.17989958394E+02 -0.10022572587E+03  0.99020863703E+02  0.14203508784E+03  0.00000000000E+00 0. -1.
         11    1    4    4    0    0 -0.22703651802E+02 -0.86110127437E+01 -0.14234020312E+02  0.28146272930E+02  0.00000000000E+00 0.  1.
</event>
<event>
 8    1  0.6443238E-009  0.9672179E+02  0.7561462E-02  0.1287345E+00
         -3   -1    0    0    0  501 -0.00000000000E+00  0.00000000000E+00  0.39386730070E+02  0.39386730070E+02  0.00000000000E+00 0.  1.
          3   -1    0    0  501    0  0.00000000000E+00 -0.00000000000E+00 -0.38126759172E+03  0.38126759172E+03  0.00000000000E+00 0. -1.
         25    2    1    2    0    0 -0.54679358820E+02 -0.61480238341E+01 -0.23003618582E+03  0.26756600108E+03  0.12508911890E+03 0.  0.
         23    2    1    2    0    0  0.54679358820E+02  0.61480238341E+01 -0.11184467583E+03  0.15308832072E+03  0.88877285906E+02 0.  0.
          5    1    3    3  502    0 -0.54564764795E+02  0.25644151716E+02 -0.22751061998E+03  0.23540070237E+03  0.41800000000E+01 0. -1.
         -5    1    3    3    0  502 -0.11459402537E+00 -0.31792175550E+02 -0.25255658452E+01  0.32165298705E+02  0.41800000000E+01 0. -1.
        -11    1    4    4    0    0 -0.22559799876E+02  0.72476966641E+01 -0.11179508133E+02  0.26200287774E+02  0.00000000000E+00 0.  1.
         11    1    4    4    0    0  0.77239158696E+02 -0.10996728300E+01 -0.10066516770E+03  0.12688803294E+03  0.00000000000E+00 0. -1.
</event>
<event>
 8    1  0.6443238E-009  0.1475832E+03  0.7561462E-02  0.1203475E+00
         -2   -1    0    0    0  501 -0.00000000000E+00  0.00000000000E+00  0.16067448987E+03  0.16067448987E+03  0.00000000000E+00 0. -1.
          2   -1    0    0  501    0  0.00000000000E+00 -0.00000000000E+00 -0.16724631640E+03  0.16724631640E+03  0.00000000000E+00 0.  1.
         25    2    1    2    0    0 -0.29944316301E+02  0.10724205848E+03 -0.56380847165E+02  0.17670313106E+03  0.12509066877E+03 0.  0.
         23    2    1    2    0    0  0.29944316301E+02 -0.10724205848E+03  0.49809020629E+02  0.15121767521E+03  0.89377433252E+02 0.  0.
          5    1    3    3  502    0  0.11380313795E+02 -0.18550470645E+02  0.14477165796E+02  0.26470591847E+02  0.41800000000E+01 0. -1.
         -5    1    3    3    0  502 -0.41324630097E+02  0.12579252912E+03 -0.70858012962E+02  0.15023253921E+03  0.41800000000E+01 0. -1.
        -11    1    4    4    0    0  0.36253803587E+02 -0.12050797847E+03  0.52371615896E+02  0.13630589606E+03  0.00000000000E+00 0.  1.
         11    1    4    4    0    0 -0.63094872858E+01  0.13265919989E+02 -0.25625952669E+01  0.14911779152E+02  0.00000000000E+00 0. -1.
</event>
<event>
 8    1  0.6443238E-009  0.1362393E+03  0.7561462E-02  0.1218481E+00
          3   -1    0    0  501    0  0.00000000000E+00  0.00000000000E+00  0.57767514040E+02  0.57767514040E+02  0.00000000000E+00 0. -1.
         -3   -1    0    0    0  501 -0.00000000000E+00 -0.00000000000E+00 -0.51541082839E+03  0.51541082839E+03  0.00000000000E+00 0.  1.
         25    2    1    2    0    0 -0.27215093308E+02 -0.11108501955E+03 -0.12786062528E+03  0.21231712079E+03  0.12509867070E+03 0.  0.
         23    2    1    2    0    0  0.27215093308E+02  0.11108501955E+03 -0.32978268908E+03  0.36086122165E+03  0.91562308849E+02 0.  0.
          5    1    3    3  502    0 -0.47911228585E+02 -0.58986778366E+02 -0.39020594907E+01  0.76207770698E+02  0.41800000000E+01 0. -1.
         -5    1    3    3    0  502  0.20696135277E+02 -0.52098241183E+02 -0.12395856579E+03  0.13610935009E+03  0.41800000000E+01 0. -1.
        -11    1    4    4    0    0  0.34170267743E+02  0.12228683921E+03 -0.32050395336E+03  0.34473825196E+03  0.00000000000E+00 0.  1.
         11    1    4    4    0    0 -0.69551744356E+01 -0.11201819660E+02 -0.92787357127E+01  0.16122969688E+02  0.00000000000E+00 0. -1.
</event>
<event>
 8    1  0.6443238E-009  0.1136907E+03  0.7561462E-02  0.1253884E+00
          2   -1    0    0  501    0  0.00000000000E+00  0.00000000000E+00  0.13402377809E+03  0.13402377809E+03  0.00000000000E+00 0. -1.
         -2   -1    0    0    0  501 -0.00000000000E+00 -0.00000000000E+00 -0.15557378555E+03  0.15557378555E+03  0.00000000000E+00 0.  1.
         25    2    1    2    0    0 -0.64900036737E+02 -0.33828053726E+02  0.49415975897E+02  0.15312380309E+03  0.12509439801E+03 0.  0.
         23    2    1    2    0    0  0.64900036737E+02  0.33828053726E+02 -0.70965983349E+02  0.13647376055E+03  0.90733480798E+02 0.  0.
          5    1    3    3  502    0 -0.66971037792E+02  0.35085996429E+02  0.22498143783E+02  0.78992315588E+02  0.41800000000E+01 0.  1.
         -5    1    3    3    0  502  0.20710010550E+01 -0.68914050155E+02  0.26917832114E+02  0.74131487506E+02  0.41800000000E+01 0.  1.
        -11    1    4    4    0    0  0.38046348925E+02 -0.16640149921E+01  0.13985741164E+02  0.40569626180E+02  0.00000000000E+00 0. -1.
         11    1    4    4    0    0  0.26853687811E+02  0.35492068719E+02 -0.84951724513E+02  0.95904134367E+02  0.00000000000E+00 0.  1.
</event>
<event>
 8    1  0.6443238E-009  0.1278738E+03  0.7561462E-02  0.1230645E+00
          4   -1    0    0  501    0  0.00000000000E+00  0.00000000000E+00  0.45456711339E+02  0.45456711339E+02  0.00000000000E+00 0. -1.
         -4   -1    0    0    0  501 -0.00000000000E+00 -0.00000000000E+00 -0.38561165738E+03  0.38561165738E+03  0.00000000000E+00 0.  1.
         25    2    1    2    0    0 -0.34840799941E+01  0.70382854077E+02 -0.23592645931E+03  0.27617896416E+03  0.12509053155E+03 0.  0.
         23    2    1    2    0    0  0.34840799941E+01 -0.70382854077E+02 -0.10422848673E+03  0.15488940456E+03  0.90339721253E+02 0.  0.
          5    1    3    3  502    0  0.32146107933E+02 -0.24479919968E+02 -0.86775669936E+02  0.95812984661E+02  0.41800000000E+01 0.  1.
         -5    1    3    3    0  502 -0.35630187927E+02  0.94862774044E+02 -0.14915078937E+03  0.18036597950E+03  0.41800000000E+01 0.  1.
        -11    1    4    4    0    0  0.22667952004E+01 -0.92013617566E+02 -0.91387981730E+02  0.12970507848E+03  0.00000000000E+00 0. -1.
         11    1    4    4    0    0  0.12172847936E+01  0.21630763489E+02 -0.12840505003E+02  0.25184326080E+02  0.00000000000E+00 0.  1.
</event>
<event>
 8    1  0.6443238E-009  0.9279895E+02  0.7561462E-02  0.1296212E+00
          1   -1    0    0  501    0  0.00000000000E+00  0.00000000000E+00  0.24344416882E+03  0.24344416882E+03  0.00000000000E+00 0. -1.
         -1   -1    0    0    0  501 -0.00000000000E+00 -0.00000000000E+00 -0.67722989298E+02  0.67722989298E+02  0.00000000000E+00 0.  1.
         25    2    1    2    0    0 -0.41810274206E+02  0.52425286080E+02  0.82536122150E+02  0.16418256247E+03  0.12508873934E+03 0.  0.
         23    2    1    2    0    0  0.41810274206E+02 -0.52425286080E+02  0.93185057370E+02  0.14698459564E+03  0.91785112028E+02 0.  0.
          5    1    3    3  502    0 -0.58638268766E+02  0.36236186307E+02  0.10875304868E+03  0.12882626191E+03  0.41800000000E+01 0.  1.
         -5    1    3    3    0  502  0.16827994560E+02  0.16189099773E+02 -0.26216926530E+02  0.35356300556E+02  0.41800000000E+01 0.  1.
        -11    1    4    4    0    0  0.10150440543E+02 -0.59514677047E+02  0.14816212619E+02  0.62165491903E+02  0.00000000000E+00 0.  1.
         11    1    4    4    0    0  0.31659833663E+02  0.70893909673E+01  0.78368844750E+02  0.84819103741E+02  0.00000000000E+00 0. -1.
</event>
<event>
 8    1  0.6443238E-009  0.8464931E+02  0.7561462E-02  0.1316352E+00
          1   -1    0    0  501    0  0.00000000000E+00  0.00000000000E+00  0.25839129279E+03  0.25839129279E+03  0.00000000000E+00 0. -1.
         -1   -1    0    0    0  501 -0.00000000000E+00 -0.00000000000E+00 -0.51827940927E+02  0.51827940927E+02  0.00000000000E+00 0.  1.
         25    2    1    2    0    0 -0.14751499902E+02 -0.44542165983E+02  0.11856150447E+03  0.17862394190E+03  0.12509224987E+03 0.  0.
         23    2    1    2    0    0  0.14751499902E+02  0.44542165983E+02  0.88001847388E+02  0.13159529181E+03  0.85856766676E+02 0.  0.
          5    1    3    3  502    0  0.44242332466E+02 -0.36464067219E+02  0.10132262556E+03  0.11649360082E+03  0.41800000000E+01 0.  1.
         -5    1    3    3    0  502 -0.58993832368E+02 -0.80780987640E+01  0.17238878910E+02  0.62130341084E+02  0.41800000000E+01 0.  1.
        -11    1    4    4    0    0 -0.59258220696E+01  0.14387565399E+02  0.93354682137E+02  0.94642559571E+02  0.00000000000E+00 0. -1.
         11    1    4    4    0    0  0.20677321972E+02  0.30154600584E+02 -0.53528347491E+01  0.36952732242E+02  0.00000000000E+00 0.  1.
</event>
<event>
 8    1  0.6443238E-009  0.2156519E+03  0.7561462E-02  0.1137167E+00
          1   -1    0    0  501    0  0.00000000000E+00  0.00000000000E+00  0.25464670862E+03  0.25464670862E+03  0.00000000000E+00 0. -1.
         -1   -1    0    0    0  501 -0.00000000000E+00 -0.00000000000E+00 -0.21123436146E+03  0.21123436146E+03  0.00000000000E+00 0.  1.
         25    2    1    2    0    0 -0.17826714495E+03 -0.83941238499E+02  0.79946993877E+02  0.24670853371E+03  0.12509305450E+03 0.  0.
         23    2    1    2    0    0  0.17826714495E+03  0.83941238499E+02 -0.36534646724E+02  0.21917253637E+03  0.88749725637E+02 0.  0.
          5    1    3    3  502    0 -0.16643879812E+03 -0.20099282537E+02  0.65656816086E+02  0.18009482107E+03  0.41800000000E+01 0.  1.
         -5    1    3    3    0  502 -0.11828346829E+02 -0.63841955962E+02  0.14290177792E+02  0.66613712635E+02  0.41800000000E+01 0.  1.
        -11    1    4    4    0    0  0.29359896112E+02  0.24382937973E+02  0.26915437750E+02  0.46700877435E+02  0.00000000000E+00 0. -1.
         11    1    4    4    0    0  0.14890724884E+03  0.59558300525E+02 -0.63450084474E+02  0.17247165894E+03  0.00000000000E+00 0.  1.
</event>
<event>
 8    1  0.6443238E-009  0.1043154E+03  0.7561462E-02  0.1271474E+00
         -3   -1    0    0    0  501 -0.00000000000E+00  0.00000000000E+00  0.75913297997E+03  0.75913297997E+03  0.00000000000E+00 0.  1.
          3   -1    0    0  501    0  0.00000000000E+00 -0.00000000000E+00 -0.25671704808E+02  0.25671704808E+02  0.00000000000E+00 0. -1.
         25    2    1    2    0    0  0.11506759683E+02 -0.41585494501E+02  0.18781758350E+03  0.22974862049E+03  0.12508886870E+03 0.  0.
         23    2    1    2    0    0 -0.11506759683E+02  0.41585494501E+02  0.54564369167E+03  0.55505606429E+03  0.92186969687E+02 0.  0.
          5    1    3    3  502    0  0.17942945861E+02 -0.73312430734E+02  0.56335495552E+02  0.94275247363E+02  0.41800000000E+01 0. -1.
         -5    1    3    3    0  502 -0.64361861778E+01  0.31726936233E+02  0.13148208794E+03  0.13547337312E+03  0.41800000000E+01 0. -1.
        -11    1    4    4    0    0 -0.70039882782E+01  0.70644637733E+02  0.42445714531E+03  0.43035286557E+03  0.00000000000E+00 0. -1.
         11    1    4    4    0    0 -0.45027714053E+01 -0.29059143232E+02  0.12118654635E+03  0.12470319872E+03  0.00000000000E+00 0.  1.
</event>
<event>
 8    1  0.6443238E-009  0.1420295E+03  0.7561462E-02  0.1210624E+00
         -1   -1    0    0    0  501 -0.00000000000E+00  0.00000000000E+00  0.37369399023E+02  0.37369399023E+02  0.00000000000E+00 0.  1.
          1   -1    0    0  501    0  0.00000000000E+00 -0.00000000000E+00 -0.65684064226E+03  0.65684064226E+03  0.00000000000E+00 0. -1.
         25    2    1    2    0    0 -0.60947810491E+02  0.95386566782E+02 -0.35716520413E+03  0.39500073358E+03  0.12508142851E+03 0.  0.
         23    2    1    2    0    0  0.60947810491E+02 -0.95386566782E+02 -0.26230603911E+03  0.29920930771E+03  0.88929854043E+02 0.  0.
          5    1    3    3  502    0 -0.28745232998E+02  0.11655560480E+03 -0.31784499893E+03  0.33978583428E+03  0.41800000000E+01 0. -1.
         -5    1    3    3    0  502 -0.32202577493E+02 -0.21169038017E+02 -0.39320205202E+02  0.55214899301E+02  0.41800000000E+01 0. -1.
        -11    1    4    4    0    0  0.69679955745E+02 -0.71931068147E+02 -0.12764672998E+03  0.16224383647E+03  0.00000000000E+00 0.  1.
         11    1    4    4    0    0 -0.87321452541E+01 -0.23455498636E+02 -0.13465930913E+03  0.13696547124E+03  0.00000000000E+00 0. -1.
</event>
<event>
 8    1  0.6443238E-009  0.1104673E+03  0.7561462E-02  0.1259707E+00
         -2   -1    0    0    0  501 -0.00000000000E+00  0.00000000000E+00  0.10803742889E+02  0.10803742889E+02  0.00000000000E+00 0.  1.
          2   -1    0    0  501    0  0.00000000000E+00 -0.00000000000E+00 -0.14514509575E+04  0.14514509575E+04  0.00000000000E+00 0. -1.
         25    2    1    2    0    0 -0.41074019071E+02 -0.26755363817E+02 -0.10626780009E+04  0.10711379983E+04  0.12509657542E+03 0.  0.
         23    2    1    2    0    0  0.41074019071E+02  0.26755363817E+02 -0.37796921368E+03  0.39111670210E+03  0.87798767843E+02 0.  0.
          5    1    3    3  502    0 -0.41626119082E+02  0.41015210654E+02 -0.31649798751E+03  0.32187486667E+03  0.41800000000E+01 0.  1.
         -5    1    3    3    0  502  0.55210001119E+00 -0.67770574472E+02 -0.74618001342E+03  0.74926313163E+03  0.41800000000E+01 0.  1.
        -11    1    4    4    0    0 -0.17011506878E+01  0.47063841993E+02 -0.12140143275E+03  0.13021600136E+03  0.00000000000E+00 0. -1.
         11    1    4    4    0    0  0.42775169759E+02 -0.20308478175E+02 -0.25656778093E+03  0.26090070074E+03  0.00000000000E+00 0.  1.
</event>
<event>
 8    1  0.6443238E-009  0.1678741E+03  0.7561462E-02  0.1180083E+00
          2   -1    0    0  501    0  0.00000000000E+00  0.00000000000E+00  0.13848710864E+04  0.13848710864E+04  0.00000000000E+00 0. -1.
         -2   -1    0    0    0  501 -0.00000000000E+00 -0.00000000000E+00 -0.42405190090E+02  0.42405190090E+02  0.00000000000E+00 0.  1.
         25    2    1    2    0    0  0.12804553000E+03 -0.85053226382E+02  0.11369743532E+04  0.11541178802E+04  0.12509073639E+03 0.  0.
         23    2    1    2    0    0 -0.12804553000E+03  0.85053226382E+02  0.20549154307E+03  0.27315839632E+03  0.93589668962E+02 0.  0.
          5    1    3    3  502    0  0.29594318944E+02 -0.44850382380E+02  0.11949067035E+03  0.13108345896E+03  0.41800000000E+01 0.  1.
         -5    1    3    3    0  502  0.98451211054E+02 -0.40202844002E+02  0.10174836829E+04  0.10230344212E+04  0.41800000000E+01 0.  1.
        -11    1    4    4    0    0 -0.47105989269E+02  0.81832807255E+02  0.79804982886E+02  0.12363016566E+03  0.00000000000E+00 0. -1.
         11    1    4    4    0    0 -0.80939540728E+02  0.32204191269E+01  0.12568656018E+03  0.14952823066E+03  0.00000000000E+00 0.  1.
</event>
<event>
 8    1  0.6443238E-009  0.1389587E+03  0.7561462E-02  0.1214737E+00
          2   -1    0    0  501    0  0.00000000000E+00  0.00000000000E+00  0.36595762609E+03  0.36595762609E+03  0.00000000000E+00 0. -1.
         -2   -1    0    0    0  501 -0.00000000000E+00 -0.00000000000E+00 -0.70195328815E+02  0.70195328815E+02  0.00000000000E+00 0.  1.
         25    2    1    2    0    0 -0.48877698923E+02 -0.80095614652E+02  0.53886470930E+02  0.16540267473E+03  0.12509978465E+03 0.  0.
         23    2    1    2    0    0  0.48877698923E+02  0.80095614652E+02  0.24187582634E+03  0.27075028018E+03  0.77443281874E+02 0.  0.
          5    1    3    3  502    0 -0.33316603823E+02 -0.11397857967E+03  0.39389894225E+02  0.12518046525E+03  0.41800000000E+01 0.  1.
         -5    1    3    3    0  502 -0.15561095100E+02  0.33882965017E+02  0.14496576705E+02  0.40222209476E+02  0.41800000000E+01 0.  1.
        -11    1    4    4    0    0 -0.15977874963E+02 -0.29076018527E+01  0.28972229980E+02  0.33213502478E+02  0.00000000000E+00 0. -1.
         11    1    4    4    0    0  0.64855573886E+02  0.83003216504E+02  0.21290359636E+03  0.23753677770E+03  0.00000000000E+00 0.  1.
</event>
<event>
 8    1  0.6443238E-009  0.1472072E+03  0.7561462E-02  0.1203947E+00
         -1   -1    0    0    0  501 -0.00000000000E+00  0.00000000000E+00  0.39773326371E+02  0.39773326371E+02  0.00000000000E+00 0.  1.
          1   -1    0    0  501    0  0.00000000000E+00 -0.00000000000E+00 -0.64013102430E+03  0.64013102430E+03  0.00000000000E+00 0. -1.
         25    2    1    2    0    0 -0.10059208824E+03  0.51193104063E+02 -0.29571720939E+03  0.34034604416E+03  0.12508900722E+03 0.  0.
         23    2    1    2    0    0  0.10059208824E+03 -0.51193104063E+02 -0.30464048854E+03  0.33955830651E+03  0.98764943892E+02 0.  0.
          5    1    3    3  502    0  0.15004115961E+02 -0.12361619824E+02 -0.11420215149E+03  0.11592039055E+03  0.41800000000E+01 0. -1.
         -5    1    3    3    0  502 -0.11559620420E+03  0.63554723887E+02 -0.18151505790E+03  0.22442565362E+03  0.41800000000E+01 0. -1.
        -11    1    4    4    0    0  0.60422821447E+02  0.17557797811E+02 -0.83742137292E+02  0.10474702465E+03  0.00000000000E+00 0.  1.
         11    1    4    4    0    0  0.40169266796E+02 -0.68750901873E+02 -0.22089835125E+03  0.23481128185E+03  0.00000000000E+00 0. -1.
</event>
<event>
 8    1  0.6443238E-009  0.9373749E+02  0.7561462E-02  0.1294045E+00
          2   -1    0    0  501    0  0.00000000000E+00  0.00000000000E+00  0.12482201914E+03  0.12482201914E+03  0.00000000000E+00 0. -1.
         -2   -1    0    0    0  501 -0.00000000000E+00 -0.00000000000E+00 -0.14816698948E+03  0.14816698948E+03  0.00000000000E+00 0.  1.
         25    2    1    2    0    0  0.33295273068E+02 -0.25493498698E+02 -0.84585535135E+02  0.15671543402E+03  0.12508605366E+03 0.  0.
         23    2    1    2    0    0 -0.33295273068E+02  0.25493498698E+02  0.61240564798E+02  0.11627357460E+03  0.89502199358E+02 0.  0.
          5    1    3    3  502    0  0.36228441312E+02 -0.59134325670E+02 -0.44064029509E+01  0.69615064600E+02  0.41800000000E+01 0. -1.
         -5    1    3    3    0  502 -0.29331682440E+01  0.33640826972E+02 -0.80179132184E+02  0.87100369420E+02  0.41800000000E+01 0. -1.
        -11    1    4    4    0    0 -0.28779634585E+02 -0.22025207325E+02 -0.28597300342E+01  0.36353200415E+02  0.00000000000E+00 0.  1.
         11    1    4    4    0    0 -0.45156384830E+01  0.47518706022E+02  0.64100294832E+02  0.79920374189E+02  0.00000000000E+00 0. -1.
</event>
<event>
 8    1  0.6443238E-009  0.1193447E+03  0.7561462E-02  0.1244182E+00
         -1   -1    0    0    0  501 -0.00000000000E+00  0.00000000000E+00  0.50386821372E+02  0.50386821372E+02  0.00000000000E+00 0.  1.
          1   -1    0    0  501    0  0.00000000000E+00 -0.00000000000E+00 -0.37570486346E+03  0.37570486346E+03  0.00000000000E+00 0. -1.
         25    2    1    2    0    0 -0.57821863735E+02 -0.62110992713E+02 -0.19565236391E+03  0.24724509604E+03  0.12509654939E+03 0.  0.
         23    2    1    2    0    0  0.57821863735E+02  0.62110992713E+02 -0.12966567818E+03  0.17884658879E+03  0.89284774089E+02 0.  0.
          5    1    3    3  502    0 -0.15918608564E+02 -0.77190102186E+02 -0.46666156901E+02  0.91689239139E+02  0.41800000000E+01 0. -1.
         -5    1    3    3    0  502 -0.41903255172E+02  0.15079109473E+02 -0.14898620701E+03  0.15555585690E+03  0.41800000000E+01 0. -1.
        -11    1    4    4    0    0  0.53918547905E+02  0.11316518218E+01 -0.93227613290E+02  0.10770273127E+03  0.00000000000E+00 0.  1.
         11    1    4    4    0    0  0.39033158304E+01  0.60979340891E+02 -0.36438064885E+02  0.71143857518E+02  0.00000000000E+00 0. -1.
</event>
<event>
 8    1  0.6443238E-009  0.1182599E+03  0.7561462E-02  0.1245996E+00
          2   -1    0    0  501    0  0.00000000000E+00  0.00000000000E+00  0.37164400563E+03  0.37164400563E+03  0.00000000000E+00 0. -1.
         -2   -1    0    0    0  501 -0.00000000000E+00 -0.00000000000E+00 -0.67198216829E+02  0.67198216829E+02  0.00000000000E+00 0.  1.
         25    2    1    2    0    0 -0.61081474364E+02  0.40068555082E+02  0.41189527496E+02  0.15060489142E+03  0.12509524582E+03 0.  0.
         23    2    1    2    0    0  0.61081474364E+02 -0.40068555082E+02  0.26325626131E+03  0.28823733105E+03  0.91871999399E+02 0.  0.
          5    1    3    3  502    0 -0.37749502309E+02  0.74991832634E+02 -0.95535383469E+01  0.84602259907E+02  0.41800000000E+01 0.  1.
         -5    1    3    3    0  502 -0.23331972055E+02 -0.34923277552E+02  0.50743065843E+02  0.66002631509E+02  0.41800000000E+01 0.  1.
        -11    1    4    4    0    0  0.17435046591E+02  0.25857348163E+02  0.36050584959E+02  0.47667892543E+02  0.00000000000E+00 0.  1.
         11    1    4    4    0    0  0.43646427774E+02 -0.65925903245E+02  0.22720567635E+03  0.24056943850E+03  0.00000000000E+00 0. -1.
</event>
<event>
 7    1  0.6443238E-009  0.1227796E+03  0.7561462E-02  0.1238581E+00
         -1   -1    0    0    0  501 -0.00000000000E+00  0.00000000000E+00  0.44804855124E+03  0.44804855124E+03  0.00000000000E+00 0.  1.
          1   -1    0    0  501    0  0.00000000000E+00 -0.00000000000E+00 -0.10586379037E+03  0.10586379037E+03  0.00000000000E+00 0. -1.
         25    2    1    2    0    0  0.93733203122E+01 -0.35330599403E+02 -0.43358540162E+02  0.13734231296E+03  0.12508731964E+03 0.  0.
          5    1    3    3  502    0 -0.24722997005E+02  0.29058735737E+02 -0.51149271788E+02  0.63948081347E+02  0.41800000000E+01 0.  1.
         -5    1    3    3    0  502  0.34096317317E+02 -0.64389335140E+02  0.77907316258E+01  0.73394231610E+02  0.41800000000E+01 0.  1.
        -11    1    1    2    0    0  0.50265535682E+02 -0.18791058721E+02  0.27273306157E+03  0.27796231910E+03  0.00000000000E+00 0.  1.
         11    1    1    2    0    0 -0.59638855994E+02  0.54121658124E+02  0.11281023946E+03  0.13860770956E+03  0.00000000000E+00 0. -1.
</event>
<event>
 8    1  0.6443238E-009  0.1541021E+03  0.7561462E-02  0.1195521E+00
         -2   -1    0    0    0  501 -0.00000000000E+00  0.00000000000E+00  0.61126041960E+02  0.61126041960E+02  0.00000000000E+00 0.  1.
          2   -1    0    0  501    0  0.00000000000E+00 -0.00000000000E+00 -0.56452976627E+03  0.56452976627E+03  0.00000000000E+00 0. -1.
         25    2    1    2    0    0  0.77311063092E+02  0.12893697219E+03 -0.26626346029E+03  0.33037418535E+03  0.12509647791E+03 0.  0.
         23    2    1    2    0    0 -0.77311063092E+02 -0.12893697219E+03 -0.23714026402E+03  0.29528162288E+03  0.91400157083E+02 0.  0.
          5    1    3    3  502    0  0.10048760643E+02  0.18357869739E+02  0.11256316741E+02  0.24128117175E+02  0.41800000000E+01 0. -1.
         -5    1    3    3    0  502  0.67262302449E+02  0.11057910246E+03 -0.27751977703E+03  0.30624606818E+03  0.41800000000E+01 0. -1.
        -11    1    4    4    0    0 -0.80762634731E+02 -0.10149059829E+03 -0.12628552070E+03  0.18102755992E+03  0.00000000000E+00 0. -1.
         11    1    4    4    0    0  0.34515716383E+01 -0.27446373901E+02 -0.11085474331E+03  0.11425406296E+03  0.00000000000E+00 0.  1.
</event>
<event>
 8    1  0.6443238E-009  0.1615294E+03  0.7561462E-02  0.1186981E+00
          2   -1    0    0  501    0  0.00000000000E+00  0.00000000000E+00  0.16189233969E+03  0.16189233969E+03  0.00000000000E+00 0. -1.
         -2   -1    0    0    0  501 -0.00000000000E+00 -0.00000000000E+00 -0.24426706101E+03  0.24426706101E+03  0.00000000000E+00 0.  1.
         25    2    1    2    0    0  0.29776590246E+02 -0.14020927111E+03  0.43714372916E+02  0.19520168979E+03  0.12508984077E+03 0.  0.
         23    2    1    2    0    0 -0.29776590246E+02  0.14020927111E+03 -0.12608909423E+03  0.21095771091E+03  0.89774222789E+02 0.  0.
          5    1    3    3  502    0 -0.16378702501E+02 -0.13072830556E+03  0.60460429585E+02  0.14502099061E+03  0.41800000000E+01 0. -1.
         -5    1    3    3    0  502  0.46155292747E+02 -0.94809655509E+01 -0.16746056669E+02  0.50180699181E+02  0.41800000000E+01 0. -1.
        -11    1    4    4    0    0 -0.23278789208E+02  0.78251853162E+02 -0.12420223543E+03  0.14863192738E+03  0.00000000000E+00 0.  1.
         11    1    4    4    0    0 -0.64978010386E+01  0.61957417952E+02 -0.18868588035E+01  0.62325783539E+02  0.00000000000E+00 0. -1.
</event>
<event>
 8    1  0.6443238E-009  0.1052818E+03  0.7561462E-02  0.1269565E+00
         -1   -1    0    0    0  501 -0.00000000000E+00  0.00000000000E+00  0.10376709395E+03  0.10376709395E+03  0.00000000000E+00 0.  1.
          1   -1    0    0  501    0  0.00000000000E+00 -0.00000000000E+00 -0.16308859644E+03  0.16308859644E+03  0.00000000000E+00 0. -1.
         25    2    1    2    0    0 -0.18630924480E+02  0.55628515875E+02  0.16535039417E+02  0.13914195902E+03  0.12508170971E+03 0.  0.
         23    2    1    2    0    0  0.18630924480E+02 -0.55628515875E+02 -0.75856541909E+02  0.12771373138E+03  0.84350098439E+02 0.  0.
          5    1    3    3  502    0 -0.65143126810E+02  0.62723135996E+02  0.15828370848E+02  0.91901188694E+02  0.41800000000E+01 0. -1.
         -5    1    3    3    0  502  0.46512202329E+02 -0.70946201218E+01  0.70666856860E+00  0.47240770323E+02  0.41800000000E+01 0. -1.
        -11    1    4    4    0    0  0.86987384622E+01  0.58769949964E+01  0.14535923638E+02  0.17930426571E+02  0.00000000000E+00 0.  1.
         11    1    4    4    0    0  0.99321860180E+01 -0.61505510871E+02 -0.90392465547E+02  0.10978330481E+03  0.00000000000E+00 0. -1.
</event>
<event>
 8    1  0.6443238E-009  0.1184255E+03  0.7561462E-02  0.1245717E+00
         -2   -1    0    0    0  501 -0.00000000000E+00  0.00000000000E+00  0.74908088629E+02  0.74908088629E+02  0.00000000000E+00 0.  1.
          2   -1    0    0  501    0  0.00000000000E+00 -0.00000000000E+00 -0.24573414940E+03  0.24573414940E+03  0.00000000000E+00 0. -1.
         25    2    1    2    0    0  0.52115174016E+02 -0.53684967556E+02 -0.58272190342E+02  0.15697275905E+03  0.12508689704E+03 0.  0.
         23    2    1    2    0    0 -0.52115174016E+02  0.53684967556E+02 -0.11255387043E+03  0.16366947898E+03  0.92310657546E+02 0.  0.
          5    1    3    3  502    0 -0.20164816622E+02  0.88643937218E+01  0.22496815413E+02  0.31761240674E+02  0.41800000000E+01 0. -1.
         -5    1    3    3    0  502  0.72279990638E+02 -0.62549361278E+02 -0.80769005755E+02  0.12521151837E+03  0.41800000000E+01 0. -1.
        -11    1    4    4    0    0 -0.61258527921E+02 -0.30030313767E+01 -0.55280870872E+02  0.82568759982E+02  0.00000000000E+00 0. -1.
         11    1    4    4    0    0  0.91433539056E+01  0.56687998933E+02 -0.57272999553E+02  0.81100718995E+02  0.00000000000E+00 0.  1.
</event>
<event>
 8    1  0.6443238E-009  0.2405210E+03  0.7561462E-02  0.1119446E+00
          1   -1    0    0  501    0  0.00000000000E+00  0.00000000000E+00  0.59773732173E+03  0.59773732173E+03  0.00000000000E+00 0. -1.
         -1   -1    0    0    0  501 -0.00000000000E+00 -0.00000000000E+00 -0.15359721909E+03  0.15359721909E+03  0.00000000000E+00 0.  1.
         25    2    1    2    0    0 -0.18407465096E+03 -0.13122973598E+03  0.16542468132E+02  0.25889363186E+03  0.12509012205E+03 0.  0.
         23    2    1    2    0    0  0.18407465096E+03  0.13122973598E+03  0.42759763450E+03  0.49244090896E+03  0.92485626186E+02 0.  0.
          5    1    3    3  502    0 -0.81706378916E+02 -0.10231432487E+03  0.59773429345E+02  0.14399475228E+03  0.41800000000E+01 0.  1.
         -5    1    3    3    0  502 -0.10236827204E+03 -0.28915411110E+02 -0.43230961212E+02  0.11489887958E+03  0.41800000000E+01 0.  1.
        -11    1    4    4    0    0  0.98023297048E+01  0.50639698984E+02  0.10609161119E+03  0.11796565070E+03  0.00000000000E+00 0.  1.
         11    1    4    4    0    0  0.17427232125E+03  0.80590036995E+02  0.32150602331E+03  0.37447525825E+03  0.00000000000E+00 0. -1.
</event>
<event>
 8    1  0.6443238E-009  0.1367102E+03  0.7561462E-02  0.1217825E+00
         -3   -1    0    0    0  501 -0.00000000000E+00  0.00000000000E+00  0.10571984503E+04  0.10571984503E+04  0.00000000000E+00 0.  1.
          3   -1    0    0  501    0  0.00000000000E+00 -0.00000000000E+00 -0.18911214798E+02  0.18911214798E+02  0.00000000000E+00 0. -1.
         25    2    1    2    0    0 -0.39673448547E+02 -0.73388773856E+02  0.67967636877E+03  0.69610669963E+03  0.12507868068E+03 0.  0.
         23    2    1    2    0    0  0.39673448547E+02  0.73388773856E+02  0.35861086673E+03  0.38000296547E+03  0.94024493494E+02 0.  0.
          5    1    3    3  502    0  0.40802505637E+02 -0.28004315317E+01  0.14052974787E+03  0.14641983922E+03  0.41800000000E+01 0. -1.
         -5    1    3    3    0  502 -0.80475954185E+02 -0.70588342324E+02  0.53914662090E+03  0.54968686040E+03  0.41800000000E+01 0. -1.
        -11    1    4    4    0    0 -0.29963111158E+02  0.33433001334E+02  0.14559647462E+03  0.15236104171E+03  0.00000000000E+00 0.  1.
         11    1    4    4    0    0  0.69636559706E+02  0.39955772522E+02  0.21301439212E+03  0.22764192376E+03  0.00000000000E+00 0. -1.
</event>
<event>
 8    1  0.6443238E-009  0.9753818E+02  0.7561462E-02  0.1285560E+00
          3   -1    0    0  501    0  0.00000000000E+00  0.00000000000E+00  0.58300475255E+03  0.58300475255E+03  0.00000000000E+00 0. -1.
         -3   -1    0    0    0  501 -0.00000000000E+00 -0.00000000000E+00 -0.28284706180E+02  0.28284706180E+02  0.00000000000E+00 0.  1.
         25    2    1    2    0    0 -0.65849198779E+02  0.11065159528E+02  0.28199674634E+03  0.31565773588E+03  0.12513627188E+03 0.  0.
         23    2    1    2    0    0  0.65849198779E+02 -0.11065159528E+02  0.27272330003E+03  0.29563172284E+03  0.92528711438E+02 0.  0.
          5    1    3    3  502    0 -0.90623003536E+02 -0.59883377690E+01  0.26647041481E+03  0.28155344667E+03  0.41800000000E+01 0. -1.
         -5    1    3    3    0  502  0.24773804757E+02  0.17053497297E+02  0.15526331532E+02  0.34104289218E+02  0.41800000000E+01 0. -1.
        -11    1    4    4    0    0  0.46863032260E+02 -0.22123503269E+02  0.26824902316E+03  0.27320895230E+03  0.00000000000E+00 0. -1.
         11    1    4    4    0    0  0.18986166519E+02  0.11058343741E+02  0.44742768606E+01  0.22422770542E+02  0.00000000000E+00 0.  1.
</event>
<event>
 8    1  0.6443238E-009  0.1164213E+03  0.7561462E-02  0.1249120E+00
         -1   -1    0    0    0  501 -0.00000000000E+00  0.00000000000E+00  0.38751729284E+03  0.38751729284E+03  0.00000000000E+00 0.  1.
          1   -1    0    0  501    0  0.00000000000E+00 -0.00000000000E+00 -0.44970513867E+02  0.44970513867E+02  0.00000000000E+00 0. -1.
         25    2    1    2    0    0  0.64717815206E+02 -0.44344192607E+01  0.13092442707E+03  0.19234612400E+03  0.12509103138E+03 0.  0.
         23    2    1    2    0    0 -0.64717815206E+02  0.44344192607E+01  0.21162235190E+03  0.24014168271E+03  0.93144770507E+02 0.  0.
          5    1    3    3  502    0  0.87492462122E+01  0.56930261386E+02  0.53941126851E+02  0.79023550520E+02  0.41800000000E+01 0. -1.
         -5    1    3    3    0  502  0.55968568994E+02 -0.61364680647E+02  0.76983300223E+02  0.11332257348E+03  0.41800000000E+01 0. -1.
        -11    1    4    4    0    0  0.12163503594E+02 -0.72622262310E+01 -0.53933173099E+00  0.14176798942E+02  0.00000000000E+00 0. -1.
         11    1    4    4    0    0 -0.76881318800E+02  0.11696645492E+02  0.21216168363E+03  0.22596488377E+03  0.00000000000E+00 0.  1.
</event>
<event>
 8    1  0.6443238E-009  0.1678395E+03  0.7561462E-02  0.1180120E+00
          1   -1    0    0  501    0  0.00000000000E+00  0.00000000000E+00  0.12416390202E+04  0.12416390202E+04  0.00000000000E+00 0. -1.
         -1   -1    0    0    0  501 -0.00000000000E+00 -0.00000000000E+00 -0.28616239063E+02  0.28616239063E+02  0.00000000000E+00 0.  1.
         25    2    1    2    0    0 -0.14866129196E+03 -0.28521961626E+02  0.53854736215E+03  0.57323122473E+03  0.12508834357E+03 0.  0.
         23    2    1    2    0    0  0.14866129196E+03  0.28521961626E+02  0.67447541899E+03  0.69702403454E+03  0.89508278287E+02 0.  0.
          5    1    3    3  502    0 -0.64635248988E+02  0.24076145393E+02  0.87996867336E+02  0.11188519674E+03  0.41800000000E+01 0. -1.
         -5    1    3    3    0  502 -0.84026042974E+02 -0.52598107019E+02  0.45055049482E+03  0.46134602799E+03  0.41800000000E+01 0. -1.
        -11    1    4    4    0    0  0.10654418164E+03 -0.14059538394E+02  0.32103645558E+03  0.33854650947E+03  0.00000000000E+00 0.  1.
         11    1    4    4    0    0  0.42117110322E+02  0.42581500020E+02  0.35343896341E+03  0.35847752507E+03  0.00000000000E+00 0. -1.
</event>
<event>
 8    1  0.6443238E-009  0.1154669E+03  0.7561462E-02  0.1250768E+00
          3   -1    0    0  501    0  0.00000000000E+00  0.00000000000E+00  0.17332481858E+03  0.17332481858E+03  0.00000000000E+00 0. -1.
         -3   -1    0    0    0  501 -0.00000000000E+00 -0.00000000000E+00 -0.15637603192E+03  0.15637603192E+03  0.00000000000E+00 0.  1.
         25    2    1    2    0    0  0.59538159594E+02 -0.23396059203E+02  0.11494570987E+03  0.18150590863E+03  0.12505882861E+03 0.  0.
         23    2    1    2    0    0 -0.59538159594E+02  0.23396059203E+02 -0.97996923215E+02  0.14819494188E+03  0.90918511888E+02 0.  0.
          5    1    3    3  502    0 -0.39282838430E+02 -0.85072360909E+01  0.34956086156E+02  0.53431402942E+02  0.41800000000E+01 0.  1.
         -5    1    3    3    0  502  0.98820998024E+02 -0.14888823112E+02  0.79989623716E+02  0.12807450568E+03  0.41800000000E+01 0.  1.
        -11    1    4    4    0    0 -0.59578530612E+01  0.35145075484E+02  0.27830532886E+00  0.35647577726E+02  0.00000000000E+00 0. -1.
         11    1    4    4    0    0 -0.53580306532E+02 -0.11749016281E+02 -0.98275228544E+02  0.11254736415E+03  0.00000000000E+00 0.  1.
</event>
<event>
 8    1  0.6443238E-009  0.1395946E+03  0.7561462E-02  0.1213875E+00
         -2   -1    0    0    0  501 -0.00000000000E+00  0.00000000000E+00  0.14747931481E+03  0.14747931481E+03  0.00000000000E+00 0. -1.
          2   -1    0    0  501    0  0.00000000000E+00 -0.00000000000E+00 -0.25845123570E+03  0.25845123570E+03  0.00000000000E+00 0.  1.
         25    2    1    2    0    0  0.55706957438E+02 -0.11469770988E+03 -0.16181255816E+03  0.24101740217E+03  0.12508898597E+03 0.  0.
         23    2    1    2    0    0 -0.55706957438E+02  0.11469770988E+03  0.50840637271E+02  0.16491314834E+03  0.91393360475E+02 0.  0.
          5    1    3    3  502    0  0.54246384131E+01 -0.15508123415E+01 -0.10411852040E+03  0.10435502102E+03  0.41800000000E+01 0.  1.
         -5    1    3    3    0  502  0.50282319025E+02 -0.11314689754E+03 -0.57694037761E+02  0.13666238115E+03  0.41800000000E+01 0.  1.
        -11    1    4    4    0    0 -0.74381691055E+02  0.99345184688E+02  0.19967963959E+02  0.12570131769E+03  0.00000000000E+00 0.  1.
         11    1    4    4    0    0  0.18674733617E+02  0.15352525194E+02  0.30872673312E+02  0.39211830650E+02  0.00000000000E+00 0. -1.
</event>
<event>
 8    1  0.6443238E-009  0.1507946E+03  0.7561462E-02  0.1199500E+00
          1   -1    0    0  501    0  0.00000000000E+00  0.00000000000E+00  0.84718779799E+03  0.84718779799E+03  0.00000000000E+00 0. -1.
         -1   -1    0    0    0  501 -0.00000000000E+00 -0.00000000000E+00 -0.32096243749E+02  0.32096243749E+02  0.00000000000E+00 0.  1.
         25    2    1    2    0    0  0.11434762097E+03 -0.25480173823E+02  0.32917287970E+03  0.37111511663E+03  0.12508807850E+03 0.  0.
         23    2    1    2    0    0 -0.11434762097E+03  0.25480173823E+02  0.48591867454E+03  0.50816892511E+03  0.91619214700E+02 0.  0.
          5    1    3    3  502    0  0.70735738614E+02 -0.63913387760E+02  0.11645531278E+03  0.15055822172E+03  0.41800000000E+01 0.  1.
         -5    1    3    3    0  502  0.43611882351E+02  0.38433213936E+02  0.21271756693E+03  0.22055689492E+03  0.41800000000E+01 0.  1.
        -11    1    4    4    0    0  0.14614014068E+02  0.10627941134E+02  0.79231917742E+02  0.81266348072E+02  0.00000000000E+00 0. -1.
         11    1    4    4    0    0 -0.12896163503E+03  0.14852232689E+02  0.40668675680E+03  0.42690257704E+03  0.00000000000E+00 0.  1.
</event>
<event>
 8    1  0.6443238E-009  0.2549665E+03  0.7561462E-02  0.1110206E+00
         -1   -1    0    0    0  501 -0.00000000000E+00  0.00000000000E+00  0.43294277415E+02  0.43294277415E+02  0.00000000000E+00 0.  1.
          1   -1    0    0  501    0  0.00000000000E+00 -0.00000000000E+00 -0.17080221017E+04  0.17080221017E+04  0.00000000000E+00 0. -1.
         25    2    1    2    0    0  0.24382027367E+03  0.42027957880E+02 -0.75992182742E+03  0.80891550521E+03  0.12509370759E+03 0.  0.
         23    2    1    2    0    0 -0.24382027367E+03 -0.42027957880E+02 -0.90480599683E+03  0.94240087387E+03  0.90723977400E+02 0.  0.
          5    1    3    3  502    0  0.58372983300E+02  0.17648961858E+02 -0.38590104190E+03  0.39071214158E+03  0.41800000000E+01 0.  1.
         -5    1    3    3    0  502  0.18544729037E+03  0.24378996022E+02 -0.37402078552E+03  0.41820336363E+03  0.41800000000E+01 0.  1.
        -11    1    4    4    0    0 -0.14210145556E+03  0.18580539214E+02 -0.54971254601E+03  0.56808621119E+03  0.00000000000E+00 0.  1.
         11    1    4    4    0    0 -0.10171881812E+03 -0.60608497094E+02 -0.35509345082E+03  0.37431466268E+03  0.00000000000E+00 0. -1.
</event>
<event>
 8    1  0.6443238E-009  0.2035916E+03  0.7561462E-02  0.1146744E+00
         -1   -1    0    0    0  501 -0.00000000000E+00  0.00000000000E+00  0.65502848934E+02  0.65502848934E+02  0.00000000000E+00 0.  1.
          1   -1    0    0  501    0  0.00000000000E+00 -0.00000000000E+00 -0.72481383389E+03  0.72481383389E+03  0.00000000000E+00 0. -1.
         25    2    1    2    0    0 -0.41846750487E+02 -0.17992072212E+03 -0.27693693368E+03  0.35562027399E+03  0.12509635192E+03 0.  0.
         23    2    1    2    0    0  0.41846750487E+02  0.17992072212E+03 -0.38237405128E+03  0.43469640883E+03  0.92889374989E+02 0.  0.
          5    1    3    3  502    0  0.28180957662E+02 -0.13756891732E+03 -0.16148209128E+03  0.21404044382E+03  0.41800000000E+01 0.  1.
         -5    1    3    3    0  502 -0.70027708149E+02 -0.42351804805E+02 -0.11545484240E+03  0.14157983017E+03  0.41800000000E+01 0.  1.
        -11    1    4    4    0    0  0.57066195716E+01  0.20128919186E+02 -0.25877242510E+01  0.21081632084E+02  0.00000000000E+00 0.  1.
         11    1    4    4    0    0  0.36140130916E+02  0.15979180293E+03 -0.37978632703E+03  0.41361477675E+03  0.00000000000E+00 0. -1.
</event>
<event>
 8    1  0.6443238E-009  0.1757567E+03  0.7561462E-02  0.1171974E+00
          1   -1    0    0  501    0  0.00000000000E+00  0.00000000000E+00  0.25883008228E+03  0.25883008228E+03  0.00000000000E+00 0. -1.
         -1   -1    0    0    0  501 -0.00000000000E+00 -0.00000000000E+00 -0.16090476522E+03  0.16090476522E+03  0.00000000000E+00 0.  1.
         25    2    1    2    0    0  0.67395019639E+02  0.14726085611E+03 -0.10267167120E+02  0.20489125778E+03  0.12508862610E+03 0.  0.
         23    2    1    2    0    0 -0.67395019639E+02 -0.14726085611E+03  0.10819248418E+03  0.21484358972E+03  0.90687959497E+02 0.  0.
          5    1    3    3  502    0  0.71154277015E+02  0.89517790392E+02 -0.59344416498E+02  0.12890150544E+03  0.41800000000E+01 0. -1.
         -5    1    3    3    0  502 -0.37592573764E+01  0.57743065714E+02  0.49077249378E+02  0.75989752339E+02  0.41800000000E+01 0. -1.
        -11    1    4    4    0    0 -0.57651912867E+02 -0.37275320309E+02  0.14806120857E+02  0.70231145343E+02  0.00000000000E+00 0. -1.
         11    1    4    4    0    0 -0.97431067720E+01 -0.10998553580E+03  0.93386363324E+02  0.14461244438E+03  0.00000000000E+00 0.  1.
</event>
<event>
 8    1  0.6443238E-009  0.1381339E+03  0.7561462E-02  0.1215862E+00
          2   -1    0    0  501    0  0.00000000000E+00  0.00000000000E+00  0.69390238122E+03  0.69390238122E+03  0.00000000000E+00 0. -1.
         -2   -1    0    0    0  501 -0.00000000000E+00 -0.00000000000E+00 -0.29700104063E+02  0.29700104063E+02  0.00000000000E+00 0.  1.
         25    2    1    2    0    0 -0.77016221950E+02 -0.40535543718E+02  0.27754677112E+03  0.31663095731E+03  0.12509326208E+03 0.  0.
         23    2    1    2    0    0  0.77016221950E+02  0.40535543718E+02  0.38665550603E+03  0.40697152797E+03  0.92459263929E+02 0.  0.
          5    1    3    3  502    0 -0.75673925794E+02  0.29465273768E+02  0.16637013259E+03  0.18517893731E+03  0.41800000000E+01 0.  1.
         -5    1    3    3    0  502 -0.13422961558E+01 -0.70000817486E+02  0.11117663853E+03  0.13145202000E+03  0.41800000000E+01 0.  1.
        -11    1    4    4    0    0  0.80233234046E+02  0.63067590072E+02  0.28278061938E+03  0.30063228612E+03  0.00000000000E+00 0.  1.
         11    1    4    4    0    0 -0.32170120967E+01 -0.22532046354E+02  0.10387488665E+03  0.10633924185E+03  0.00000000000E+00 0. -1.
</event>
<event>
 8    1  0.6443238E-009  0.1141837E+03  0.7561462E-02  0.1253013E+00
         -2   -1    0    0    0  501 -0.00000000000E+00  0.00000000000E+00  0.12138508522E+03  0.12138508522E+03  0.00000000000E+00 0. -1.
          2   -1    0    0  501    0  0.00000000000E+00 -0.00000000000E+00 -0.14073138438E+03  0.14073138438E+03  0.00000000000E+00 0.  1.
         25    2    1    2    0    0  0.37609656974E+02 -0.73574572128E+01  0.43958928783E+02  0.13801747660E+03  0.12509123851E+03 0.  0.
         23    2    1    2    0    0 -0.37609656974E+02  0.73574572128E+01 -0.63305227942E+02  0.12409899300E+03  0.99621231196E+02 0.  0.
          5    1    3    3  502    0  0.57533149963E+02  0.40083797271E+02  0.48506350176E-01  0.70244209023E+02  0.41800000000E+01 0. -1.
         -5    1    3    3    0  502 -0.19923492989E+02 -0.47441254484E+02  0.43910422433E+02  0.67773267577E+02  0.41800000000E+01 0. -1.
        -11    1    4    4    0    0  0.85317865729E+01  0.45709866112E+02 -0.31777022698E+02  0.56320177677E+02  0.00000000000E+00 0. -1.
         11    1    4    4    0    0 -0.46141443547E+02 -0.38352408899E+02 -0.31528205245E+02  0.67778815325E+02  0.00000000000E+00 0.  1.
</event>
<event>
 7    1  0.6443238E-009  0.9110979E+02  0.7561462E-02  0.1300186E+00
         -2   -1    0    0    0  501 -0.00000000000E+00  0.00000000000E+00  0.20562666009E+03  0.20562666009E+03  0.00000000000E+00 0.  1.
          2   -1    0    0  501    0  0.00000000000E+00 -0.00000000000E+00 -0.65116291250E+02  0.65116291250E+02  0.00000000000E+00 0. -1.
         23    2    1    2    0    0  0.28280065016E+02 -0.21652472360E+02  0.35376999634E+02  0.10355512354E+03  0.90573394939E+02 0.  0.
          5    1    1    2  502    0 -0.33914419381E+02  0.47291432529E+02  0.12232812902E+03  0.13552974206E+03  0.41800000000E+01 0.  1.
         -5    1    1    2    0  502  0.56343543644E+01 -0.25638960169E+02 -0.17194759818E+02  0.31658085742E+02  0.41800000000E+01 0.  1.
        -11    1    3    3    0    0 -0.25369436294E+02  0.17548853932E+02  0.12452074300E+02  0.33265969497E+02  0.00000000000E+00 0.  1.
         11    1    3    3    0    0  0.53649501310E+02 -0.39201326292E+02  0.22924925334E+02  0.70289154038E+02  0.00000000000E+00 0. -1.
</event>
<event>
 8    1  0.6443238E-009  0.3253519E+03  0.7561462E-02  0.1073212E+00
          2   -1    0    0  501    0  0.00000000000E+00  0.00000000000E+00  0.12098747378E+04  0.12098747378E+04  0.00000000000E+00 0. -1.
         -2   -1    0    0    0  501 -0.00000000000E+00 -0.00000000000E+00 -0.12279857675E+03  0.12279857675E+03  0.00000000000E+00 0.  1.
         25    2    1    2    0    0  0.30257784326E+03  0.67568003370E+02  0.89836045288E+03  0.95854971143E+03  0.12508900704E+03 0.  0.
         23    2    1    2    0    0 -0.30257784326E+03 -0.67568003370E+02  0.18871570819E+03  0.37412360312E+03  0.90752771777E+02 0.  0.
          5    1    3    3  502    0  0.30015291410E+03  0.36499660463E+02  0.79767351002E+03  0.85306769840E+03  0.41800000000E+01 0.  1.
         -5    1    3    3    0  502  0.24249291591E+01  0.31068342907E+02  0.10068694286E+03  0.10548201304E+03  0.41800000000E+01 0.  1.
        -11    1    4    4    0    0 -0.79911851924E+02  0.11175959710E+02  0.81703749423E+02  0.11483165427E+03  0.00000000000E+00 0.  1.
         11    1    4    4    0    0 -0.22266599134E+03 -0.78743963080E+02  0.10701195876E+03  0.25929194885E+03  0.00000000000E+00 0. -1.
</event>
<event>
 8    1  0.6443238E-009  0.1381719E+03  0.7561462E-02  0.1215810E+00
          2   -1    0    0  501    0  0.00000000000E+00  0.00000000000E+00  0.36763237438E+03  0.36763237438E+03  0.00000000000E+00 0.  1.
         -2   -1    0    0    0  501 -0.00000000000E+00 -0.00000000000E+00 -0.56085227432E+02  0.56085227432E+02  0.00000000000E+00 0. -1.
         25    2    1    2    0    0 -0.48601662705E+02  0.80558787966E+02  0.19842833480E+03  0.25273110083E+03  0.12508942936E+03 0.  0.
         23    2    1    2    0    0  0.48601662705E+02 -0.80558787966E+02  0.11311881214E+03  0.17098650098E+03  0.87113018091E+02 0.  0.
          5    1    3    3  502    0  0.36131202902E+02  0.85303874537E+01  0.19827251096E+02  0.42294486866E+02  0.41800000000E+01 0. -1.
         -5    1    3    3    0  502 -0.84732865607E+02  0.72028400512E+02  0.17860108371E+03  0.21043661396E+03  0.41800000000E+01 0. -1.
        -11    1    4    4    0    0  0.40516141724E+02  0.58264919157E+01  0.29209470434E+02  0.50286170179E+02  0.00000000000E+00 0. -1.
         11    1    4    4    0    0  0.80855209814E+01 -0.86385279882E+02  0.83909341710E+02  0.12070033080E+03  0.00000000000E+00 0.  1.
</event>
<event>
 8    1  0.6443238E-009  0.2219926E+03  0.7561462E-02  0.1132406E+00
          1   -1    0    0  501    0  0.00000000000E+00  0.00000000000E+00  0.18006106116E+04  0.18006106116E+04  0.00000000000E+00 0. -1.
         -1   -1    0    0    0  501 -0.00000000000E+00 -0.00000000000E+00 -0.33091124630E+02  0.33091124630E+02  0.00000000000E+00 0.  1.
         25    2    1    2    0    0 -0.16743837241E+03  0.12547748296E+03  0.11428360597E+04  0.11685475800E+04  0.12509588318E+03 0.  0.
         23    2    1    2    0    0  0.16743837241E+03 -0.12547748296E+03  0.62468342719E+03  0.66515415619E+03  0.91763064524E+02 0.  0.
          5    1    3    3  502    0 -0.99497618064E+02  0.10738082303E+03  0.98342186120E+03  0.99426678846E+03  0.41800000000E+01 0.  1.
         -5    1    3    3    0  502 -0.67940754345E+02  0.18096659930E+02  0.15941419855E+03  0.17428079154E+03  0.41800000000E+01 0.  1.
        -11    1    4    4    0    0  0.11781650645E+03 -0.13213702106E+03  0.51515117150E+03  0.54472162709E+03  0.00000000000E+00 0.  1.
         11    1    4    4    0    0  0.49621865961E+02  0.66595380945E+01  0.10953225569E+03  0.12043252910E+03  0.00000000000E+00 0. -1.
</event>
<event>
 8    1  0.6443238E-009  0.7142633E+02  0.7561462E-02  0.1355309E+00
          4   -1    0    0  501    0  0.00000000000E+00  0.00000000000E+00  0.56648099643E+02  0.56648099643E+02  0.00000000000E+00 0.  1.
         -4   -1    0    0    0  501 -0.00000000000E+00 -0.00000000000E+00 -0.19029299321E+03  0.19029299321E+03  0.00000000000E+00 0. -1.
         25    2    1    2    0    0  0.16464422697E+02  0.96189397449E+01 -0.70936705487E+02  0.14506269465E+03  0.12509023934E+03 0.  0.
         23    2    1    2    0    0 -0.16464422697E+02 -0.96189397449E+01 -0.62708188075E+02  0.10187839819E+03  0.77995448268E+02 0.  0.
          5    1    3    3  502    0 -0.41713443811E+02  0.26668585580E+01  0.11764395218E+02  0.43623352966E+02  0.41800000000E+01 0. -1.
         -5    1    3    3    0  502  0.58177866508E+02  0.69520811869E+01 -0.82701100705E+02  0.10143934169E+03  0.41800000000E+01 0. -1.
        -11    1    4    4    0    0 -0.85222568501E+01  0.14440901634E+02 -0.72725243272E+02  0.74633300281E+02  0.00000000000E+00 0. -1.
         11    1    4    4    0    0 -0.79421658472E+01 -0.24059841379E+02  0.10017055197E+02  0.27245097914E+02  0.00000000000E+00 0.  1.
</event>
<event>
 8    1  0.6443238E-009  0.7820796E+02  0.7561462E-02  0.1334215E+00
          1   -1    0    0  501    0  0.00000000000E+00  0.00000000000E+00  0.20636629528E+03  0.20636629528E+03  0.00000000000E+00 0. -1.
         -1   -1    0    0    0  501 -0.00000000000E+00 -0.00000000000E+00 -0.67617024078E+02  0.67617024078E+02  0.00000000000E+00 0.  1.
         25    2    1    2    0    0 -0.23962663599E+02  0.33478107840E+02  0.76860384824E+02  0.15248036054E+03  0.12509096148E+03 0.  0.
         23    2    1    2    0    0  0.23962663599E+02 -0.33478107840E+02  0.61888886374E+02  0.12150295881E+03  0.96113171794E+02 0.  0.
          5    1    3    3  502    0 -0.42022191402E+02  0.17257774069E+02  0.10535941083E+03  0.11481190351E+03  0.41800000000E+01 0. -1.
         -5    1    3    3    0  502  0.18059527804E+02  0.16220333771E+02 -0.28499026006E+02  0.37668457036E+02  0.41800000000E+01 0. -1.
        -11    1    4    4    0    0  0.41419619749E+02  0.70695219943E+01  0.64833571484E+02  0.77259012632E+02  0.00000000000E+00 0. -1.
         11    1    4    4    0    0 -0.17456956151E+02 -0.40547629834E+02 -0.29446851106E+01  0.44243946181E+02  0.00000000000E+00 0.  1.
</event>
<event>
 8    1  0.6443238E-009  0.1061794E+03  0.7561462E-02  0.1267813E+00
         -1   -1    0    0    0  501 -0.00000000000E+00  0.00000000000E+00  0.16631867070E+03  0.16631867070E+03  0.00000000000E+00 0.  1.
          1   -1    0    0  501    0  0.00000000000E+00 -0.00000000000E+00 -0.12658788921E+03  0.12658788921E+03  0.00000000000E+00 0. -1.
         25    2    1    2    0    0 -0.95537556537E+02  0.35466229425E-01  0.36637135693E+02  0.16160817943E+03  0.12508995954E+03 0.  0.
         23    2    1    2    0    0  0.95537556537E+02 -0.35466229425E-01  0.30936458047E+01  0.13129838048E+03  0.90012599709E+02 0.  0.
          5    1    3    3  502    0 -0.92274315136E+02  0.18538454294E+02 -0.24639455714E+02  0.97379662657E+02  0.41800000000E+01 0. -1.
         -5    1    3    3    0  502 -0.32632414012E+01 -0.18502988065E+02  0.61276591407E+02  0.64228516768E+02  0.41800000000E+01 0. -1.
        -11    1    4    4    0    0  0.64086857088E+02  0.12045211487E+02 -0.40074783379E+02  0.76538883151E+02  0.00000000000E+00 0. -1.
         11    1    4    4    0    0  0.31450699449E+02 -0.12080677716E+02  0.43168429184E+02  0.54759497332E+02  0.00000000000E+00 0.  1.
</event>
<event>
 8    1  0.6443238E-009  0.1187045E+03  0.7561462E-02  0.1245250E+00
          2   -1    0    0  501    0  0.00000000000E+00  0.00000000000E+00  0.57768302054E+03  0.57768302054E+03  0.00000000000E+00 0. -1.
         -2   -1    0    0    0  501 -0.00000000000E+00 -0.00000000000E+00 -0.60459681479E+02  0.60459681479E+02  0.00000000000E+00 0.  1.
         25    2    1    2    0    0 -0.69641715167E+02  0.11508492961E+01  0.50226985109E+03  0.52227693723E+03  0.12508758095E+03 0.  0.
         23    2    1    2    0    0  0.69641715167E+02 -0.11508492961E+01  0.14953487972E+02  0.11586576478E+03  0.91378201455E+02 0.  0.
          5    1    3    3  502    0  0.28003043099E+02 -0.80166360460E+01  0.39760384553E+02  0.49465113525E+02  0.41800000000E+01 0.  1.
         -5    1    3    3    0  502 -0.97644758266E+02  0.91674853421E+01  0.46250946653E+03  0.47281182371E+03  0.41800000000E+01 0.  1.
        -11    1    4    4    0    0  0.79892056108E+02 -0.25121885307E+02  0.25794236086E+02  0.87631001168E+02  0.00000000000E+00 0.  1.
         11    1    4    4    0    0 -0.10250340941E+02  0.23971036010E+02 -0.10840748114E+02  0.28234763617E+02  0.00000000000E+00 0. -1.
</event>
<event>
 8    1  0.6443238E-009  0.1048075E+03  0.7561462E-02  0.1270499E+00
         -1   -1    0    0    0  501 -0.00000000000E+00  0.00000000000E+00  0.78564021660E+02  0.78564021660E+02  0.00000000000E+00 0.  1.
          1   -1    0    0  501    0  0.00000000000E+00 -0.00000000000E+00 -0.24914939229E+03  0.24914939229E+03  0.00000000000E+00 0. -1.
         25    2    1    2    0    0 -0.61332390199E+02 -0.61307112045E+02 -0.82031714184E+02  0.17290771862E+03  0.12509057899E+03 0.  0.
         23    2    1    2    0    0  0.61332390199E+02  0.61307112045E+02 -0.88553656444E+02  0.15480569533E+03  0.92751437519E+02 0.  0.
          5    1    3    3  502    0 -0.26720492508E+02 -0.40123998992E+02 -0.11218729011E+03  0.12217765948E+03  0.41800000000E+01 0. -1.
         -5    1    3    3    0  502 -0.34611897692E+02 -0.21183113053E+02  0.30155575925E+02  0.50730059135E+02  0.41800000000E+01 0. -1.
        -11    1    4    4    0    0 -0.12652663451E+02  0.42149392081E+02 -0.98403066202E+01  0.45094265485E+02  0.00000000000E+00 0. -1.
         11    1    4    4    0    0  0.73985053651E+02  0.19157719963E+02 -0.78713349824E+02  0.10971142984E+03  0.00000000000E+00 0.  1.
</event>
<event>
 8    1  0.6443238E-009  0.1021216E+03  0.7561462E-02  0.1275897E+00
          1   -1    0    0  501    0  0.00000000000E+00  0.00000000000E+00  0.95001041890E+02  0.95001041890E+02  0.00000000000E+00 0. -1.
         -1   -1    0    0    0  501 -0.00000000000E+00 -0.00000000000E+00 -0.24746901582E+03  0.24746901582E+03  0.00000000000E+00 0.  1.
         25    2    1    2    0    0  0.29239234031E+02 -0.19163716725E+01 -0.19909422378E+03  0.23694972027E+03  0.12509218483E+03 0.  0.
         23    2    1    2    0    0 -0.29239234031E+02  0.19163716725E+01  0.46626249853E+02  0.10552033744E+03  0.90010716866E+02 0.  0.
          5    1    3    3  502    0  0.22475517669E+02 -0.59209149170E+02 -0.64684293482E+02  0.90622306654E+02  0.41800000000E+01 0.  1.
         -5    1    3    3    0  502  0.67637163620E+01  0.57292777498E+02 -0.13440993030E+03  0.14632741362E+03  0.41800000000E+01 0.  1.
        -11    1    4    4    0    0 -0.56068598826E+02  0.63866155397E+00  0.54208928133E+01  0.56333664374E+02  0.00000000000E+00 0.  1.
         11    1    4    4    0    0  0.26829364795E+02  0.12777101185E+01  0.41205357040E+02  0.49186673065E+02  0.00000000000E+00 0. -1.
</event>
<event>
 8    1  0.6443238E-009  0.1720535E+03  0.7561462E-02  0.1175723E+00
          1   -1    0    0  501    0  0.00000000000E+00  0.00000000000E+00  0.55196123894E+03  0.55196123894E+03  0.00000000000E+00 0. -1.
         -1   -1    0    0    0  501 -0.00000000000E+00 -0.00000000000E+00 -0.56675779003E+02  0.56675779003E+02  0.00000000000E+00 0.  1.
         25    2    1    2    0    0 -0.70054099137E+02  0.11924823683E+03  0.23915009613E+03  0.30326759555E+03  0.12510294656E+03 0.  0.
         23    2    1    2    0    0  0.70054099137E+02 -0.11924823683E+03  0.25613536381E+03  0.30536942240E+03  0.92289981852E+02 0.  0.
          5    1    3    3  502    0 -0.24388621693E+02  0.13535201997E+03  0.18401086449E+03  0.22976606545E+03  0.41800000000E+01 0.  1.
         -5    1    3    3    0  502 -0.45665477444E+02 -0.16103783146E+02  0.55139231637E+02  0.73501530102E+02  0.41800000000E+01 0.  1.
        -11    1    4    4    0    0  0.69135424716E+02 -0.42495045740E+02  0.83496596402E+02  0.11643546485E+03  0.00000000000E+00 0.  1.
         11    1    4    4    0    0  0.91867442034E+00 -0.76753191086E+02  0.17263876740E+03  0.18893395755E+03  0.00000000000E+00 0. -1.
</event>
<event>
 8    1  0.6443238E-009  0.2292291E+03  0.7561462E-02  0.1127184E+00
         -1   -1    0    0    0  501 -0.00000000000E+00  0.00000000000E+00  0.45960802213E+02  0.45960802213E+02  0.00000000000E+00 0.  1.
          1   -1    0    0  501    0  0.00000000000E+00 -0.00000000000E+00 -0.13562198467E+04  0.13562198467E+04  0.00000000000E+00 0. -1.
         25    2    1    2    0    0 -0.57598637026E+02 -0.21633273111E+03 -0.63127570770E+03  0.68137618083E+03  0.12508807747E+03 0.  0.
         23    2    1    2    0    0  0.57598637026E+02  0.21633273111E+03 -0.67898333676E+03  0.72080446806E+03  0.91778298309E+02 0.  0.
          5    1    3    3  502    0 -0.14424339162E+02 -0.83757846440E+02 -0.96277808882E+02  0.12849251840E+03  0.41800000000E+01 0.  1.
         -5    1    3    3    0  502 -0.43174297863E+02 -0.13257488467E+03 -0.53499789882E+03  0.55288366243E+03  0.41800000000E+01 0.  1.
        -11    1    4    4    0    0  0.69366214203E+02  0.13584235514E+03 -0.52429650501E+03  0.54603263848E+03  0.00000000000E+00 0.  1.
         11    1    4    4    0    0 -0.11767577178E+02  0.80490375975E+02 -0.15468683175E+03  0.17477182958E+03  0.00000000000E+00 0. -1.
</event>
<event>
 8    1  0.6443238E-009  0.1245046E+03  0.7561462E-02  0.1235846E+00
         -4   -1    0    0    0  501 -0.00000000000E+00  0.00000000000E+00  0.13297058169E+03  0.13297058169E+03  0.00000000000E+00 0.  1.
          4   -1    0    0  501    0  0.00000000000E+00 -0.00000000000E+00 -0.15125668104E+03  0.15125668104E+03  0.00000000000E+00 0. -1.
         25    2    1    2    0    0 -0.25197701620E+01  0.94556628986E+02  0.51106360399E+01  0.15690658882E+03  0.12508498586E+03 0.  0.
         23    2    1    2    0    0  0.25197701620E+01 -0.94556628986E+02 -0.23396735391E+02  0.12732067390E+03  0.81950237643E+02 0.  0.
          5    1    3    3  502    0 -0.19391552367E+02  0.11797180689E+03  0.24201832990E+02  0.12205154913E+03  0.41800000000E+01 0. -1.
         -5    1    3    3    0  502  0.16871782205E+02 -0.23415177904E+02 -0.19091196951E+02  0.34855039694E+02  0.41800000000E+01 0. -1.
        -11    1    4    4    0    0 -0.15265448953E+02 -0.38797255871E+02  0.27345136582E+02  0.49859978836E+02  0.00000000000E+00 0.  1.
         11    1    4    4    0    0  0.17785219115E+02 -0.55759373115E+02 -0.50741871973E+02  0.77460695068E+02  0.00000000000E+00 0. -1.
</event>
<event>
 8    1  0.6443238E-009  0.8652332E+02  0.7561462E-02  0.1311496E+00
          2   -1    0    0  501    0  0.00000000000E+00  0.00000000000E+00  0.27541820112E+03  0.27541820112E+03  0.00000000000E+00 0. -1.
         -2   -1    0    0    0  501 -0.00000000000E+00 -0.00000000000E+00 -0.52562537867E+02  0.52562537867E+02  0.00000000000E+00 0.  1.
         25    2    1    2    0    0  0.53411573854E+02  0.49395139181E+01  0.14003539751E+03  0.19528193333E+03  0.12509167003E+03 0.  0.
         23    2    1    2    0    0 -0.53411573854E+02 -0.49395139181E+01  0.82820265752E+02  0.13269880566E+03  0.88727569475E+02 0.  0.
          5    1    3    3  502    0 -0.36086166413E+00 -0.42842676620E+02  0.64857294959E+01  0.43533461248E+02  0.41800000000E+01 0.  1.
         -5    1    3    3    0  502  0.53772435519E+02  0.47782190538E+02  0.13354966801E+03  0.15174847208E+03  0.41800000000E+01 0.  1.
        -11    1    4    4    0    0 -0.26426793373E+02  0.85483985416E+01 -0.14130509002E+02  0.31162827379E+02  0.00000000000E+00 0.  1.
         11    1    4    4    0    0 -0.26984780481E+02 -0.13487912460E+02  0.96950774754E+02  0.10153597828E+03  0.00000000000E+00 0. -1.
</event>
<event>
 8    1  0.6443238E-009  0.9032207E+02  0.7561462E-02  0.1302074E+00
         -2   -1    0    0    0  501 -0.00000000000E+00  0.00000000000E+00  0.20042967856E+03  0.20042967856E+03  0.00000000000E+00 0.  1.
          2   -1    0    0  501    0  0.00000000000E+00 -0.00000000000E+00 -0.10187370651E+03  0.10187370651E+03  0.00000000000E+00 0. -1.
         25    2    1    2    0    0  0.65603783625E+02 -0.50102945734E+02  0.19877280183E+02  0.15119804027E+03  0.12510627290E+03 0.  0.
         23    2    1    2    0    0 -0.65603783625E+02  0.50102945734E+02  0.78678691865E+02  0.15110534480E+03  0.99137919463E+02 0.  0.
          5    1    3    3  502    0 -0.82947748801E+01 -0.12236993377E+01  0.55003920155E+02  0.55796096304E+02  0.41800000000E+01 0.  1.
         -5    1    3    3    0  502  0.73898558505E+02 -0.48879246396E+02 -0.35126639972E+02  0.95401943970E+02  0.41800000000E+01 0.  1.
        -11    1    4    4    0    0 -0.22866191190E+02  0.16189320809E+02  0.90963829378E+02  0.95180749435E+02  0.00000000000E+00 0.  1.
         11    1    4    4    0    0 -0.42737592435E+02  0.33913624925E+02 -0.12285137513E+02  0.55924595362E+02  0.00000000000E+00 0. -1.
</event>
<event>
 8    1  0.6443238E-009  0.1226370E+03  0.7561462E-02  0.1238809E+00
         -1   -1    0    0    0  501 -0.00000000000E+00  0.00000000000E+00  0.90661533369E+03  0.90661533369E+03  0.00000000000E+00 0.  1.
          1   -1    0    0  501    0  0.00000000000E+00 -0.00000000000E+00 -0.74859862548E+02  0.74859862548E+02  0.00000000000E+00 0. -1.
         25    2    1    2    0    0  0.97571181397E+02 -0.40930806819E+02  0.82604772339E+03  0.84213881964E+03  0.12508990301E+03 0.  0.
         23    2    1    2    0    0 -0.97571181397E+02  0.40930806819E+02  0.57077477516E+01  0.13933637660E+03  0.90479727421E+02 0.  0.
          5    1    3    3  502    0 -0.14874637290E+02 -0.15555355933E+02  0.26871506071E+02  0.34681034749E+02  0.41800000000E+01 0. -1.
         -5    1    3    3    0  502  0.11244581869E+03 -0.25375450885E+02  0.79917621732E+03  0.80745778489E+03  0.41800000000E+01 0. -1.
        -11    1    4    4    0    0 -0.32112238957E+02  0.24823861681E+02 -0.40712158195E+02  0.57488258144E+02  0.00000000000E+00 0. -1.
         11    1    4    4    0    0 -0.65458942440E+02  0.16106945137E+02  0.46419905946E+02  0.81848118458E+02  0.00000000000E+00 0.  1.
</event>
<event>
 8    1  0.6443238E-009  0.1709444E+03  0.7561462E-02  0.1176867E+00
          1   -1    0    0  501    0  0.00000000000E+00  0.00000000000E+00  0.49657172805E+02  0.49657172805E+02  0.00000000000E+00 0. -1.
         -1   -1    0    0    0  501 -0.00000000000E+00 -0.00000000000E+00 -0.61867033473E+03  0.61867033473E+03  0.00000000000E+00 0.  1.
         25    2    1    2    0    0  0.64466356288E+02  0.11608241829E+03 -0.23685963736E+03  0.29896494187E+03  0.12508600934E+03 0.  0.
         23    2    1    2    0    0 -0.64466356288E+02 -0.11608241829E+03 -0.33215352456E+03  0.36936256566E+03  0.92041849727E+02 0.  0.
          5    1    3    3  502    0  0.38195253999E+02 -0.20127575355E+02 -0.63407231881E+02  0.76824124938E+02  0.41800000000E+01 0.  1.
         -5    1    3    3    0  502  0.26271102289E+02  0.13620999364E+03 -0.17345240548E+03  0.22214081694E+03  0.41800000000E+01 0.  1.
        -11    1    4    4    0    0 -0.73739651192E+02 -0.41584960209E+02 -0.14811994274E+03  0.17060586892E+03  0.00000000000E+00 0. -1.
         11    1    4    4    0    0  0.92732949040E+01 -0.74497458076E+02 -0.18403358183E+03  0.19875669674E+03  0.00000000000E+00 0.  1.
</event>
<event>
 8    1  0.6443238E-009  0.8702525E+02  0.7561462E-02  0.1310220E+00
          1   -1    0    0  501    0  0.00000000000E+00  0.00000000000E+00  0.42717575084E+03  0.42717575084E+03  0.00000000000E+00 0. -1.
         -1   -1    0    0    0  501 -0.00000000000E+00 -0.00000000000E+00 -0.23785813935E+02  0.23785813935E+02  0.00000000000E+00 0.  1.
         25    2    1    2    0    0 -0.35138077173E+02 -0.13929072588E+02  0.28920380424E+03  0.31735587932E+03  0.12508880932E+03 0.  0.
         23    2    1    2    0    0  0.35138077173E+02  0.13929072588E+02  0.11418613266E+03  0.13360568546E+03  0.58166165120E+02 0.  0.
          5    1    3    3  502    0 -0.40151199146E+02 -0.52188991758E+02  0.75983796808E+02  0.10063209941E+03  0.41800000000E+01 0. -1.
         -5    1    3    3    0  502  0.50131219731E+01  0.38259919170E+02  0.21322000744E+03  0.21672377991E+03  0.41800000000E+01 0. -1.
        -11    1    4    4    0    0 -0.54075765296E+00  0.30086638185E+02  0.45903443784E+02  0.54887378944E+02  0.00000000000E+00 0.  1.
         11    1    4    4    0    0  0.35678834826E+02 -0.16157565597E+02  0.68282688878E+02  0.78718306517E+02  0.00000000000E+00 0. -1.
</event>
<event>
 8    1  0.6443238E-009  0.1054577E+03  0.7561462E-02  0.1269220E+00
          1   -1    0    0  501    0  0.00000000000E+00  0.00000000000E+00  0.96581333866E+03  0.96581333866E+03  0.00000000000E+00 0. -1.
         -1   -1    0    0    0  501 -0.00000000000E+00 -0.00000000000E+00 -0.14745084128E+02  0.14745084128E+02  0.00000000000E+00 0.  1.
         25    2    1    2    0    0 -0.18789978589E+02 -0.96571101059E+01  0.72099063902E+03  0.73206636748E+03  0.12508933515E+03 0.  0.
         23    2    1    2    0    0  0.18789978589E+02  0.96571101059E+01  0.23007761551E+03  0.24849205530E+03  0.91467312856E+02 0.  0.
          5    1    3    3  502    0 -0.67479381642E+02  0.19635398466E+01  0.27237655902E+03  0.28064886377E+03  0.41800000000E+01 0.  1.
         -5    1    3    3    0  502  0.48689403052E+02 -0.11620649952E+02  0.44861408001E+03  0.45141750371E+03  0.41800000000E+01 0.  1.
        -11    1    4    4    0    0 -0.96542420344E+00  0.49006964765E+02  0.13754129085E+03  0.14601445589E+03  0.00000000000E+00 0.  1.
         11    1    4    4    0    0  0.19755402793E+02 -0.39349854660E+02  0.92536324657E+02  0.10247759942E+03  0.00000000000E+00 0. -1.
</event>
<event>
 8    1  0.6443238E-009  0.6683838E+02  0.7561462E-02  0.1371187E+00
          1   -1    0    0  501    0  0.00000000000E+00  0.00000000000E+00  0.12466622277E+03  0.12466622277E+03  0.00000000000E+00 0. -1.
         -1   -1    0    0    0  501 -0.00000000000E+00 -0.00000000000E+00 -0.11004383261E+03  0.11004383261E+03  0.00000000000E+00 0.  1.
         25    2    1    2    0    0 -0.11904479590E+01 -0.40810572524E+02 -0.10804227542E+02  0.13203990335E+03  0.12510349614E+03 0.  0.
         23    2    1    2    0    0  0.11904479590E+01  0.40810572524E+02  0.25426617699E+02  0.10267015204E+03  0.90706820232E+02 0.  0.
          5    1    3    3  502    0  0.16398074216E+02 -0.13358317139E+02 -0.65095795469E+02  0.68573146803E+02  0.41800000000E+01 0. -1.
         -5    1    3    3    0  502 -0.17588522175E+02 -0.27452255385E+02  0.54291567927E+02  0.63466756543E+02  0.41800000000E+01 0. -1.
        -11    1    4    4    0    0  0.34411100932E+02  0.24473818939E+02  0.44228079052E+02  0.61149118207E+02  0.00000000000E+00 0. -1.
         11    1    4    4    0    0 -0.33220652973E+02  0.16336753585E+02 -0.18801461353E+02  0.41521033834E+02  0.00000000000E+00 0.  1.
</event>
<event>
 8    1  0.6443238E-009  0.2014773E+03  0.7561462E-02  0.1148499E+00
         -3   -1    0    0    0  501 -0.00000000000E+00  0.00000000000E+00  0.11615919499E+04  0.11615919499E+04  0.00000000000E+00 0.  1.
          3   -1    0    0  501    0  0.00000000000E+00 -0.00000000000E+00 -0.43226102937E+02  0.43226102937E+02  0.00000000000E+00 0. -1.
         25    2    1    2    0    0 -0.39428010293E+02 -0.17391022779E+03  0.79901115020E+03  0.82816595745E+03  0.12506278268E+03 0.  0.
         23    2    1    2    0    0  0.39428010293E+02  0.17391022779E+03  0.31935469678E+03  0.37665209540E+03  0.89889061015E+02 0.  0.
          5    1    3    3  502    0 -0.13918730861E+02 -0.17902437093E+03  0.76103523039E+03  0.78194344473E+03  0.41800000000E+01 0. -1.
         -5    1    3    3    0  502 -0.25509279433E+02  0.51141431393E+01  0.37975919807E+02  0.46222512723E+02  0.41800000000E+01 0. -1.
        -11    1    4    4    0    0  0.23448991914E+02  0.11330861406E+01  0.61730020559E+02  0.66043429228E+02  0.00000000000E+00 0.  1.
         11    1    4    4    0    0  0.15979018380E+02  0.17277714165E+03  0.25762467622E+03  0.31060866617E+03  0.00000000000E+00 0. -1.
</event>
<event>
 8    1  0.6443238E-009  0.1729832E+03  0.7561462E-02  0.1174772E+00
          2   -1    0    0  501    0  0.00000000000E+00  0.00000000000E+00  0.58886874275E+03  0.58886874275E+03  0.00000000000E+00 0. -1.
         -2   -1    0    0    0  501 -0.00000000000E+00 -0.00000000000E+00 -0.61872780598E+02  0.61872780598E+02  0.00000000000E+00 0.  1.
         25    2    1    2    0    0 -0.14072884534E+03 -0.54652609724E+02  0.35315645645E+03  0.40392916958E+03  0.12509106939E+03 0.  0.
         23    2    1    2    0    0  0.14072884534E+03  0.54652609724E+02  0.17383950570E+03  0.24681235377E+03  0.88908090586E+02 0.  0.
          5    1    3    3  502    0 -0.34292814482E+02 -0.58978853913E+02  0.23522867668E+03  0.24495817003E+03  0.41800000000E+01 0.  1.
         -5    1    3    3    0  502 -0.10643603086E+03  0.43262441897E+01  0.11792777977E+03  0.15897099954E+03  0.41800000000E+01 0.  1.
        -11    1    4    4    0    0  0.93247947484E+01  0.37318863561E+02  0.18721132959E+02  0.42780020966E+02  0.00000000000E+00 0. -1.
         11    1    4    4    0    0  0.13140405059E+03  0.17333746163E+02  0.15511837274E+03  0.20403233281E+03  0.00000000000E+00 0.  1.
</event>
<event>
 8    1  0.6443238E-009  0.7724239E+02  0.7561462E-02  0.1337064E+00
          1   -1    0    0  501    0  0.00000000000E+00  0.00000000000E+00  0.63972692720E+02  0.63972692720E+02  0.00000000000E+00 0. -1.
         -1   -1    0    0    0  501 -0.00000000000E+00 -0.00000000000E+00 -0.18329477845E+03  0.18329477845E+03  0.00000000000E+00 0.  1.
         25    2    1    2    0    0  0.34156898506E+01  0.75375029920E+01 -0.83389760454E+02  0.15056408103E+03  0.12508880629E+03 0.  0.
         23    2    1    2    0    0 -0.34156898506E+01 -0.75375029920E+01 -0.35932325277E+02  0.96703390145E+02  0.89397610579E+02 0.  0.
          5    1    3    3  502    0  0.19496198284E+02  0.31456285091E+02  0.20608475225E+02  0.42565024026E+02  0.41800000000E+01 0. -1.
         -5    1    3    3    0  502 -0.16080508433E+02 -0.23918782099E+02 -0.10399823568E+03  0.10799905700E+03  0.41800000000E+01 0. -1.
        -11    1    4    4    0    0  0.42071198984E+02 -0.38933422762E+00 -0.79354584678E+01  0.42814820637E+02  0.00000000000E+00 0.  1.
         11    1    4    4    0    0 -0.45486888834E+02 -0.71481687643E+01 -0.27996866809E+02  0.53888569508E+02  0.00000000000E+00 0. -1.
</event>
<event>
 8    1  0.6443238E-009  0.9101033E+02  0.7561462E-02  0.1300423E+00
          2   -1    0    0  501    0  0.00000000000E+00  0.00000000000E+00  0.12413947310E+03  0.12413947310E+03  0.00000000000E+00 0. -1.
         -2   -1    0    0    0  501 -0.00000000000E+00 -0.00000000000E+00 -0.10970667563E+03  0.10970667563E+03  0.00000000000E+00 0.  1.
         25    2    1    2    0    0 -0.38808339064E+02 -0.94390966195E+01 -0.82974651128E+01  0.13157692447E+03  0.12509378642E+03 0.  0.
         23    2    1    2    0    0  0.38808339064E+02  0.94390966195E+01  0.22730262578E+02  0.10226922425E+03  0.91362714860E+02 0.  0.
          5    1    3    3  502    0 -0.24134547692E+02  0.38256251765E+02  0.41083547476E+02  0.61248244584E+02  0.41800000000E+01 0.  1.
         -5    1    3    3    0  502 -0.14673791372E+02 -0.47695348385E+02 -0.49381012589E+02  0.70328679890E+02  0.41800000000E+01 0.  1.
        -11    1    4    4    0    0  0.10719028010E+01  0.38732234765E+02 -0.14842167533E+02  0.41492468263E+02  0.00000000000E+00 0.  1.
         11    1    4    4    0    0  0.37736436264E+02 -0.29293138145E+02  0.37572430111E+02  0.60776755990E+02  0.00000000000E+00 0. -1.
</event>
<event>
 7    1  0.6443238E-009  0.3109880E+03  0.7561462E-02  0.1079873E+00
         -2   -1    0    0    0  501 -0.00000000000E+00  0.00000000000E+00  0.10230080410E+03  0.10230080410E+03  0.00000000000E+00 0.  1.
          2   -1    0    0  501    0  0.00000000000E+00 -0.00000000000E+00 -0.11391581388E+04  0.11391581388E+04  0.00000000000E+00 0. -1.
         23    2    1    2    0    0 -0.21112588045E+03  0.22185859061E+03 -0.69955950931E+03  0.76906052299E+03  0.90968177632E+02 0.  0.
          5    1    1    2  502    0  0.14106368474E+03 -0.18590389133E+03 -0.31187497414E+03  0.38954164329E+03  0.41800000000E+01 0.  1.
         -5    1    1    2    0  502  0.70062195711E+02 -0.35954699279E+02 -0.25422851285E+02  0.82856776643E+02  0.41800000000E+01 0.  1.
        -11    1    3    3    0    0 -0.92541880892E+02  0.13067710957E+03 -0.45528894075E+03  0.48262669451E+03  0.00000000000E+00 0. -1.
         11    1    3    3    0    0 -0.11858399956E+03  0.91181481041E+02 -0.24427056856E+03  0.28643382848E+03  0.00000000000E+00 0.  1.
</event>
<event>
 8    1  0.6443238E-009  0.3428786E+03  0.7561462E-02  0.1065576E+00
          2   -1    0    0  501    0  0.00000000000E+00  0.00000000000E+00  0.55637312185E+03  0.55637312185E+03  0.00000000000E+00 0. -1.
         -2   -1    0    0    0  501 -0.00000000000E+00 -0.00000000000E+00 -0.23407123799E+03  0.23407123799E+03  0.00000000000E+00 0.  1.
         25    2    1    2    0    0  0.13335771324E+03  0.31241516417E+03  0.22299022070E+03  0.42515885753E+03  0.12509157096E+03 0.  0.
         23    2    1    2    0    0 -0.13335771324E+03 -0.31241516417E+03  0.99311663156E+02  0.36528550231E+03  0.90460915732E+02 0.  0.
          5    1    3    3  502    0  0.50592221593E+02  0.52352423323E+02  0.34924546882E+00  0.72924231131E+02  0.41800000000E+01 0.  1.
         -5    1    3    3    0  502  0.82765491650E+02  0.26006274084E+03  0.22264097523E+03  0.35223462640E+03  0.41800000000E+01 0.  1.
        -11    1    4    4    0    0 -0.70196735857E+02 -0.17913526804E+03  0.95610034654E+01  0.19263550755E+03  0.00000000000E+00 0. -1.
         11    1    4    4    0    0 -0.63160977386E+02 -0.13327989612E+03  0.89750659691E+02  0.17264999476E+03  0.00000000000E+00 0.  1.
</event>
<event>
 8    1  0.6443238E-009  0.1113457E+03  0.7561462E-02  0.1258098E+00
          3   -1    0    0  501    0  0.00000000000E+00  0.00000000000E+00  0.51756967022E+02  0.51756967022E+02  0.00000000000E+00 0. -1.
         -3   -1    0    0    0  501 -0.00000000000E+00 -0.00000000000E+00 -0.31054711418E+03  0.31054711418E+03  0.00000000000E+00 0.  1.
         25    2    1    2    0    0 -0.33418673224E+02 -0.57402287286E+02 -0.17358731253E+03  0.22403581557E+03  0.12509061229E+03 0.  0.
         23    2    1    2    0    0  0.33418673224E+02  0.57402287286E+02 -0.85202834633E+02  0.13826826563E+03  0.86294611339E+02 0.  0.
          5    1    3    3  502    0 -0.54813252236E+02 -0.69713865233E+02 -0.58651161500E+02  0.10640463698E+03  0.41800000000E+01 0.  1.
         -5    1    3    3    0  502  0.21394579012E+02  0.12311577947E+02 -0.11493615103E+03  0.11763117859E+03  0.41800000000E+01 0.  1.
        -11    1    4    4    0    0 -0.29546007071E+02  0.17909895561E+02 -0.25757260998E+02  0.43094864972E+02  0.00000000000E+00 0.  1.
         11    1    4    4    0    0  0.62964680294E+02  0.39492391725E+02 -0.59445573635E+02  0.95173400662E+02  0.00000000000E+00 0. -1.
</event>
<event>
 8    1  0.6443238E-009  0.1242570E+03  0.7561462E-02  0.1236235E+00
          1   -1    0    0  501    0  0.00000000000E+00  0.00000000000E+00  0.49286145193E+03  0.49286145193E+03  0.00000000000E+00 0. -1.
         -1   -1    0    0    0  501 -0.00000000000E+00 -0.00000000000E+00 -0.63824608062E+02  0.63824608062E+02  0.00000000000E+00 0.  1.
         25    2    1    2    0    0 -0.22972306696E+02 -0.10362171429E+03  0.83410621050E+02  0.18403798083E+03  0.12508980828E+03 0.  0.
         23    2    1    2    0    0  0.22972306696E+02  0.10362171429E+03  0.34562622282E+03  0.37264807917E+03  0.90243661599E+02 0.  0.
          5    1    3    3  502    0 -0.25540573036E+00 -0.10235446091E+03  0.53035955405E+01  0.10257729488E+03  0.41800000000E+01 0.  1.
         -5    1    3    3    0  502 -0.22716900966E+02 -0.12672533808E+01  0.78107025509E+02  0.81460685944E+02  0.41800000000E+01 0.  1.
        -11    1    4    4    0    0  0.37737876004E+02  0.31013246039E+02  0.58981680418E+02  0.76582030138E+02  0.00000000000E+00 0.  1.
         11    1    4    4    0    0 -0.14765569308E+02  0.72608468250E+02  0.28664454240E+03  0.29606604903E+03  0.00000000000E+00 0. -1.
</event>
<event>
 8    1  0.6443238E-009  0.6406693E+02  0.7561462E-02  0.1381516E+00
          2   -1    0    0  501    0  0.00000000000E+00  0.00000000000E+00  0.14830723284E+02  0.14830723284E+02  0.00000000000E+00 0.  1.
         -2   -1    0    0    0  501 -0.00000000000E+00 -0.00000000000E+00 -0.83588849889E+03  0.83588849889E+03  0.00000000000E+00 0. -1.
         25    2    1    2    0    0 -0.22908975070E+01 -0.24231835220E+02 -0.44988798764E+03  0.46758763622E+03  0.12508623455E+03 0.  0.
         23    2    1    2    0    0  0.22908975070E+01  0.24231835220E+02 -0.37116978797E+03  0.38313158596E+03  0.91817049660E+02 0.  0.
          5    1    3    3  502    0  0.83552107721E+01 -0.23126364908E+01 -0.44131469154E+03  0.44141962712E+03  0.41800000000E+01 0.  1.
         -5    1    3    3    0  502 -0.10646108279E+02 -0.21919198729E+02 -0.85732961005E+01  0.26168009103E+02  0.41800000000E+01 0.  1.
        -11    1    4    4    0    0 -0.73752103288E+01 -0.33982844470E+02 -0.10944717045E+03  0.11483862836E+03  0.00000000000E+00 0.  1.
         11    1    4    4    0    0  0.96661078358E+01  0.58214679689E+02 -0.26172261752E+03  0.26829295759E+03  0.00000000000E+00 0. -1.
</event>
<event>
 8    1  0.6443238E-009  0.1139233E+03  0.7561462E-02  0.1253472E+00
          3   -1    0    0  501    0  0.00000000000E+00  0.00000000000E+00  0.16792206463E+03  0.16792206463E+03  0.00000000000E+00 0. -1.
         -3   -1    0    0    0  501 -0.00000000000E+00 -0.00000000000E+00 -0.87878088432E+02  0.87878088432E+02  0.00000000000E+00 0.  1.
         25    2    1    2    0    0  0.46833745592E+02  0.14675463550E+02  0.23034635436E+02  0.13633496893E+03  0.12509140805E+03 0.  0.
         23    2    1    2    0    0 -0.46833745592E+02 -0.14675463550E+02  0.57009340762E+02  0.11946518413E+03  0.92806768769E+02 0.  0.
          5    1    3    3  502    0 -0.21372291608E+02  0.52030319467E+02  0.71690301822E+01  0.56857685375E+02  0.41800000000E+01 0. -1.
         -5    1    3    3    0  502  0.68206037200E+02 -0.37354855917E+02  0.15865605253E+02  0.79477283554E+02  0.41800000000E+01 0. -1.
        -11    1    4    4    0    0 -0.69608314944E+02 -0.10132324178E+02  0.15695700213E+02  0.72071745558E+02  0.00000000000E+00 0.  1.
         11    1    4    4    0    0  0.22774569353E+02 -0.45431393722E+01  0.41313640549E+02  0.47393438575E+02  0.00000000000E+00 0. -1.
</event>
<event>
 8    1  0.6443238E-009  0.1951273E+03  0.7561462E-02  0.1153916E+00
         -2   -1    0    0    0  501 -0.00000000000E+00  0.00000000000E+00  0.38238785452E+03  0.38238785452E+03  0.00000000000E+00 0. -1.
          2   -1    0    0  501    0  0.00000000000E+00 -0.00000000000E+00 -0.11237365047E+03  0.11237365047E+03  0.00000000000E+00 0.  1.
         25    2    1    2    0    0  0.15834614005E+03  0.44404706607E+02  0.21847497090E+03  0.30070646607E+03  0.12509111794E+03 0.  0.
         23    2    1    2    0    0 -0.15834614005E+03 -0.44404706607E+02  0.51539233140E+02  0.19405503891E+03  0.89195221489E+02 0.  0.
          5    1    3    3  502    0  0.49911951146E+02 -0.42578378069E+02  0.89373456639E+02  0.11094687151E+03  0.41800000000E+01 0. -1.
         -5    1    3    3    0  502  0.10843418891E+03  0.86983084676E+02  0.12910151426E+03  0.18975959456E+03  0.41800000000E+01 0. -1.
        -11    1    4    4    0    0 -0.43379315525E+02 -0.54931319604E+02  0.32012315776E+02  0.76967546733E+02  0.00000000000E+00 0. -1.
         11    1    4    4    0    0 -0.11496682453E+03  0.10526612996E+02  0.19526917364E+02  0.11708749218E+03  0.00000000000E+00 0.  1.
</event>
<event>
 8    1  0.6443238E-009  0.9490003E+02  0.7561462E-02  0.1291401E+00
          3   -1    0    0  501    0  0.00000000000E+00  0.00000000000E+00  0.35654196333E+03  0.35654196333E+03  0.00000000000E+00 0. -1.
         -3   -1    0    0    0  501 -0.00000000000E+00 -0.00000000000E+00 -0.37578899805E+02  0.37578899805E+02  0.00000000000E+00 0.  1.
         25    2    1    2    0    0  0.59513301850E+01 -0.18419576359E+02  0.25680190331E+03  0.28630177981E+03  0.12508713944E+03 0.  0.
         23    2    1    2    0    0 -0.59513301850E+01  0.18419576359E+02  0.62161160215E+02  0.10781908333E+03  0.85943270629E+02 0.  0.
          5    1    3    3  502    0 -0.42906559814E+02  0.11752842481E+02  0.33908895340E+02  0.56092671220E+02  0.41800000000E+01 0.  1.
         -5    1    3    3    0  502  0.48857889999E+02 -0.30172418840E+02  0.22289300797E+03  0.23020910859E+03  0.41800000000E+01 0.  1.
        -11    1    4    4    0    0  0.30081047549E+02 -0.19011792366E+02  0.19406179203E+02  0.40532918250E+02  0.00000000000E+00 0. -1.
         11    1    4    4    0    0 -0.36032377734E+02  0.37431368725E+02  0.42754981012E+02  0.67286165079E+02  0.00000000000E+00 0.  1.
</event>
<event>
 8    1  0.6443238E-009  0.1324020E+03  0.7561462E-02  0.1223934E+00
         -4   -1    0    0    0  501 -0.00000000000E+00  0.00000000000E+00  0.33529730301E+02  0.33529730301E+02  0.00000000000E+00 0.  1.
          4   -1    0    0  501    0  0.00000000000E+00 -0.00000000000E+00 -0.72351497312E+03  0.72351497312E+03  0.00000000000E+00 0. -1.
         25    2    1    2    0    0 -0.96707573483E+02 -0.27710174549E+02 -0.48787307612E+03  0.51360403819E+03  0.12509500830E+03 0.  0.
         23    2    1    2    0    0  0.96707573483E+02  0.27710174549E+02 -0.20211216670E+03  0.24344066523E+03  0.91070417901E+02 0.  0.
          5    1    3    3  502    0 -0.93030193976E+01  0.42399152324E+02 -0.19924551978E+03  0.20396196665E+03  0.41800000000E+01 0. -1.
         -5    1    3    3    0  502 -0.87404554086E+02 -0.70109326873E+02 -0.28862755634E+03  0.30964207154E+03  0.41800000000E+01 0. -1.
        -11    1    4    4    0    0  0.87947920456E+02  0.89967928345E+01 -0.78858301728E+02  0.11846691836E+03  0.00000000000E+00 0.  1.
         11    1    4    4    0    0  0.87596530268E+01  0.18713381715E+02 -0.12325386498E+03  0.12497374687E+03  0.00000000000E+00 0. -1.
</event>
<event>
 8    1  0.6443238E-009  0.2317428E+03  0.7561462E-02  0.1125419E+00
         -2   -1    0    0    0  501 -0.00000000000E+00  0.00000000000E+00  0.10700373962E+03  0.10700373962E+03  0.00000000000E+00 0.  1.
          2   -1    0    0  501    0  0.00000000000E+00 -0.00000000000E+00 -0.51520007629E+03  0.51520007629E+03  0.00000000000E+00 0. -1.
         25    2    1    2    0    0 -0.87040771136E+02 -0.18842342627E+03 -0.20021891493E+03  0.31434727198E+03  0.12508840913E+03 0.  0.
         23    2    1    2    0    0  0.87040771136E+02  0.18842342627E+03 -0.20797742174E+03  0.30785654393E+03  0.91877964055E+02 0.  0.
          5    1    3    3  502    0 -0.93972876785E+01  0.17916963234E+02 -0.26684164692E+02  0.33746757363E+02  0.41800000000E+01 0. -1.
         -5    1    3    3    0  502 -0.77643483458E+02 -0.20634038951E+03 -0.17353475024E+03  0.28060051462E+03  0.41800000000E+01 0. -1.
        -11    1    4    4    0    0 -0.15476158534E+02  0.25422452099E+02 -0.52562362716E+02  0.60403762532E+02  0.00000000000E+00 0. -1.
         11    1    4    4    0    0  0.10251692967E+03  0.16300097418E+03 -0.15541505902E+03  0.24745278140E+03  0.00000000000E+00 0.  1.
</event>
<event>
 8    1  0.6443238E-009  0.9594326E+02  0.7561462E-02  0.1289066E+00
         -2   -1    0    0    0  501 -0.00000000000E+00  0.00000000000E+00  0.12238568499E+03  0.12238568499E+03  0.00000000000E+00 0.  1.
          2   -1    0    0  501    0  0.00000000000E+00 -0.00000000000E+00 -0.24559423582E+03  0.24559423582E+03  0.00000000000E+00 0. -1.
         25    2    1    2    0    0  0.57303442567E+02  0.40666059976E+02 -0.18754196052E+03  0.23613053359E+03  0.12509288140E+03 0.  0.
         23    2    1    2    0    0 -0.57303442567E+02 -0.40666059976E+02  0.64333409693E+02  0.13184938721E+03  0.91148561932E+02 0.  0.
          5    1    3    3  502    0  0.95483189039E+01 -0.11856466477E+02  0.14810867861E+02  0.21646717950E+02  0.41800000000E+01 0. -1.
         -5    1    3    3    0  502  0.47755123663E+02  0.52522526453E+02 -0.20235282838E+03  0.21448381564E+03  0.41800000000E+01 0. -1.
        -11    1    4    4    0    0 -0.89837241236E+01 -0.54097247082E+02  0.60344330643E+02  0.81539301455E+02  0.00000000000E+00 0.  1.
         11    1    4    4    0    0 -0.48319718443E+02  0.13431187106E+02  0.39890790498E+01  0.50310085760E+02  0.00000000000E+00 0. -1.
</event>
<event>
 8    1  0.6443238E-009  0.1172360E+03  0.7561462E-02  0.1247728E+00
          1   -1    0    0  501    0  0.00000000000E+00  0.00000000000E+00  0.16189263337E+03  0.16189263337E+03  0.00000000000E+00 0. -1.
         -1   -1    0    0    0  501 -0.00000000000E+00 -0.00000000000E+00 -0.12030706817E+03  0.12030706817E+03  0.00000000000E+00 0.  1.
         25    2    1    2    0    0  0.14629542468E+02 -0.80036621771E+02 -0.95678074849E+01  0.14952928485E+03  0.12509028640E+03 0.  0.
         23    2    1    2    0    0 -0.14629542468E+02  0.80036621771E+02  0.51153372685E+02  0.13267041670E+03  0.91459759412E+02 0.  0.
          5    1    3    3  502    0  0.28704625337E+02 -0.91937841872E+02  0.33850531019E+02  0.10217559950E+03  0.41800000000E+01 0. -1.
         -5    1    3    3    0  502 -0.14075082869E+02  0.11901220101E+02 -0.43418338504E+02  0.47353685349E+02  0.41800000000E+01 0. -1.
        -11    1    4    4    0    0  0.16856637371E+02  0.85555335652E+02  0.23268929832E+02  0.90251342248E+02  0.00000000000E+00 0.  1.
         11    1    4    4    0    0 -0.31486179839E+02 -0.55187138816E+01  0.27884442854E+02  0.42419074448E+02  0.00000000000E+00 0. -1.
</event>
<event>
 8    1  0.6443238E-009  0.1148563E+03  0.7561462E-02  0.1251832E+00
          2   -1    0    0  501    0  0.00000000000E+00  0.00000000000E+00  0.21107008636E+02  0.21107008636E+02  0.00000000000E+00 0. -1.
         -2   -1    0    0    0  501 -0.00000000000E+00 -0.00000000000E+00 -0.11421667475E+04  0.11421667475E+04  0.00000000000E+00 0.  1.
         25    2    1    2    0    0  0.15238324231E+02  0.54845313264E+02 -0.93966532308E+03  0.94966150059E+03  0.12508329784E+03 0.  0.
         23    2    1    2    0    0 -0.15238324231E+02 -0.54845313264E+02 -0.18139441575E+03  0.21361225551E+03  0.97396338361E+02 0.  0.
          5    1    3    3  502    0 -0.18564241731E+02  0.75724085717E+02 -0.81546009403E+03  0.81918948088E+03  0.41800000000E+01 0.  1.
         -5    1    3    3    0  502  0.33802565963E+02 -0.20878772453E+02 -0.12420522905E+03  0.13047201972E+03  0.41800000000E+01 0.  1.
        -11    1    4    4    0    0 -0.55517731873E+02 -0.41276324776E+02 -0.97300716420E+02  0.11938753266E+03  0.00000000000E+00 0.  1.
         11    1    4    4    0    0  0.40279407642E+02 -0.13568988488E+02 -0.84093699333E+02  0.94224722850E+02  0.00000000000E+00 0. -1.
</event>
<event>
 8    1  0.6443238E-009  0.2437685E+03  0.7561462E-02  0.1117307E+00
          2   -1    0    0  501    0  0.00000000000E+00  0.00000000000E+00  0.28834229621E+03  0.28834229621E+03  0.00000000000E+00 0.  1.
         -2   -1    0    0    0  501 -0.00000000000E+00 -0.00000000000E+00 -0.21820705885E+03  0.21820705885E+03  0.00000000000E+00 0. -1.
         25    2    1    2    0    0  0.22013383199E+03 -0.43252666881E+02  0.17268820845E+02  0.25744002740E+03  0.12508980116E+03 0.  0.
         23    2    1    2    0    0 -0.22013383199E+03  0.43252666881E+02  0.52866416514E+02  0.24910932766E+03  0.94503449404E+02 0.  0.
          5    1    3    3  502    0  0.51643831573E+02  0.38750092036E+02 -0.17010394752E+02  0.66899035134E+02  0.41800000000E+01 0.  1.
         -5    1    3    3    0  502  0.16849000042E+03 -0.82002758917E+02  0.34279215597E+02  0.19054099227E+03  0.41800000000E+01 0.  1.
        -11    1    4    4    0    0 -0.87169444051E+02 -0.18002313881E+02  0.51241003203E+02  0.10270460404E+03  0.00000000000E+00 0. -1.
         11    1    4    4    0    0 -0.13296438794E+03  0.61254980763E+02  0.16254133114E+01  0.14640472362E+03  0.00000000000E+00 0.  1.
</event>
<event>
 8    1  0.6443238E-009  0.1630774E+03  0.7561462E-02  0.1185266E+00
         -4   -1    0    0    0  501 -0.00000000000E+00  0.00000000000E+00  0.23373815893E+03  0.23373815893E+03  0.00000000000E+00 0.  1.
          4   -1    0    0  501    0  0.00000000000E+00 -0.00000000000E+00 -0.13769929545E+03  0.13769929545E+03  0.00000000000E+00 0. -1.
         25    2    1    2    0    0 -0.12083500394E+03  0.74582595211E+02  0.56587045537E+02  0.19751684057E+03  0.12508855623E+03 0.  0.
         23    2    1    2    0    0  0.12083500394E+03 -0.74582595211E+02  0.39451817942E+02  0.17392061381E+03  0.92348645270E+02 0.  0.
          5    1    3    3  502    0 -0.13211016820E+03  0.81769270441E+02  0.76451312175E+02  0.17320965811E+03  0.41800000000E+01 0.  1.
         -5    1    3    3    0  502  0.11275164256E+02 -0.71866752305E+01 -0.19864266638E+02  0.24307182456E+02  0.41800000000E+01 0.  1.
        -11    1    4    4    0    0  0.12567968399E+03 -0.56131803231E+02  0.89384907570E+01  0.13793498077E+03  0.00000000000E+00 0. -1.
         11    1    4    4    0    0 -0.48446800513E+01 -0.18450791980E+02  0.30513327185E+02  0.35985633041E+02  0.00000000000E+00 0.  1.
</event>
<event>
 8    1  0.6443238E-009  0.1045652E+03  0.7561462E-02  0.1270979E+00
          1   -1    0    0  501    0  0.00000000000E+00  0.00000000000E+00  0.54654500677E+02  0.54654500677E+02  0.00000000000E+00 0. -1.
         -1   -1    0    0    0  501 -0.00000000000E+00 -0.00000000000E+00 -0.35379343790E+03  0.35379343790E+03  0.00000000000E+00 0.  1.
         25    2    1    2    0    0  0.42797801233E+02  0.69504730126E+02 -0.12132309239E+03  0.19242487008E+03  0.12508188749E+03 0.  0.
         23    2    1    2    0    0 -0.42797801233E+02 -0.69504730126E+02 -0.17781584483E+03  0.21602306849E+03  0.91569275132E+02 0.  0.
          5    1    3    3  502    0 -0.48687517158E+01  0.62084860625E+02 -0.67134334845E+00  0.62419209896E+02  0.41800000000E+01 0. -1.
         -5    1    3    3    0  502  0.47666552949E+02  0.74198695009E+01 -0.12065174904E+03  0.13000566019E+03  0.41800000000E+01 0. -1.
        -11    1    4    4    0    0 -0.52110782409E+00 -0.52852988086E+02 -0.28714103895E+02  0.60151555803E+02  0.00000000000E+00 0. -1.
         11    1    4    4    0    0 -0.42276693409E+02 -0.16651742040E+02 -0.14910174093E+03  0.15587151269E+03  0.00000000000E+00 0.  1.
</event>
<event>
 8    1  0.6443238E-009  0.1469758E+03  0.7561462E-02  0.1204239E+00
         -3   -1    0    0    0  501 -0.00000000000E+00  0.00000000000E+00  0.47488463288E+03  0.47488463288E+03  0.00000000000E+00 0.  1.
          3   -1    0    0  501    0  0.00000000000E+00 -0.00000000000E+00 -0.72524660850E+02  0.72524660850E+02  0.00000000000E+00 0. -1.
         25    2    1    2    0    0  0.71914308891E+02  0.94459542450E+02  0.34603941687E+03  0.38663257777E+03  0.12508876520E+03 0.  0.
         23    2    1    2    0    0 -0.71914308891E+02 -0.94459542450E+02  0.56320555157E+02  0.16077671596E+03  0.92643804321E+02 0.  0.
          5    1    3    3  502    0  0.73738141527E+02 -0.32743274447E+01  0.16620865360E+03  0.18190883340E+03  0.41800000000E+01 0.  1.
         -5    1    3    3    0  502 -0.18238326360E+01  0.97733869895E+02  0.17983076327E+03  0.20472374437E+03  0.41800000000E+01 0.  1.
        -11    1    4    4    0    0 -0.52958981662E+02 -0.45999512805E+02  0.77557737877E+02  0.10457443101E+03  0.00000000000E+00 0.  1.
         11    1    4    4    0    0 -0.18955327229E+02 -0.48460029645E+02 -0.21237182721E+02  0.56202284949E+02  0.00000000000E+00 0. -1.
</event>
<event>
 8    1  0.6443238E-009  0.1612189E+03  0.7561462E-02  0.1187327E+00
         -1   -1    0    0    0  501 -0.00000000000E+00  0.00000000000E+00  0.51701691512E+03  0.51701691512E+03  0.00000000000E+00 0.  1.
          1   -1    0    0  501    0  0.00000000000E+00 -0.00000000000E+00 -0.53947922978E+02  0.53947922978E+02  0.00000000000E+00 0. -1.
         25    2    1    2    0    0 -0.31017089998E+02 -0.12209096133E+03  0.23289541395E+03  0.29284096410E+03  0.12508914304E+03 0.  0.
         23    2    1    2    0    0  0.31017089998E+02  0.12209096133E+03  0.23017357819E+03  0.27812387399E+03  0.92221204069E+02 0.  0.
          5    1    3    3  502    0 -0.53773219015E+02 -0.13315520774E+03  0.15738794285E+03  0.21309693895E+03  0.41800000000E+01 0. -1.
         -5    1    3    3    0  502  0.22756129017E+02  0.11064246414E+02  0.75507471099E+02  0.79744025157E+02  0.41800000000E+01 0. -1.
        -11    1    4    4    0    0  0.57913402494E+02  0.51181426368E+02  0.89045416936E+02  0.11790923149E+03  0.00000000000E+00 0.  1.
         11    1    4    4    0    0 -0.26896312496E+02  0.70909534960E+02  0.14112816125E+03  0.16021464250E+03  0.00000000000E+00 0. -1.
</event>
<event>
 8    1  0.6443238E-009  0.1015239E+03  0.7561462E-02  0.1277124E+00
          1   -1    0    0  501    0  0.00000000000E+00  0.00000000000E+00  0.10502631170E+03  0.10502631170E+03  0.00000000000E+00 0. -1.
         -1   -1    0    0    0  501 -0.00000000000E+00 -0.00000000000E+00 -0.20803298845E+03  0.20803298845E+03  0.00000000000E+00 0.  1.
         25    2    1    2    0    0 -0.96437980486E+02 -0.94798405889E+01 -0.93374979275E+02  0.18372417920E+03  0.12508211627E+03 0.  0.
         23    2    1    2    0    0  0.96437980486E+02  0.94798405889E+01 -0.96316974788E+01  0.12933512095E+03  0.85115524176E+02 0.  0.
          5    1    3    3  502    0 -0.73689011233E+02 -0.14772503299E+02 -0.12395441814E+03  0.14501885190E+03  0.41800000000E+01 0.  1.
         -5    1    3    3    0  502 -0.22748969253E+02  0.52926627097E+01  0.30579438861E+02  0.38705327304E+02  0.41800000000E+01 0.  1.
        -11    1    4    4    0    0  0.36621257893E+02 -0.14791283910E+02  0.33424159662E+02  0.51740439296E+02  0.00000000000E+00 0. -1.
         11    1    4    4    0    0  0.59816722593E+02  0.24271124499E+02 -0.43055857141E+02  0.77594681650E+02  0.00000000000E+00 0.  1.
</event>
<event>
 8    1  0.6443238E-009  0.1198111E+03  0.7561462E-02  0.1243409E+00
         -4   -1    0    0    0  501 -0.00000000000E+00  0.00000000000E+00  0.50446133561E+02  0.50446133561E+02  0.00000000000E+00 0.  1.
          4   -1    0    0  501    0  0.00000000000E+00 -0.00000000000E+00 -0.37505554969E+03  0.37505554969E+03  0.00000000000E+00 0. -1.
         25    2    1    2    0    0 -0.45935618981E+02 -0.68423459686E+02 -0.14570193617E+03  0.20896344155E+03  0.12507923399E+03 0.  0.
         23    2    1    2    0    0  0.45935618981E+02  0.68423459686E+02 -0.17890747996E+03  0.21653824170E+03  0.89939272883E+02 0.  0.
          5    1    3    3  502    0  0.25975749721E+01 -0.84990045466E+02 -0.45994104226E+02  0.96762519850E+02  0.41800000000E+01 0. -1.
         -5    1    3    3    0  502 -0.48533193953E+02  0.16566585781E+02 -0.99707831943E+02  0.11220092170E+03  0.41800000000E+01 0. -1.
        -11    1    4    4    0    0  0.46080559755E+02  0.13366750352E+02 -0.14293089365E+03  0.15076912271E+03  0.00000000000E+00 0. -1.
         11    1    4    4    0    0 -0.14494077459E+00  0.55056709334E+02 -0.35976586308E+02  0.65769118991E+02  0.00000000000E+00 0.  1.
</event>
<event>
 8    1  0.6443238E-009  0.1127633E+03  0.7561462E-02  0.1255537E+00
          2   -1    0    0  501    0  0.00000000000E+00  0.00000000000E+00  0.12703436102E+03  0.12703436102E+03  0.00000000000E+00 0. -1.
         -2   -1    0    0    0  501 -0.00000000000E+00 -0.00000000000E+00 -0.16736706432E+03  0.16736706432E+03  0.00000000000E+00 0.  1.
         25    2    1    2    0    0 -0.53864722642E+02  0.59402538729E+02 -0.84610029706E+02  0.17098664037E+03  0.12508998403E+03 0.  0.
         23    2    1    2    0    0  0.53864722642E+02 -0.59402538729E+02  0.44277326401E+02  0.12341478497E+03  0.82708267809E+02 0.  0.
          5    1    3    3  502    0 -0.23928531134E+01 -0.18862102702E+02 -0.74121380117E+02  0.76635214195E+02  0.41800000000E+01 0. -1.
         -5    1    3    3    0  502 -0.51471869529E+02  0.78264641432E+02 -0.10488649589E+02  0.94351426176E+02  0.41800000000E+01 0. -1.
        -11    1    4    4    0    0 -0.20563911618E+02 -0.16648424978E+02 -0.78648951780E+00  0.26470041198E+02  0.00000000000E+00 0.  1.
         11    1    4    4    0    0  0.74428634260E+02 -0.42754113752E+02  0.45063815919E+02  0.96944743775E+02  0.00000000000E+00 0. -1.
</event>
<event>
 8    1  0.6443238E-009  0.1925426E+03  0.7561462E-02  0.1156188E+00
          2   -1    0    0  501    0  0.00000000000E+00  0.00000000000E+00  0.79642231929E+03  0.79642231929E+03  0.00000000000E+00 0. -1.
         -2   -1    0    0    0  501 -0.00000000000E+00 -0.00000000000E+00 -0.54710744406E+02  0.54710744406E+02  0.00000000000E+00 0.  1.
         25    2    1    2    0    0  0.15300276900E+03 -0.75818123158E+02  0.44110858493E+03  0.48926737104E+03  0.12509013366E+03 0.  0.
         23    2    1    2    0    0 -0.15300276900E+03  0.75818123158E+02  0.30060298995E+03  0.36186569266E+03  0.10689427877E+03 0.  0.
          5    1    3    3  502    0  0.52818422338E+02 -0.89245166107E+02  0.16205575154E+03  0.19244226256E+03  0.41800000000E+01 0.  1.
         -5    1    3    3    0  502  0.10018434667E+03  0.13427042948E+02  0.27905283339E+03  0.29682510848E+03  0.41800000000E+01 0.  1.
        -11    1    4    4    0    0 -0.13695829818E+03  0.42915626555E+02  0.15296015788E+03  0.20975255980E+03  0.00000000000E+00 0.  1.
         11    1    4    4    0    0 -0.16044470826E+02  0.32902496603E+02  0.14764283207E+03  0.15211313286E+03  0.00000000000E+00 0. -1.
</event>
<event>
 8    1  0.6443238E-009  0.1314802E+03  0.7561462E-02  0.1225276E+00
         -1   -1    0    0    0  501 -0.00000000000E+00  0.00000000000E+00  0.25849252945E+03  0.25849252945E+03  0.00000000000E+00 0. -1.
          1   -1    0    0  501    0  0.00000000000E+00 -0.00000000000E+00 -0.73105018899E+02  0.73105018899E+02  0.00000000000E+00 0.  1.
         25    2    1    2    0    0 -0.77904933125E+02  0.59137958309E+01  0.63056494852E+02  0.16039704180E+03  0.12508772078E+03 0.  0.
         23    2    1    2    0    0  0.77904933125E+02 -0.59137958309E+01  0.12233101570E+03  0.17120050655E+03  0.90777664947E+02 0.  0.
          5    1    3    3  502    0 -0.94491576641E+02  0.42695297206E+02  0.29870537775E+02  0.10798735059E+03  0.41800000000E+01 0. -1.
         -5    1    3    3    0  502  0.16586643516E+02 -0.36781501375E+02  0.33185957077E+02  0.52409691218E+02  0.41800000000E+01 0. -1.
        -11    1    4    4    0    0  0.14455576332E+02 -0.42837771496E+02  0.58389370854E+02  0.73846848156E+02  0.00000000000E+00 0. -1.
         11    1    4    4    0    0  0.63449356793E+02  0.36923975665E+02  0.63941644847E+02  0.97353658391E+02  0.00000000000E+00 0.  1.
</event>
<event>
 8    1  0.6443238E-009  0.1602264E+03  0.7561462E-02  0.1188441E+00
          2   -1    0    0  501    0  0.00000000000E+00  0.00000000000E+00  0.17338270094E+03  0.17338270094E+03  0.00000000000E+00 0. -1.
         -2   -1    0    0    0  501 -0.00000000000E+00 -0.00000000000E+00 -0.17986408402E+03  0.17986408402E+03  0.00000000000E+00 0.  1.
         25    2    1    2    0    0 -0.10421121558E+03 -0.92367123342E+02 -0.59742850130E+01  0.18728185062E+03  0.12508851491E+03 0.  0.
         23    2    1    2    0    0  0.10421121558E+03  0.92367123342E+02 -0.50709806931E+00  0.16596493433E+03  0.90290859749E+02 0.  0.
          5    1    3    3  502    0 -0.66080067712E+02  0.74144107348E+01  0.31901143638E+02  0.73869507923E+02  0.41800000000E+01 0.  1.
         -5    1    3    3    0  502 -0.38131147863E+02 -0.99781534077E+02 -0.37875428651E+02  0.11341234270E+03  0.41800000000E+01 0.  1.
        -11    1    4    4    0    0  0.53454842285E+02  0.17060462429E+02 -0.37944058797E+02  0.67736483080E+02  0.00000000000E+00 0.  1.
         11    1    4    4    0    0  0.50756373290E+02  0.75306660913E+02  0.37436960728E+02  0.98228451255E+02  0.00000000000E+00 0. -1.
</event>
<event>
 8    1  0.6443238E-009  0.1350472E+03  0.7561462E-02  0.1220153E+00
         -1   -1    0    0    0  501 -0.00000000000E+00  0.00000000000E+00  0.51313804151E+03  0.51313804151E+03  0.00000000000E+00 0.  1.
          1   -1    0    0  501    0  0.00000000000E+00 -0.00000000000E+00 -0.52350856085E+02  0.52350856085E+02  0.00000000000E+00 0. -1.
         25    2    1    2    0    0 -0.10171743587E+03 -0.43743571809E+01  0.12524602960E+03  0.20420553496E+03  0.12509101014E+03 0.  0.
         23    2    1    2    0    0  0.10171743587E+03  0.43743571809E+01  0.33554115582E+03  0.36128336263E+03  0.87018556091E+02 0.  0.
          5    1    3    3  502    0  0.15298981199E+02 -0.36448920600E+02  0.27384101009E+02  0.48269493748E+02  0.41800000000E+01 0.  1.
         -5    1    3    3    0  502 -0.11701641706E+03  0.32074563420E+02  0.97861928590E+02  0.15593604121E+03  0.41800000000E+01 0.  1.
        -11    1    4    4    0    0  0.46416839965E+02  0.21351226480E+02  0.26583436406E+03  0.27069966202E+03  0.00000000000E+00 0.  1.
         11    1    4    4    0    0  0.55300595901E+02 -0.16976869299E+02  0.69706791764E+02  0.90583700610E+02  0.00000000000E+00 0. -1.
</event>
<event>
 8    1  0.6443238E-009  0.1095810E+03  0.7561462E-02  0.1261348E+00
          1   -1    0    0  501    0  0.00000000000E+00  0.00000000000E+00  0.33037551663E+02  0.33037551663E+02  0.00000000000E+00 0. -1.
         -1   -1    0    0    0  501 -0.00000000000E+00 -0.00000000000E+00 -0.44568942306E+03  0.44568942306E+03  0.00000000000E+00 0.  1.
         25    2    1    2    0    0  0.32139900181E+02  0.25876882347E+02 -0.19522074489E+03  0.23550330377E+03  0.12509228844E+03 0.  0.
         23    2    1    2    0    0 -0.32139900181E+02 -0.25876882347E+02 -0.21743112651E+03  0.24322367096E+03  0.10089040150E+03 0.  0.
          5    1    3    3  502    0 -0.24725886629E+02  0.49575074184E+02 -0.40019262421E+02  0.68469491123E+02  0.41800000000E+01 0. -1.
         -5    1    3    3    0  502  0.56865786810E+02 -0.23698191837E+02 -0.15520148247E+03  0.16703381264E+03  0.41800000000E+01 0. -1.
        -11    1    4    4    0    0  0.69685790553E+01 -0.53516223636E+02 -0.71144343227E+02  0.89297619562E+02  0.00000000000E+00 0. -1.
         11    1    4    4    0    0 -0.39108479237E+02  0.27639341290E+02 -0.14628678328E+03  0.15392605139E+03  0.00000000000E+00 0.  1.
</event>
<event>
 8    1  0.6443238E-009  0.1560231E+03  0.7561462E-02  0.1193261E+00
         -1   -1    0    0    0  501 -0.00000000000E+00  0.00000000000E+00  0.35688843801E+02  0.35688843801E+02  0.00000000000E+00 0.  1.
          1   -1    0    0  501    0  0.00000000000E+00 -0.00000000000E+00 -0.73694188351E+03  0.73694188351E+03  0.00000000000E+00 0. -1.
         25    2    1    2    0    0 -0.73808026648E+02  0.90770663219E+02 -0.44117493957E+03  0.47325481240E+03  0.12509137485E+03 0.  0.
         23    2    1    2    0    0  0.73808026648E+02 -0.90770663219E+02 -0.26007810015E+03  0.29937591491E+03  0.91095456279E+02 0.  0.
          5    1    3    3  502    0  0.29079199492E+02  0.38610045996E+02 -0.75060942610E+02  0.89375348953E+02  0.41800000000E+01 0. -1.
         -5    1    3    3    0  502 -0.10288722614E+03  0.52160617223E+02 -0.36611399696E+03  0.38387946345E+03  0.41800000000E+01 0. -1.
        -11    1    4    4    0    0  0.58760450776E+02 -0.27732343876E+01 -0.96273312830E+02  0.11282301258E+03  0.00000000000E+00 0. -1.
         11    1    4    4    0    0  0.15047575872E+02 -0.87997428831E+02 -0.16380478732E+03  0.18655290233E+03  0.00000000000E+00 0.  1.
</event>
<event>
 8    1  0.6443238E-009  0.9838111E+02  0.7561462E-02  0.1283738E+00
          1   -1    0    0  501    0  0.00000000000E+00  0.00000000000E+00  0.85396486507E+02  0.85396486507E+02  0.00000000000E+00 0.  1.
         -1   -1    0    0    0  501 -0.00000000000E+00 -0.00000000000E+00 -0.15940637770E+03  0.15940637770E+03  0.00000000000E+00 0. -1.
         25    2    1    2    0    0 -0.16573105310E+02 -0.39516243181E+02 -0.59317676044E+02  0.14492744224E+03  0.12509666474E+03 0.  0.
         23    2    1    2    0    0  0.16573105310E+02  0.39516243181E+02 -0.14692215152E+02  0.99875421965E+02  0.89011445511E+02 0.  0.
          5    1    3    3  502    0 -0.58148355912E+02  0.13738265908E+02 -0.46979159636E+02  0.76121515260E+02  0.41800000000E+01 0.  1.
         -5    1    3    3    0  502  0.41575250602E+02 -0.53254509089E+02 -0.12338516408E+02  0.68805926984E+02  0.41800000000E+01 0.  1.
        -11    1    4    4    0    0 -0.93951584776E+01  0.42048111359E+02  0.26888285204E+02  0.50786735994E+02  0.00000000000E+00 0.  1.
         11    1    4    4    0    0  0.25968263787E+02 -0.25318681776E+01 -0.41580500356E+02  0.49088685972E+02  0.00000000000E+00 0. -1.
</event>
<event>
 8    1  0.6443238E-009  0.1751491E+03  0.7561462E-02  0.1172582E+00
         -2   -1    0    0    0  501 -0.00000000000E+00  0.00000000000E+00  0.21011674407E+03  0.21011674407E+03  0.00000000000E+00 0.  1.
          2   -1    0    0  501    0  0.00000000000E+00 -0.00000000000E+00 -0.17248816450E+03  0.17248816450E+03  0.00000000000E+00 0. -1.
         25    2    1    2    0    0 -0.13259393904E+03  0.72922492503E+02  0.63853917775E+02  0.20645581298E+03  0.12509131591E+03 0.  0.
         23    2    1    2    0    0  0.13259393904E+03 -0.72922492503E+02 -0.26225338207E+02  0.17614909558E+03  0.86266406708E+02 0.  0.
          5    1    3    3  502    0 -0.11508074209E+03  0.85913873808E+01  0.21207337568E+01  0.11549614301E+03  0.41800000000E+01 0.  1.
         -5    1    3    3    0  502 -0.17513196950E+02  0.64331105122E+02  0.61733184018E+02  0.90959669979E+02  0.41800000000E+01 0.  1.
        -11    1    4    4    0    0  0.93492811210E+02 -0.85754856677E+02 -0.39559131694E+02  0.13288990214E+03  0.00000000000E+00 0. -1.
         11    1    4    4    0    0  0.39101127832E+02  0.12832364174E+02  0.13333793487E+02  0.43259193436E+02  0.00000000000E+00 0.  1.
</event>
<event>
 8    1  0.6443238E-009  0.1078171E+03  0.7561462E-02  0.1264667E+00
          1   -1    0    0  501    0  0.00000000000E+00  0.00000000000E+00  0.20110983126E+03  0.20110983126E+03  0.00000000000E+00 0. -1.
         -1   -1    0    0    0  501 -0.00000000000E+00 -0.00000000000E+00 -0.85027904194E+02  0.85027904194E+02  0.00000000000E+00 0.  1.
         25    2    1    2    0    0 -0.19237607869E+02  0.19905927705E+02  0.13734445431E+03  0.18782396132E+03  0.12509200535E+03 0.  0.
         23    2    1    2    0    0  0.19237607869E+02 -0.19905927705E+02 -0.21262527245E+02  0.98313774135E+02  0.91908495829E+02 0.  0.
          5    1    3    3  502    0 -0.46626937775E+02 -0.38094226662E+02  0.88372990336E+02  0.10701635040E+03  0.41800000000E+01 0. -1.
         -5    1    3    3    0  502  0.27389329906E+02  0.58000154367E+02  0.48971463973E+02  0.80807610922E+02  0.41800000000E+01 0. -1.
        -11    1    4    4    0    0 -0.88117991328E+01 -0.49469773913E+02 -0.27188326983E+02  0.57132402882E+02  0.00000000000E+00 0.  1.
         11    1    4    4    0    0  0.28049407001E+02  0.29563846208E+02  0.59257997382E+01  0.41181371253E+02  0.00000000000E+00 0. -1.
</event>
<event>
 8    1  0.6443238E-009  0.1243575E+03  0.7561462E-02  0.1236077E+00
          2   -1    0    0  501    0  0.00000000000E+00  0.00000000000E+00  0.45288960786E+03  0.45288960786E+03  0.00000000000E+00 0. -1.
         -2   -1    0    0    0  501 -0.00000000000E+00 -0.00000000000E+00 -0.40964831751E+02  0.40964831751E+02  0.00000000000E+00 0.  1.
         25    2    1    2    0    0 -0.22554214736E+02  0.80758025706E+02  0.27077959008E+03  0.30983923965E+03  0.12509283235E+03 0.  0.
         23    2    1    2    0    0  0.22554214736E+02 -0.80758025706E+02  0.14114518603E+03  0.18401519996E+03  0.83120869572E+02 0.  0.
          5    1    3    3  502    0 -0.69027453878E+02  0.31884637877E+02  0.18894423004E+03  0.20371257690E+03  0.41800000000E+01 0. -1.
         -5    1    3    3    0  502  0.46473239142E+02  0.48873387829E+02  0.81835360039E+02  0.10612666275E+03  0.41800000000E+01 0. -1.
        -11    1    4    4    0    0  0.41500069178E+02 -0.31147984170E+02  0.27847012728E+02  0.58888952932E+02  0.00000000000E+00 0.  1.
         11    1    4    4    0    0 -0.18945854441E+02 -0.49610041537E+02  0.11329817330E+03  0.12512624703E+03  0.00000000000E+00 0. -1.
</event>
<event>
 8    1  0.6443238E-009  0.1140000E+03  0.7561462E-02  0.1253337E+00
         -2   -1    0    0    0  501 -0.00000000000E+00  0.00000000000E+00  0.23869494852E+02  0.23869494852E+02  0.00000000000E+00 0.  1.
          2   -1    0    0  501    0  0.00000000000E+00 -0.00000000000E+00 -0.89444041636E+03  0.89444041636E+03  0.00000000000E+00 0. -1.
         25    2    1    2    0    0  0.99432888012E+02  0.23057256934E+02 -0.59041452582E+03  0.61209145750E+03  0.12509238076E+03 0.  0.
         23    2    1    2    0    0 -0.99432888012E+02 -0.23057256934E+02 -0.28015639569E+03  0.30621845371E+03  0.69739508428E+02 0.  0.
          5    1    3    3  502    0  0.10191097001E+03  0.13865070368E+02 -0.23536299501E+03  0.25688771439E+03  0.41800000000E+01 0. -1.
         -5    1    3    3    0  502 -0.24780820000E+01  0.91921865661E+01 -0.35505153081E+03  0.35520374311E+03  0.41800000000E+01 0. -1.
        -11    1    4    4    0    0  0.41528060654E+01 -0.92838074837E+01 -0.39584084995E+01  0.10913472292E+02  0.00000000000E+00 0.  1.
         11    1    4    4    0    0 -0.10358569408E+03 -0.13773449450E+02 -0.27619798719E+03  0.29530498142E+03  0.00000000000E+00 0. -1.
</event>
<event>
 8    1  0.6443238E-009  0.1310560E+03  0.7561462E-02  0.1225897E+00
         -2   -1    0    0    0  501 -0.00000000000E+00  0.00000000000E+00  0.63883606172E+02  0.63883606172E+02  0.00000000000E+00 0.  1.
          2   -1    0    0  501    0  0.00000000000E+00 -0.00000000000E+00 -0.47652591131E+03  0.47652591131E+03  0.00000000000E+00 0. -1.
         25    2    1    2    0    0 -0.10514551656E+03 -0.90697846306E+01 -0.35998342716E+03  0.39544182017E+03  0.12509326385E+03 0.  0.
         23    2    1    2    0    0  0.10514551656E+03  0.90697846306E+01 -0.52658877975E+02  0.14496769731E+03  0.84290184415E+02 0.  0.
          5    1    3    3  502    0 -0.46618678434E+02 -0.44274814494E+02 -0.29185659715E+03  0.29888343226E+03  0.41800000000E+01 0.  1.
         -5    1    3    3    0  502 -0.58526838125E+02  0.35205029864E+02 -0.68126830009E+02  0.96558387910E+02  0.41800000000E+01 0.  1.
        -11    1    4    4    0    0  0.24518050080E+02  0.36604451146E+02  0.13752677766E+01  0.44078475301E+02  0.00000000000E+00 0.  1.
         11    1    4    4    0    0  0.80627466479E+02 -0.27534666515E+02 -0.54034145752E+02  0.10088922201E+03  0.00000000000E+00 0. -1.
</event>
<event>
 8    1  0.6443238E-009  0.8050479E+02  0.7561462E-02  0.1327625E+00
          2   -1    0    0  501    0  0.00000000000E+00  0.00000000000E+00  0.89911145540E+03  0.89911145540E+03  0.00000000000E+00 0. -1.
         -2   -1    0    0    0  501 -0.00000000000E+00 -0.00000000000E+00 -0.15116133457E+02  0.15116133457E+02  0.00000000000E+00 0.  1.
         25    2    1    2    0    0  0.42563988379E+02  0.50518822256E+01  0.50576882523E+03  0.52276826927E+03  0.12508934473E+03 0.  0.
         23    2    1    2    0    0 -0.42563988379E+02 -0.50518822256E+01  0.37822649671E+03  0.39145931959E+03  0.91366850951E+02 0.  0.
          5    1    3    3  502    0  0.10494866068E+02 -0.20153094391E+02  0.46279673982E+03  0.46337305081E+03  0.41800000000E+01 0. -1.
         -5    1    3    3    0  502  0.32069122311E+02  0.25204976617E+02  0.42972085408E+02  0.59395218464E+02  0.41800000000E+01 0. -1.
        -11    1    4    4    0    0  0.18467840409E+02 -0.26424221605E+02  0.18254254770E+03  0.18536742523E+03  0.00000000000E+00 0. -1.
         11    1    4    4    0    0 -0.61031828788E+02  0.21372339380E+02  0.19568394902E+03  0.20609189435E+03  0.00000000000E+00 0.  1.
</event>
<event>
 8    1  0.6443238E-009  0.1077129E+03  0.7561462E-02  0.1264865E+00
         -1   -1    0    0    0  501 -0.00000000000E+00  0.00000000000E+00  0.11902749382E+03  0.11902749382E+03  0.00000000000E+00 0.  1.
          1   -1    0    0  501    0  0.00000000000E+00 -0.00000000000E+00 -0.15698293071E+03  0.15698293071E+03  0.00000000000E+00 0. -1.
         25    2    1    2    0    0 -0.56214025192E+02 -0.44590218154E+02  0.24756002972E+02  0.14631786153E+03  0.12509097783E+03 0.  0.
         23    2    1    2    0    0  0.56214025192E+02  0.44590218154E+02 -0.62711439855E+02  0.12969256300E+03  0.87972336711E+02 0.  0.
          5    1    3    3  502    0 -0.36843884490E+02  0.14431139419E+02  0.62073507003E+02  0.73731419903E+02  0.41800000000E+01 0.  1.
         -5    1    3    3    0  502 -0.19370140702E+02 -0.59021357573E+02 -0.37317504031E+02  0.72586441624E+02  0.41800000000E+01 0.  1.
        -11    1    4    4    0    0  0.78827284278E+02  0.44985751624E+02 -0.47526644115E+02  0.10245116152E+03  0.00000000000E+00 0.  1.
         11    1    4    4    0    0 -0.22613259085E+02 -0.39553346976E+00 -0.15184795740E+02  0.27241401484E+02  0.00000000000E+00 0. -1.
</event>
<event>
 7    1  0.6443238E-009  0.1146167E+03  0.7561462E-02  0.1252252E+00
          2   -1    0    0  501    0  0.00000000000E+00  0.00000000000E+00  0.70745352183E+03  0.70745352183E+03  0.00000000000E+00 0. -1.
         -2   -1    0    0    0  501 -0.00000000000E+00 -0.00000000000E+00 -0.23871188139E+02  0.23871188139E+02  0.00000000000E+00 0.  1.
         23    2    1    2    0    0  0.17799351183E+02 -0.65288568098E+02  0.28252580927E+03  0.30576266326E+03  0.95344424645E+02 0.  0.
          5    1    1    2  502    0  0.10697612717E+02 -0.35430704368E+02  0.11825613791E+03  0.12398290318E+03  0.41800000000E+01 0. -1.
         -5    1    1    2    0  502 -0.28496963900E+02  0.10071927247E+03  0.28280038652E+03  0.30157914353E+03  0.41800000000E+01 0. -1.
        -11    1    3    3    0    0  0.37655928843E+02 -0.38151215833E+02  0.25957154812E+03  0.26504881218E+03  0.00000000000E+00 0. -1.
         11    1    3    3    0    0 -0.19856577660E+02 -0.27137352265E+02  0.22954261154E+02  0.40713851076E+02  0.00000000000E+00 0.  1.
</event>
<event>
 8    1  0.6443238E-009  0.1056748E+03  0.7561462E-02  0.1268796E+00
          4   -1    0    0  501    0  0.00000000000E+00  0.00000000000E+00  0.33844408521E+03  0.33844408521E+03  0.00000000000E+00 0.  1.
         -4   -1    0    0    0  501 -0.00000000000E+00 -0.00000000000E+00 -0.36552285753E+02  0.36552285753E+02  0.00000000000E+00 0. -1.
         25    2    1    2    0    0 -0.27267754161E+01 -0.20004769814E+02  0.19959461957E+03  0.23641696641E+03  0.12508934298E+03 0.  0.
         23    2    1    2    0    0  0.27267754161E+01  0.20004769814E+02  0.10229717990E+03  0.13857940456E+03  0.91279308903E+02 0.  0.
          5    1    3    3  502    0 -0.10766996456E+02  0.50663862792E+02  0.11228792742E+03  0.12372876081E+03  0.41800000000E+01 0.  1.
         -5    1    3    3    0  502  0.80402210403E+01 -0.70668632606E+02  0.87306692142E+02  0.11268820560E+03  0.41800000000E+01 0.  1.
        -11    1    4    4    0    0  0.11112134543E+02  0.52970294352E+02  0.38964272513E+02  0.66689925404E+02  0.00000000000E+00 0. -1.
         11    1    4    4    0    0 -0.83853591265E+01 -0.32965524538E+02  0.63332907382E+02  0.71889479155E+02  0.00000000000E+00 0.  1.
</event>
<event>
 8    1  0.6443238E-009  0.1835507E+03  0.7561462E-02  0.1164410E+00
         -2   -1    0    0    0  501 -0.00000000000E+00  0.00000000000E+00  0.81391066235E+02  0.81391066235E+02  0.00000000000E+00 0.  1.
          2   -1    0    0  501    0  0.00000000000E+00 -0.00000000000E+00 -0.46183536506E+03  0.46183536506E+03  0.00000000000E+00 0. -1.
         25    2    1    2    0    0  0.71976193457E+01 -0.15758623005E+03 -0.16331587125E+03  0.25924259681E+03  0.12509766013E+03 0.  0.
         23    2    1    2    0    0 -0.71976193457E+01  0.15758623005E+03 -0.21712842757E+03  0.28398383449E+03  0.92826928026E+02 0.  0.
          5    1    3    3  502    0 -0.38494573316E+02 -0.13969494090E+03 -0.14916866281E+03  0.20800305539E+03  0.41800000000E+01 0. -1.
         -5    1    3    3    0  502  0.45692192662E+02 -0.17891289143E+02 -0.14147208447E+02  0.51239541414E+02  0.41800000000E+01 0. -1.
        -11    1    4    4    0    0 -0.31036645929E+02  0.30238383316E+02 -0.19136891077E+02  0.47369334133E+02  0.00000000000E+00 0.  1.
         11    1    4    4    0    0  0.23839026583E+02  0.12734784673E+03 -0.19799153649E+03  0.23661450036E+03  0.00000000000E+00 0. -1.
</event>
<event>
 8    1  0.6443238E-009  0.9757567E+02  0.7561462E-02  0.1285478E+00
          2   -1    0    0  501    0  0.00000000000E+00  0.00000000000E+00  0.12154567959E+03  0.12154567959E+03  0.00000000000E+00 0. -1.
         -2   -1    0    0    0  501 -0.00000000000E+00 -0.00000000000E+00 -0.15599771066E+03  0.15599771066E+03  0.00000000000E+00 0.  1.
         25    2    1    2    0    0  0.85611591067E+00 -0.34512153898E+02  0.58888145666E+02  0.14250424393E+03  0.12509126324E+03 0.  0.
         23    2    1    2    0    0 -0.85611591067E+00  0.34512153898E+02 -0.93340176735E+02  0.13503914632E+03  0.91276287966E+02 0.  0.
          5    1    3    3  502    0  0.52472491241E+02 -0.42385445835E+02  0.59615662825E+02  0.90118743942E+02  0.41800000000E+01 0. -1.
         -5    1    3    3    0  502 -0.51616375330E+02  0.78732919365E+01 -0.72751715912E+00  0.52385499991E+02  0.41800000000E+01 0. -1.
        -11    1    4    4    0    0  0.23048232921E+02 -0.96382253994E+01  0.42030149943E+01  0.25333412022E+02  0.00000000000E+00 0. -1.
         11    1    4    4    0    0 -0.23904348832E+02  0.44150379297E+02 -0.97543191730E+02  0.10970573430E+03  0.00000000000E+00 0.  1.
</event>
<event>
 8    1  0.6443238E-009  0.1255314E+03  0.7561462E-02  0.1234241E+00
          2   -1    0    0  501    0  0.00000000000E+00  0.00000000000E+00  0.15375136271E+04  0.15375136271E+04  0.00000000000E+00 0.  1.
         -2   -1    0    0    0  501 -0.00000000000E+00 -0.00000000000E+00 -0.12069681464E+02  0.12069681464E+02  0.00000000000E+00 0. -1.
         25    2    1    2    0    0 -0.33408019407E+02 -0.60515717117E+02  0.11205624833E+04  0.11296395575E+04  0.12508798074E+03 0.  0.
         23    2    1    2    0    0  0.33408019407E+02  0.60515717117E+02  0.40488146230E+03  0.41994375111E+03  0.87438594471E+02 0.  0.
          5    1    3    3  502    0  0.38118964572E+02  0.94418913704E+01  0.43704104068E+03  0.43882177295E+03  0.41800000000E+01 0.  1.
         -5    1    3    3    0  502 -0.71526983979E+02 -0.69957608487E+02  0.68352144266E+03  0.69081778452E+03  0.41800000000E+01 0.  1.
        -11    1    4    4    0    0 -0.27981562473E+02  0.35350204601E+02  0.15904784237E+03  0.16531430963E+03  0.00000000000E+00 0. -1.
         11    1    4    4    0    0  0.61389581880E+02  0.25165512516E+02  0.24583361993E+03  0.25462944149E+03  0.00000000000E+00 0.  1.
</event>
<event>
 8    1  0.6443238E-009  0.8735106E+02  0.7561462E-02  0.1309396E+00
         -1   -1    0    0    0  501 -0.00000000000E+00  0.00000000000E+00  0.72797574424E+02  0.72797574424E+02  0.00000000000E+00 0.  1.
          1   -1    0    0  501    0  0.00000000000E+00 -0.00000000000E+00 -0.16780478013E+03  0.16780478013E+03  0.00000000000E+00 0. -1.
         25    2    1    2    0    0 -0.15033056742E+02 -0.88250314436E+01 -0.36466725419E+02  0.13145835305E+03  0.12509037752E+03 0.  0.
         23    2    1    2    0    0  0.15033056742E+02  0.88250314436E+01 -0.58540480287E+02  0.10914400150E+03  0.90451927879E+02 0.  0.
          5    1    3    3  502    0 -0.28103889428E+02 -0.40049651665E+02 -0.68756536680E+02  0.84491046482E+02  0.41800000000E+01 0.  1.
         -5    1    3    3    0  502  0.13070832686E+02  0.31224620221E+02  0.32289811261E+02  0.46967306569E+02  0.41800000000E+01 0.  1.
        -11    1    4    4    0    0 -0.32382818653E+02  0.25510600980E+02 -0.32737894060E+02  0.52642258820E+02  0.00000000000E+00 0. -1.
         11    1    4    4    0    0  0.47415875395E+02 -0.16685569536E+02 -0.25802586227E+02  0.56501742683E+02  0.00000000000E+00 0.  1.
</event>
<event>
 8    1  0.6443238E-009  0.1098282E+03  0.7561462E-02  0.1260888E+00
          1   -1    0    0  501    0  0.00000000000E+00  0.00000000000E+00  0.67230427576E+03  0.67230427576E+03  0.00000000000E+00 0. -1.
         -1   -1    0    0    0  501 -0.00000000000E+00 -0.00000000000E+00 -0.33001479150E+02  0.33001479150E+02  0.00000000000E+00 0.  1.
         25    2    1    2    0    0 -0.69738850327E+01 -0.79708946423E+02  0.50182162881E+03  0.52333137473E+03  0.12509448196E+03 0.  0.
         23    2    1    2    0    0  0.69738850327E+01  0.79708946423E+02  0.13748116780E+03  0.18197438018E+03  0.88382420943E+02 0.  0.
          5    1    3    3  502    0  0.26627500256E+02 -0.13086099145E+02  0.37450196317E+03  0.37569863265E+03  0.41800000000E+01 0.  1.
         -5    1    3    3    0  502 -0.33601385289E+02 -0.66622847278E+02  0.12731966565E+03  0.14763274208E+03  0.41800000000E+01 0.  1.
        -11    1    4    4    0    0  0.44110359702E+02  0.54322243050E+02  0.10620598945E+03  0.12718624972E+03  0.00000000000E+00 0. -1.
         11    1    4    4    0    0 -0.37136474669E+02  0.25386703373E+02  0.31275178353E+02  0.54788130466E+02  0.00000000000E+00 0.  1.
</event>
<event>
 8    1  0.6443238E-009  0.9850056E+02  0.7561462E-02  0.1283481E+00
         -2   -1    0    0    0  501 -0.00000000000E+00  0.00000000000E+00  0.44783234865E+02  0.44783234865E+02  0.00000000000E+00 0.  1.
          2   -1    0    0  501    0  0.00000000000E+00 -0.00000000000E+00 -0.31813972131E+03  0.31813972131E+03  0.00000000000E+00 0. -1.
         25    2    1    2    0    0  0.23477819313E+02 -0.46044584857E+02 -0.16208095135E+03  0.21116083319E+03  0.12508937161E+03 0.  0.
         23    2    1    2    0    0 -0.23477819313E+02  0.46044584857E+02 -0.11127553509E+03  0.15176212298E+03  0.89320688904E+02 0.  0.
          5    1    3    3  502    0  0.11989946696E+02 -0.82472290612E+02 -0.14862734468E+03  0.17044939873E+03  0.41800000000E+01 0.  1.
         -5    1    3    3    0  502  0.11487872617E+02  0.36427705754E+02 -0.13453606670E+02  0.40711434465E+02  0.41800000000E+01 0.  1.
        -11    1    4    4    0    0  0.69830977626E+01 -0.94962231941E+01  0.96605745293E+01  0.15240361201E+02  0.00000000000E+00 0.  1.
         11    1    4    4    0    0 -0.30460917076E+02  0.55540808051E+02 -0.12093610962E+03  0.13652176178E+03  0.00000000000E+00 0. -1.
</event>
<event>
 8    1  0.6443238E-009  0.9769078E+02  0.7561462E-02  0.1285228E+00
          1   -1    0    0  501    0  0.00000000000E+00  0.00000000000E+00  0.58161747351E+03  0.58161747351E+03  0.00000000000E+00 0. -1.
         -1   -1    0    0    0  501 -0.00000000000E+00 -0.00000000000E+00 -0.27836203258E+02  0.27836203258E+02  0.00000000000E+00 0.  1.
         25    2    1    2    0    0  0.65102367375E+02 -0.47901428566E+01  0.33561882117E+03  0.36407145296E+03  0.12508703383E+03 0.  0.
         23    2    1    2    0    0 -0.65102367375E+02  0.47901428566E+01  0.21816244909E+03  0.24538222381E+03  0.91412897688E+02 0.  0.
          5    1    3    3  502    0  0.50667954176E+02 -0.56515512284E+02  0.12182638865E+03  0.14359800166E+03  0.41800000000E+01 0. -1.
         -5    1    3    3    0  502  0.14434413199E+02  0.51725369427E+02  0.21379243252E+03  0.22047345130E+03  0.41800000000E+01 0. -1.
        -11    1    4    4    0    0 -0.17841958396E+02 -0.10877743666E+01 -0.38787490592E+01  0.18291075057E+02  0.00000000000E+00 0.  1.
         11    1    4    4    0    0 -0.47260408979E+02  0.58779172232E+01  0.22204119815E+03  0.22709114875E+03  0.00000000000E+00 0. -1.
</event>
<event>
 8    1  0.6443238E-009  0.1040519E+03  0.7561462E-02  0.1271999E+00
         -2   -1    0    0    0  501 -0.00000000000E+00  0.00000000000E+00  0.83096263865E+02  0.83096263865E+02  0.00000000000E+00 0.  1.
          2   -1    0    0  501    0  0.00000000000E+00 -0.00000000000E+00 -0.18466939676E+03  0.18466939676E+03  0.00000000000E+00 0. -1.
         25    2    1    2    0    0  0.51764929357E+02 -0.28750860964E+02 -0.43740481070E+02  0.14514465991E+03  0.12509005835E+03 0.  0.
         23    2    1    2    0    0 -0.51764929357E+02  0.28750860964E+02 -0.57832651820E+02  0.12262100071E+03  0.90471400347E+02 0.  0.
          5    1    3    3  502    0 -0.27344586519E+02  0.85289728547E+00 -0.53278801452E+02  0.60037962406E+02  0.41800000000E+01 0. -1.
         -5    1    3    3    0  502  0.79109515876E+02 -0.29603758249E+02  0.95383203822E+01  0.85106697505E+02  0.41800000000E+01 0. -1.
        -11    1    4    4    0    0  0.83269163629E+00 -0.22443680630E+02 -0.41859814144E+02  0.47504275763E+02  0.00000000000E+00 0. -1.
         11    1    4    4    0    0 -0.52597620993E+02  0.51194541594E+02 -0.15972837676E+02  0.75116724946E+02  0.00000000000E+00 0.  1.
</event>
<event>
 8    1  0.6443238E-009  0.9819424E+02  0.7561462E-02  0.1284140E+00
         -3   -1    0    0    0  501 -0.00000000000E+00  0.00000000000E+00  0.13216268227E+03  0.13216268227E+03  0.00000000000E+00 0.  1.
          3   -1    0    0  501    0  0.00000000000E+00 -0.00000000000E+00 -0.13929152532E+03  0.13929152532E+03  0.00000000000E+00 0. -1.
         25    2    1    2    0    0 -0.55420644971E+02  0.80062565622E+01  0.46014179244E+02  0.14457067653E+03  0.12509127783E+03 0.  0.
         23    2    1    2    0    0  0.55420644971E+02 -0.80062565622E+01 -0.53143022299E+02  0.12688353106E+03  0.10069608533E+03 0.  0.
          5    1    3    3  502    0  0.21697111936E+02  0.36487822663E+02  0.45340728921E+02  0.62252549893E+02  0.41800000000E+01 0.  1.
         -5    1    3    3    0  502 -0.77117756907E+02 -0.28481566101E+02  0.67345032340E+00  0.82318126638E+02  0.41800000000E+01 0.  1.
        -11    1    4    4    0    0  0.15014329107E+02  0.17942227559E+02  0.25582981208E+02  0.34667600664E+02  0.00000000000E+00 0.  1.
         11    1    4    4    0    0  0.40406315863E+02 -0.25948484121E+02 -0.78726003507E+02  0.92215930392E+02  0.00000000000E+00 0. -1.
</event>
<event>
 8    1  0.6443238E-009  0.1382824E+03  0.7561462E-02  0.1215659E+00
         -2   -1    0    0    0  501 -0.00000000000E+00  0.00000000000E+00  0.30371756163E+02  0.30371756163E+02  0.00000000000E+00 0. -1.
          2   -1    0    0  501    0  0.00000000000E+00 -0.00000000000E+00 -0.72753791618E+03  0.72753791618E+03  0.00000000000E+00 0.  1.
         25    2    1    2    0    0 -0.34292088465E+02 -0.94627464633E+02 -0.40916519889E+03  0.43952927578E+03  0.12505806607E+03 0.  0.
         23    2    1    2    0    0  0.34292088465E+02  0.94627464633E+02 -0.28800096112E+03  0.31838039656E+03  0.91056130562E+02 0.  0.
          5    1    3    3  502    0 -0.16556779486E+02  0.21319539150E+02 -0.22332089101E+02  0.35282351114E+02  0.41800000000E+01 0. -1.
         -5    1    3    3    0  502 -0.17735308979E+02 -0.11594700378E+03 -0.38683310979E+03  0.40424692467E+03  0.41800000000E+01 0. -1.
        -11    1    4    4    0    0  0.47424750608E+02  0.12961179386E+02 -0.14587416379E+03  0.15393625565E+03  0.00000000000E+00 0.  1.
         11    1    4    4    0    0 -0.13132662143E+02  0.81666285247E+02 -0.14212679733E+03  0.16444414092E+03  0.00000000000E+00 0. -1.
</event>
<event>
 8    1  0.6443238E-009  0.1722252E+03  0.7561462E-02  0.1175547E+00
         -1   -1    0    0    0  501 -0.00000000000E+00  0.00000000000E+00  0.25240498086E+02  0.25240498086E+02  0.00000000000E+00 0.  1.
          1   -1    0    0  501    0  0.00000000000E+00 -0.00000000000E+00 -0.13608298293E+04  0.13608298293E+04  0.00000000000E+00 0. -1.
         25    2    1    2    0    0 -0.14459600148E+03 -0.18679865163E+02 -0.83907478796E+03  0.86078454471E+03  0.12508633666E+03 0.  0.
         23    2    1    2    0    0  0.14459600148E+03  0.18679865163E+02 -0.49651454323E+03  0.52528578266E+03  0.90230376316E+02 0.  0.
          5    1    3    3  502    0 -0.48501071760E+01 -0.37988898620E+02 -0.81139384355E+02  0.89820666060E+02  0.41800000000E+01 0.  1.
         -5    1    3    3    0  502 -0.13974589430E+03  0.19309033457E+02 -0.75793540361E+03  0.77096387865E+03  0.41800000000E+01 0.  1.
        -11    1    4    4    0    0  0.85261999674E+02 -0.27517348742E+02 -0.34057336747E+03  0.35216051979E+03  0.00000000000E+00 0. -1.
         11    1    4    4    0    0  0.59334001804E+02  0.46197213905E+02 -0.15594117577E+03  0.17312526287E+03  0.00000000000E+00 0.  1.
</event>
<event>
 8    1  0.6443238E-009  0.1419655E+03  0.7561462E-02  0.1210708E+00
          2   -1    0    0  501    0  0.00000000000E+00  0.00000000000E+00  0.22399651505E+04  0.22399651505E+04  0.00000000000E+00 0. -1.
         -2   -1    0    0    0  501 -0.00000000000E+00 -0.00000000000E+00 -0.14268388212E+02  0.14268388212E+02  0.00000000000E+00 0.  1.
         25    2    1    2    0    0 -0.84804565090E+02 -0.62099386585E+02  0.17805533833E+04  0.17880342039E+04  0.12509122939E+03 0.  0.
         23    2    1    2    0    0  0.84804565090E+02  0.62099386585E+02  0.44514337905E+03  0.46619933482E+03  0.90227732965E+02 0.  0.
          5    1    3    3  502    0 -0.28877915089E+02  0.29634848543E+02  0.22798393680E+03  0.23174621047E+03  0.41800000000E+01 0. -1.
         -5    1    3    3    0  502 -0.55926650001E+02 -0.91734235128E+02  0.15525694465E+04  0.15562879935E+04  0.41800000000E+01 0. -1.
        -11    1    4    4    0    0  0.87209070018E+02  0.16004866420E+02  0.33999418113E+03  0.35136536660E+03  0.00000000000E+00 0. -1.
         11    1    4    4    0    0 -0.24045049284E+01  0.46094520165E+02  0.10514919792E+03  0.11483396821E+03  0.00000000000E+00 0.  1.
</event>
<event>
 8    1  0.6443238E-009  0.1209573E+03  0.7561462E-02  0.1241526E+00
         -1   -1    0    0    0  501 -0.00000000000E+00  0.00000000000E+00  0.18447037553E+03  0.18447037553E+03  0.00000000000E+00 0.  1.
          1   -1    0    0  501    0  0.00000000000E+00 -0.00000000000E+00 -0.10523474727E+03  0.10523474727E+03  0.00000000000E+00 0. -1.
         25    2    1    2    0    0 -0.85407261874E+02 -0.20795771971E+02  0.28593763215E+02  0.15553853659E+03  0.12509104107E+03 0.  0.
         23    2    1    2    0    0  0.85407261874E+02  0.20795771971E+02  0.50641865045E+02  0.13416658621E+03  0.87802106174E+02 0.  0.
          5    1    3    3  502    0 -0.11141424401E+03  0.21371661478E+01  0.18134533752E+01  0.11152785419E+03  0.41800000000E+01 0.  1.
         -5    1    3    3    0  502  0.26006982133E+02 -0.22932938118E+02  0.26780309840E+02  0.44010682402E+02  0.41800000000E+01 0.  1.
        -11    1    4    4    0    0  0.44995633330E+02  0.29935949484E+02  0.69999894401E+02  0.88435023075E+02  0.00000000000E+00 0.  1.
         11    1    4    4    0    0  0.40411628544E+02 -0.91401775130E+01 -0.19358029356E+02  0.45731563139E+02  0.00000000000E+00 0. -1.
</event>
<event>
 8    1  0.6443238E-009  0.9367749E+02  0.7561462E-02  0.1294183E+00
         -1   -1    0    0    0  501 -0.00000000000E+00  0.00000000000E+00  0.34132613162E+02  0.34132613162E+02  0.00000000000E+00 0.  1.
          1   -1    0    0  501    0  0.00000000000E+00 -0.00000000000E+00 -0.35189076852E+03  0.35189076852E+03  0.00000000000E+00 0. -1.
         25    2    1    2    0    0  0.35184407188E+01 -0.10758754447E+02 -0.20192918078E+03  0.23780342038E+03  0.12508773909E+03 0.  0.
         23    2    1    2    0    0 -0.35184407188E+01  0.10758754447E+02 -0.11582897458E+03  0.14821996130E+03  0.91786030276E+02 0.  0.
          5    1    3    3  502    0 -0.56135806140E+02 -0.14130764288E+01 -0.14142165442E+03  0.15221951996E+03  0.41800000000E+01 0.  1.
         -5    1    3    3    0  502  0.59654246859E+02 -0.93456780187E+01 -0.60507526357E+02  0.85583900424E+02  0.41800000000E+01 0.  1.
        -11    1    4    4    0    0 -0.29774248635E+02 -0.15344821106E+02 -0.10414073424E+03  0.10939498135E+03  0.00000000000E+00 0. -1.
         11    1    4    4    0    0  0.26255807916E+02  0.26103575554E+02 -0.11688240338E+02  0.38824979951E+02  0.00000000000E+00 0.  1.
</event>
<event>
 8    1  0.6443238E-009  0.1218618E+03  0.7561462E-02  0.1240057E+00
          1   -1    0    0  501    0  0.00000000000E+00  0.00000000000E+00  0.36690988205E+03  0.36690988205E+03  0.00000000000E+00 0. -1.
         -1   -1    0    0    0  501 -0.00000000000E+00 -0.00000000000E+00 -0.48040512623E+02  0.48040512623E+02  0.00000000000E+00 0.  1.
         25    2    1    2    0    0  0.59390047863E+02  0.24769936153E+02  0.11106832141E+03  0.17923323819E+03  0.12509058370E+03 0.  0.
         23    2    1    2    0    0 -0.59390047863E+02 -0.24769936153E+02  0.20780104802E+03  0.23571715648E+03  0.90777611675E+02 0.  0.
          5    1    3    3  502    0 -0.16501512760E+02  0.54917668661E+02  0.58508280666E+02  0.82030125935E+02  0.41800000000E+01 0. -1.
         -5    1    3    3    0  502  0.75891560624E+02 -0.30147732508E+02  0.52560040747E+02  0.97203112258E+02  0.41800000000E+01 0. -1.
        -11    1    4    4    0    0 -0.79862531946E+02 -0.25900041403E+02  0.19287542188E+03  0.21035627996E+03  0.00000000000E+00 0. -1.
         11    1    4    4    0    0  0.20472484082E+02  0.11301052502E+01  0.14925626134E+02  0.25360876520E+02  0.00000000000E+00 0.  1.
</event>
<event>
 8    1  0.6443238E-009  0.1020834E+03  0.7561462E-02  0.1275975E+00
         -2   -1    0    0    0  501 -0.00000000000E+00  0.00000000000E+00  0.90607022732E+02  0.90607022732E+02  0.00000000000E+00 0.  1.
          2   -1    0    0  501    0  0.00000000000E+00 -0.00000000000E+00 -0.22772554933E+03  0.22772554933E+03  0.00000000000E+00 0. -1.
         25    2    1    2    0    0 -0.34224627591E+02 -0.48249944671E+02 -0.15407504103E+03  0.20708969239E+03  0.12509052774E+03 0.  0.
         23    2    1    2    0    0  0.34224627591E+02  0.48249944671E+02  0.16956514435E+02  0.11124287967E+03  0.92671854418E+02 0.  0.
          5    1    3    3  502    0  0.26455291306E+02 -0.67625726225E+02 -0.65311502379E+02  0.97755746780E+02  0.41800000000E+01 0. -1.
         -5    1    3    3    0  502 -0.60679918897E+02  0.19375781554E+02 -0.88763538652E+02  0.10933394561E+03  0.41800000000E+01 0. -1.
        -11    1    4    4    0    0  0.14208572746E+02 -0.11887092085E+01  0.47627674164E+02  0.49716113236E+02  0.00000000000E+00 0.  1.
         11    1    4    4    0    0  0.20016054846E+02  0.49438653879E+02 -0.30671159728E+02  0.61526766436E+02  0.00000000000E+00 0. -1.
</event>
<event>
 8    1  0.6443238E-009  0.5941195E+02  0.7561462E-02  0.1400316E+00
          1   -1    0    0  501    0  0.00000000000E+00  0.00000000000E+00  0.13997993571E+03  0.13997993571E+03  0.00000000000E+00 0. -1.
         -1   -1    0    0    0  501 -0.00000000000E+00 -0.00000000000E+00 -0.12063417099E+03  0.12063417099E+03  0.00000000000E+00 0.  1.
         25    2    1    2    0    0 -0.45162394183E+02  0.13944812788E+02 -0.55685466646E+02  0.14485469211E+03  0.12509161034E+03 0.  0.
         23    2    1    2    0    0  0.45162394183E+02 -0.13944812788E+02  0.75031231374E+02  0.11575941459E+03  0.74407370149E+02 0.  0.
          5    1    3    3  502    0 -0.31024906183E+02  0.25052347257E+02 -0.94072219387E+02  0.10226054844E+03  0.41800000000E+01 0.  1.
         -5    1    3    3    0  502 -0.14137488000E+02 -0.11107534469E+02  0.38386752741E+02  0.42594143670E+02  0.41800000000E+01 0.  1.
        -11    1    4    4    0    0  0.11543224714E+02  0.12854262847E+02  0.70432781011E+02  0.72520719461E+02  0.00000000000E+00 0. -1.
         11    1    4    4    0    0  0.33619169469E+02 -0.26799075635E+02  0.45984503625E+01  0.43238695128E+02  0.00000000000E+00 0.  1.
</event>
<event>
 8    1  0.6443238E-009  0.9579521E+02  0.7561462E-02  0.1289395E+00
          1   -1    0    0  501    0  0.00000000000E+00  0.00000000000E+00  0.84359720799E+03  0.84359720799E+03  0.00000000000E+00 0. -1.
         -1   -1    0    0    0  501 -0.00000000000E+00 -0.00000000000E+00 -0.15352434578E+02  0.15352434578E+02  0.00000000000E+00 0.  1.
         25    2    1    2    0    0 -0.31994404326E+02 -0.18445105699E+02  0.46487853646E+03  0.48282836460E+03  0.12508921686E+03 0.  0.
         23    2    1    2    0    0  0.31994404326E+02  0.18445105699E+02  0.36336623696E+03  0.37612127797E+03  0.89823881824E+02 0.  0.
          5    1    3    3  502    0  0.59115144595E+01  0.33524155789E+02  0.34515327632E+03  0.34685309798E+03  0.41800000000E+01 0. -1.
         -5    1    3    3    0  502 -0.37905918785E+02 -0.51969261488E+02  0.11972526014E+03  0.13597526663E+03  0.41800000000E+01 0. -1.
        -11    1    4    4    0    0 -0.29284565673E+02  0.18308587741E+01  0.17234389391E+03  0.17482378442E+03  0.00000000000E+00 0. -1.
         11    1    4    4    0    0  0.61278969999E+02  0.16614246925E+02  0.19102234304E+03  0.20129749354E+03  0.00000000000E+00 0.  1.
</event>
<event>
 8    1  0.6443238E-009  0.9216922E+02  0.7561462E-02  0.1297682E+00
          1   -1    0    0  501    0  0.00000000000E+00  0.00000000000E+00  0.21740219924E+03  0.21740219924E+03  0.00000000000E+00 0. -1.
         -1   -1    0    0    0  501 -0.00000000000E+00 -0.00000000000E+00 -0.60170705665E+02  0.60170705665E+02  0.00000000000E+00 0.  1.
         25    2    1    2    0    0 -0.29421339838E+02  0.12473258864E+02  0.10884152674E+03  0.16886313864E+03  0.12508830571E+03 0.  0.
         23    2    1    2    0    0  0.29421339838E+02 -0.12473258864E+02  0.48389966842E+02  0.10870976627E+03  0.91951220584E+02 0.  0.
          5    1    3    3  502    0 -0.19390381372E+02  0.57267946105E+02  0.10671034102E+03  0.12271989986E+03  0.41800000000E+01 0. -1.
         -5    1    3    3    0  502 -0.10030958466E+02 -0.44794687241E+02  0.21311857196E+01  0.46143238783E+02  0.41800000000E+01 0. -1.
        -11    1    4    4    0    0 -0.76038779115E+01  0.24295728361E+02 -0.12632097889E+02  0.28419557931E+02  0.00000000000E+00 0.  1.
         11    1    4    4    0    0  0.37025217749E+02 -0.36768987225E+02  0.61022064732E+02  0.80290208338E+02  0.00000000000E+00 0. -1.
</event>
<event>
 8    1  0.6443238E-009  0.5484693E+02  0.7561462E-02  0.1420824E+00
          1   -1    0    0  501    0  0.00000000000E+00  0.00000000000E+00  0.12189148758E+03  0.12189148758E+03  0.00000000000E+00 0. -1.
         -1   -1    0    0    0  501 -0.00000000000E+00 -0.00000000000E+00 -0.96017125513E+02  0.96017125513E+02  0.00000000000E+00 0.  1.
         25    2    1    2    0    0 -0.64301787874E+01 -0.10657628820E+02  0.19140987893E+02  0.12715558361E+03  0.12508889949E+03 0.  0.
         23    2    1    2    0    0  0.64301787874E+01  0.10657628820E+02  0.67333741707E+01  0.90753029476E+02  0.89642856827E+02 0.  0.
          5    1    3    3  502    0 -0.67708744994E+01 -0.33993582985E+02  0.65985663230E+02  0.74652451919E+02  0.41800000000E+01 0.  1.
         -5    1    3    3    0  502  0.34069571197E+00  0.23335954166E+02 -0.46844675336E+02  0.52503131695E+02  0.41800000000E+01 0.  1.
        -11    1    4    4    0    0  0.21759763278E+02  0.22798936284E+02  0.40750380661E+02  0.51515748248E+02  0.00000000000E+00 0. -1.
         11    1    4    4    0    0 -0.15329584490E+02 -0.12141307464E+02 -0.34017006490E+02  0.39237281228E+02  0.00000000000E+00 0.  1.
</event>
<event>
 8    1  0.6443238E-009  0.1183802E+03  0.7561462E-02  0.1245793E+00
          2   -1    0    0  501    0  0.00000000000E+00  0.00000000000E+00  0.62040712833E+03  0.62040712833E+03  0.00000000000E+00 0. -1.
         -2   -1    0    0    0  501 -0.00000000000E+00 -0.00000000000E+00 -0.38858012983E+02  0.38858012983E+02  0.00000000000E+00 0.  1.
         25    2    1    2    0    0 -0.60398800331E+02  0.64058903416E+02  0.45590316894E+03  0.48088133538E+03  0.12509037164E+03 0.  0.
         23    2    1    2    0    0  0.60398800331E+02 -0.64058903416E+02  0.12564594641E+03  0.17838380594E+03  0.91007253464E+02 0.  0.
          5    1    3    3  502    0 -0.79484594431E+02  0.86445930523E+02  0.30041038039E+03  0.32257490401E+03  0.41800000000E+01 0.  1.
         -5    1    3    3    0  502  0.19085794100E+02 -0.22387027107E+02  0.15549278855E+03  0.15830643136E+03  0.41800000000E+01 0.  1.
        -11    1    4    4    0    0  0.50642034814E+01 -0.14120834026E+02 -0.13725314699E+02  0.20332938157E+02  0.00000000000E+00 0.  1.
         11    1    4    4    0    0  0.55334596849E+02 -0.49938069389E+02  0.13937126111E+03  0.15805086778E+03  0.00000000000E+00 0. -1.
</event>
<event>
 8    1  0.6443238E-009  0.1747581E+03  0.7561462E-02  0.1172975E+00
         -1   -1    0    0    0  501 -0.00000000000E+00  0.00000000000E+00  0.49044953402E+03  0.49044953402E+03  0.00000000000E+00 0.  1.
          1   -1    0    0  501    0  0.00000000000E+00 -0.00000000000E+00 -0.76132952528E+02  0.76132952528E+02  0.00000000000E+00 0. -1.
         25    2    1    2    0    0 -0.14063205419E+03  0.66107071322E+02  0.17809471711E+03  0.26743245535E+03  0.12511942444E+03 0.  0.
         23    2    1    2    0    0  0.14063205419E+03 -0.66107071322E+02  0.23622186438E+03  0.29915003119E+03  0.97685476940E+02 0.  0.
          5    1    3    3  502    0 -0.14749593786E+03  0.86670150266E+02  0.17563515103E+03  0.24521815861E+03  0.41800000000E+01 0.  1.
         -5    1    3    3    0  502  0.68638836730E+01 -0.20563078943E+02  0.24595660765E+01  0.22214296748E+02  0.41800000000E+01 0.  1.
        -11    1    4    4    0    0  0.10055921873E+03 -0.55504240595E+02  0.23019840945E+03  0.25726287122E+03  0.00000000000E+00 0.  1.
         11    1    4    4    0    0  0.40072835457E+02 -0.10602830727E+02  0.60234549333E+01  0.41887159970E+02  0.00000000000E+00 0. -1.
</event>
<event>
 8    1  0.6443238E-009  0.1223422E+03  0.7561462E-02  0.1239282E+00
          2   -1    0    0  501    0  0.00000000000E+00  0.00000000000E+00  0.43451056860E+03  0.43451056860E+03  0.00000000000E+00 0. -1.
         -2   -1    0    0    0  501 -0.00000000000E+00 -0.00000000000E+00 -0.63488861395E+02  0.63488861395E+02  0.00000000000E+00 0.  1.
         25    2    1    2    0    0  0.11058199270E+03 -0.50946708982E+02  0.16696563163E+03  0.24156175253E+03  0.12510241354E+03 0.  0.
         23    2    1    2    0    0 -0.11058199270E+03  0.50946708982E+02  0.20405607557E+03  0.25643767746E+03  0.96423317607E+02 0.  0.
          5    1    3    3  502    0  0.22606884274E+02 -0.79074198850E+01  0.13687800770E+03  0.13902035785E+03  0.41800000000E+01 0.  1.
         -5    1    3    3    0  502  0.87975108428E+02 -0.43039289097E+02  0.30087623932E+02  0.10254139468E+03  0.41800000000E+01 0.  1.
        -11    1    4    4    0    0 -0.31431922238E+02  0.20575373368E+02  0.15284391465E+03  0.15739305566E+03  0.00000000000E+00 0. -1.
         11    1    4    4    0    0 -0.79150070463E+02  0.30371335615E+02  0.51212160923E+02  0.99044621801E+02  0.00000000000E+00 0.  1.
</event>
<event>
 8    1  0.6443238E-009  0.7846042E+02  0.7561462E-02  0.1333478E+00
         -2   -1    0    0    0  501 -0.00000000000E+00  0.00000000000E+00  0.76871999321E+03  0.76871999321E+03  0.00000000000E+00 0. -1.
          2   -1    0    0  501    0  0.00000000000E+00 -0.00000000000E+00 -0.20659056220E+02  0.20659056220E+02  0.00000000000E+00 0.  1.
         25    2    1    2    0    0 -0.43955994277E+02  0.22069366548E+02  0.57695920062E+03  0.59240909269E+03  0.12508967804E+03 0.  0.
         23    2    1    2    0    0  0.43955994277E+02 -0.22069366548E+02  0.17110173637E+03  0.19696995673E+03  0.84274392883E+02 0.  0.
          5    1    3    3  502    0 -0.42034841398E+01  0.41647538894E+02  0.58565171512E+02  0.72107825436E+02  0.41800000000E+01 0. -1.
         -5    1    3    3    0  502 -0.39752510138E+02 -0.19578172345E+02  0.51839402911E+03  0.52030126726E+03  0.41800000000E+01 0. -1.
        -11    1    4    4    0    0 -0.99219414783E+01  0.37406437384E+01 -0.44739759740E+01  0.11508857428E+02  0.00000000000E+00 0.  1.
         11    1    4    4    0    0  0.53877935756E+02 -0.25810010287E+02  0.17557571234E+03  0.18546109931E+03  0.00000000000E+00 0. -1.
</event>
<event>
 8    1  0.6443238E-009  0.8310136E+02  0.7561462E-02  0.1320474E+00
         -2   -1    0    0    0  501 -0.00000000000E+00  0.00000000000E+00  0.17171977042E+02  0.17171977042E+02  0.00000000000E+00 0.  1.
          2   -1    0    0  501    0  0.00000000000E+00 -0.00000000000E+00 -0.96741773691E+03  0.96741773691E+03  0.00000000000E+00 0. -1.
         25    2    1    2    0    0 -0.68532408062E+01 -0.70323035090E+01 -0.79948046506E+03  0.80926694374E+03  0.12509017555E+03 0.  0.
         23    2    1    2    0    0  0.68532408062E+01  0.70323035090E+01 -0.15076529481E+03  0.17532277022E+03  0.88946497592E+02 0.  0.
          5    1    3    3  502    0  0.13711872822E+02 -0.61497741719E+02 -0.51526377016E+03  0.51911868868E+03  0.41800000000E+01 0. -1.
         -5    1    3    3    0  502 -0.20565113628E+02  0.54465438209E+02 -0.28421669489E+03  0.29014825506E+03  0.41800000000E+01 0. -1.
        -11    1    4    4    0    0 -0.84822891341E+01 -0.15360680855E+02  0.41638143824E+01  0.18034331024E+02  0.00000000000E+00 0.  1.
         11    1    4    4    0    0  0.15335529940E+02  0.22392984364E+02 -0.15492910920E+03  0.15728843919E+03  0.00000000000E+00 0. -1.
</event>
<event>
 8    1  0.6443238E-009  0.8500194E+02  0.7561462E-02  0.1315427E+00
          3   -1    0    0  501    0  0.00000000000E+00  0.00000000000E+00  0.27696601438E+03  0.27696601438E+03  0.00000000000E+00 0. -1.
         -3   -1    0    0    0  501 -0.00000000000E+00 -0.00000000000E+00 -0.52801708012E+02  0.52801708012E+02  0.00000000000E+00 0.  1.
         25    2    1    2    0    0 -0.43138506765E+02  0.31588257010E+02  0.13881659768E+03  0.19436210362E+03  0.12509128980E+03 0.  0.
         23    2    1    2    0    0  0.43138506765E+02 -0.31588257010E+02  0.85347708682E+02  0.13540561877E+03  0.90508018816E+02 0.  0.
          5    1    3    3  502    0  0.14201893558E+02 -0.14435239368E+02  0.11517391846E+03  0.11701527170E+03  0.41800000000E+01 0. -1.
         -5    1    3    3    0  502 -0.57340400323E+02  0.46023496378E+02  0.23642679221E+02  0.77346831924E+02  0.41800000000E+01 0. -1.
        -11    1    4    4    0    0 -0.10547754725E+02  0.39895744708E+01  0.67691396839E+02  0.68624318140E+02  0.00000000000E+00 0. -1.
         11    1    4    4    0    0  0.53686261491E+02 -0.35577831481E+02  0.17656311843E+02  0.66781300628E+02  0.00000000000E+00 0.  1.
</event>
<event>
 8    1  0.6443238E-009  0.9958891E+02  0.7561462E-02  0.1281163E+00
          1   -1    0    0  501    0  0.00000000000E+00  0.00000000000E+00  0.32690848317E+03  0.32690848317E+03  0.00000000000E+00 0. -1.
         -1   -1    0    0    0  501 -0.00000000000E+00 -0.00000000000E+00 -0.59170025783E+02  0.59170025783E+02  0.00000000000E+00 0.  1.
         25    2    1    2    0    0 -0.20714181508E+01 -0.52113497869E+02  0.24049375908E+03  0.27606636193E+03  0.12512106378E+03 0.  0.
         23    2    1    2    0    0  0.20714181508E+01  0.52113497869E+02  0.27244698312E+02  0.11001214702E+03  0.92953168174E+02 0.  0.
          5    1    3    3  502    0 -0.57386239118E+02 -0.53475461064E+02  0.16075798066E+03  0.17892290552E+03  0.41800000000E+01 0.  1.
         -5    1    3    3    0  502  0.55314820968E+02  0.13619631956E+01  0.79735778419E+02  0.97143456406E+02  0.41800000000E+01 0.  1.
        -11    1    4    4    0    0 -0.13916631675E+02  0.45935446606E+02 -0.25641939452E+02  0.54417340535E+02  0.00000000000E+00 0.  1.
         11    1    4    4    0    0  0.15988049826E+02  0.61780512625E+01  0.52886637764E+02  0.55594806489E+02  0.00000000000E+00 0. -1.
</event>
<event>
 8    1  0.6443238E-009  0.1673519E+03  0.7561462E-02  0.1180638E+00
          4   -1    0    0  501    0  0.00000000000E+00  0.00000000000E+00  0.10278167053E+03  0.10278167053E+03  0.00000000000E+00 0.  1.
         -4   -1    0    0    0  501 -0.00000000000E+00 -0.00000000000E+00 -0.40788393190E+03  0.40788393190E+03  0.00000000000E+00 0. -1.
         25    2    1    2    0    0 -0.69144897034E+02  0.14340791712E+03 -0.73252347880E+02  0.21531411846E+03  0.12508963052E+03 0.  0.
         23    2    1    2    0    0  0.69144897034E+02 -0.14340791712E+03 -0.23184991349E+03  0.29535148397E+03  0.90173550561E+02 0.  0.
          5    1    3    3  502    0  0.80526289900E+01  0.36266428154E+02 -0.74314489226E+02  0.83187825754E+02  0.41800000000E+01 0.  1.
         -5    1    3    3    0  502 -0.77197526024E+02  0.10714148896E+03  0.10621413468E+01  0.13212629271E+03  0.41800000000E+01 0.  1.
        -11    1    4    4    0    0  0.15047368755E+01 -0.49195579232E+02 -0.13684771472E+03  0.14542959215E+03  0.00000000000E+00 0.  1.
         11    1    4    4    0    0  0.67640160158E+02 -0.94212337883E+02 -0.95002198773E+02  0.14992189182E+03  0.00000000000E+00 0. -1.
</event>
<event>
 8    1  0.6443238E-009  0.1237620E+03  0.7561462E-02  0.1237017E+00
         -1   -1    0    0    0  501 -0.00000000000E+00  0.00000000000E+00  0.77899576427E+02  0.77899576427E+02  0.00000000000E+00 0.  1.
          1   -1    0    0  501    0  0.00000000000E+00 -0.00000000000E+00 -0.31115799126E+03  0.31115799126E+03  0.00000000000E+00 0. -1.
         25    2    1    2    0    0 -0.95542270714E+02 -0.54627547304E+02 -0.90455855383E+02  0.18958253700E+03  0.12508709824E+03 0.  0.
         23    2    1    2    0    0  0.95542270714E+02  0.54627547304E+02 -0.14280255945E+03  0.19947503068E+03  0.85353514650E+02 0.  0.
          5    1    3    3  502    0 -0.95736047997E+02 -0.25879372750E+02 -0.11474146883E+03  0.15171753323E+03  0.41800000000E+01 0.  1.
         -5    1    3    3    0  502  0.19377728227E+00 -0.28748174553E+02  0.24285613452E+02  0.37865003770E+02  0.41800000000E+01 0.  1.
        -11    1    4    4    0    0  0.62327744244E+02  0.92989986247E+01 -0.22886424861E+02  0.67044817256E+02  0.00000000000E+00 0.  1.
         11    1    4    4    0    0  0.33214526471E+02  0.45328548679E+02 -0.11991613459E+03  0.13243021343E+03  0.00000000000E+00 0. -1.
</event>
<event>
 8    1  0.6443238E-009  0.8911670E+02  0.7561462E-02  0.1305005E+00
          1   -1    0    0  501    0  0.00000000000E+00  0.00000000000E+00  0.42671659915E+03  0.42671659915E+03  0.00000000000E+00 0. -1.
         -1   -1    0    0    0  501 -0.00000000000E+00 -0.00000000000E+00 -0.36654879565E+02  0.36654879565E+02  0.00000000000E+00 0.  1.
         25    2    1    2    0    0  0.11438059349E+02 -0.55466706029E+02  0.17784446558E+03  0.22468343998E+03  0.12508640848E+03 0.  0.
         23    2    1    2    0    0 -0.11438059349E+02  0.55466706029E+02  0.21221725401E+03  0.23868803873E+03  0.93426079096E+02 0.  0.
          5    1    3    3  502    0  0.80458713606E+01 -0.60797768971E+02  0.19578539027E+03  0.20520842137E+03  0.41800000000E+01 0. -1.
         -5    1    3    3    0  502  0.33921879881E+01  0.53310629420E+01 -0.17940924689E+02  0.19475018617E+02  0.41800000000E+01 0. -1.
        -11    1    4    4    0    0 -0.52635471093E+02  0.34771421998E+02  0.12663039447E+03  0.14147367744E+03  0.00000000000E+00 0.  1.
         11    1    4    4    0    0  0.41197411745E+02  0.20695284032E+02  0.85586859539E+02  0.97214361292E+02  0.00000000000E+00 0. -1.
</event>
<event>
 8    1  0.6443238E-009  0.1068350E+03  0.7561462E-02  0.1266546E+00
          1   -1    0    0  501    0  0.00000000000E+00  0.00000000000E+00  0.17330912471E+03  0.17330912471E+03  0.00000000000E+00 0. -1.
         -1   -1    0    0    0  501 -0.00000000000E+00 -0.00000000000E+00 -0.12085000594E+03  0.12085000594E+03  0.00000000000E+00 0.  1.
         25    2    1    2    0    0 -0.62676667680E+02  0.21636308936E+02  0.98518861236E+02  0.17247357144E+03  0.12507866441E+03 0.  0.
         23    2    1    2    0    0  0.62676667680E+02 -0.21636308936E+02 -0.46059742474E+02  0.12168555921E+03  0.91046037295E+02 0.  0.
          5    1    3    3  502    0 -0.51578516009E+02 -0.34474926154E+02  0.44988589313E+01  0.62342409151E+02  0.41800000000E+01 0. -1.
         -5    1    3    3    0  502 -0.11098151670E+02  0.56111235089E+02  0.94020002305E+02  0.11013116229E+03  0.41800000000E+01 0. -1.
        -11    1    4    4    0    0  0.40284544534E+02  0.21407640364E+02 -0.55926263670E+02  0.72172561007E+02  0.00000000000E+00 0.  1.
         11    1    4    4    0    0  0.22392123146E+02 -0.43043949299E+02  0.98665211962E+01  0.49512998200E+02  0.00000000000E+00 0. -1.
</event>
<event>
 8    1  0.6443238E-009  0.1313438E+03  0.7561462E-02  0.1225475E+00
          1   -1    0    0  501    0  0.00000000000E+00  0.00000000000E+00  0.15755872078E+03  0.15755872078E+03  0.00000000000E+00 0. -1.
         -1   -1    0    0    0  501 -0.00000000000E+00 -0.00000000000E+00 -0.12837886451E+03  0.12837886451E+03  0.00000000000E+00 0.  1.
         25    2    1    2    0    0 -0.35191519999E+02 -0.86844199507E+02  0.11871719045E+02  0.15673967987E+03  0.12508409756E+03 0.  0.
         23    2    1    2    0    0  0.35191519999E+02  0.86844199507E+02  0.17308137224E+02  0.12919790542E+03  0.87247745435E+02 0.  0.
          5    1    3    3  502    0 -0.50664481684E+02 -0.11067683404E+03 -0.76159012099E+01  0.12203165838E+03  0.41800000000E+01 0. -1.
         -5    1    3    3    0  502  0.15472961684E+02  0.23832634531E+02  0.19487620254E+02  0.34708021481E+02  0.41800000000E+01 0. -1.
        -11    1    4    4    0    0  0.45746865287E+02  0.90166086455E+02 -0.81535195796E+01  0.10143558898E+03  0.00000000000E+00 0.  1.
         11    1    4    4    0    0 -0.10555345288E+02 -0.33218869482E+01  0.25461656804E+02  0.27762316442E+02  0.00000000000E+00 0. -1.
</event>
<event>
 8    1  0.6443238E-009  0.4181018E+03  0.7561462E-02  0.1037686E+00
         -1   -1    0    0    0  501 -0.00000000000E+00  0.00000000000E+00  0.69111672187E+03  0.69111672187E+03  0.00000000000E+00 0.  1.
          1   -1    0    0  501    0  0.00000000000E+00 -0.00000000000E+00 -0.27733102995E+03  0.27733102995E+03  0.00000000000E+00 0. -1.
         25    2    1    2    0    0  0.31099415103E+03 -0.27886725919E+03  0.28872577889E+03  0.52296741056E+03  0.12509207366E+03 0.  0.
         23    2    1    2    0    0 -0.31099415103E+03  0.27886725919E+03  0.12505991303E+03  0.44548034126E+03  0.91260300163E+02 0.  0.
          5    1    3    3  502    0  0.13980981122E+03 -0.13512451168E+03  0.60960379108E+02  0.20381132744E+03  0.41800000000E+01 0. -1.
         -5    1    3    3    0  502  0.17118433980E+03 -0.14374274751E+03  0.22776539979E+03  0.31915608312E+03  0.41800000000E+01 0. -1.
        -11    1    4    4    0    0 -0.27584686645E+02  0.32509110249E+02  0.44090292389E+02  0.61332789513E+02  0.00000000000E+00 0.  1.
         11    1    4    4    0    0 -0.28340946438E+03  0.24635814894E+03  0.80969620640E+02  0.38414755175E+03  0.00000000000E+00 0. -1.
</event>
<event>
 8    1  0.6443238E-009  0.1561794E+03  0.7561462E-02  0.1193079E+00
          2   -1    0    0  501    0  0.00000000000E+00  0.00000000000E+00  0.87681689302E+03  0.87681689302E+03  0.00000000000E+00 0. -1.
         -2   -1    0    0    0  501 -0.00000000000E+00 -0.00000000000E+00 -0.32206321091E+02  0.32206321091E+02  0.00000000000E+00 0.  1.
         25    2    1    2    0    0 -0.34020162446E+02 -0.12225880281E+03  0.42358555644E+03  0.45953992009E+03  0.12509048009E+03 0.  0.
         23    2    1    2    0    0  0.34020162446E+02  0.12225880281E+03  0.42102501549E+03  0.44948329402E+03  0.93105218037E+02 0.  0.
          5    1    3    3  502    0 -0.46143311946E+02 -0.13971619195E+03  0.40526755346E+03  0.43117175443E+03  0.41800000000E+01 0.  1.
         -5    1    3    3    0  502  0.12123149500E+02  0.17457389143E+02  0.18318002983E+02  0.28368165658E+02  0.41800000000E+01 0.  1.
        -11    1    4    4    0    0  0.38820823753E+02  0.25113580363E+02  0.23563036553E+03  0.24012375442E+03  0.00000000000E+00 0. -1.
         11    1    4    4    0    0 -0.48006613064E+01  0.97145222443E+02  0.18539464996E+03  0.20935953961E+03  0.00000000000E+00 0.  1.
</event>
<event>
 8    1  0.6443238E-009  0.2587548E+03  0.7561462E-02  0.1107894E+00
         -2   -1    0    0    0  501 -0.00000000000E+00  0.00000000000E+00  0.71903586625E+02  0.71903586625E+02  0.00000000000E+00 0. -1.
          2   -1    0    0  501    0  0.00000000000E+00 -0.00000000000E+00 -0.10383895044E+04  0.10383895044E+04  0.00000000000E+00 0.  1.
         25    2    1    2    0    0  0.77118943810E+01 -0.23946691878E+03 -0.34523862981E+03  0.43845317419E+03  0.12509035111E+03 0.  0.
         23    2    1    2    0    0 -0.77118943810E+01  0.23946691878E+03 -0.62124728792E+03  0.67183991679E+03  0.89536598874E+02 0.  0.
          5    1    3    3  502    0 -0.24099327289E+02 -0.26536542041E+01 -0.68645060571E+02  0.72920752857E+02  0.41800000000E+01 0.  1.
         -5    1    3    3    0  502  0.31811221670E+02 -0.23681326457E+03 -0.27659356924E+03  0.36553242133E+03  0.41800000000E+01 0.  1.
        -11    1    4    4    0    0  0.36812921964E+02  0.14334562865E+03 -0.40106321991E+03  0.42749838227E+03  0.00000000000E+00 0. -1.
         11    1    4    4    0    0 -0.44524816345E+02  0.96121290132E+02 -0.22018406801E+03  0.24434153452E+03  0.00000000000E+00 0.  1.
</event>
<event>
 8    1  0.6443238E-009  0.1207178E+03  0.7561462E-02  0.1241918E+00
          1   -1    0    0  501    0  0.00000000000E+00  0.00000000000E+00  0.18558920232E+03  0.18558920232E+03  0.00000000000E+00 0. -1.
         -1   -1    0    0    0  501 -0.00000000000E+00 -0.00000000000E+00 -0.91200279759E+02  0.91200279759E+02  0.00000000000E+00 0.  1.
         25    2    1    2    0    0  0.53332293983E+02  0.39003483226E+02  0.13462372889E+02  0.14210295865E+03  0.12508561104E+03 0.  0.
         23    2    1    2    0    0 -0.53332293983E+02 -0.39003483226E+02  0.80926549675E+02  0.13468652343E+03  0.85004399101E+02 0.  0.
          5    1    3    3  502    0  0.31944142652E+02 -0.44188968102E+02 -0.20088007630E+01  0.54722946121E+02  0.41800000000E+01 0. -1.
         -5    1    3    3    0  502  0.21388151331E+02  0.83192451328E+02  0.15471173652E+02  0.87380012529E+02  0.41800000000E+01 0. -1.
        -11    1    4    4    0    0 -0.37658861434E+01  0.21902459309E+02  0.40898993296E+02  0.46547043675E+02  0.00000000000E+00 0.  1.
         11    1    4    4    0    0 -0.49566407839E+02 -0.60905942535E+02  0.40027556379E+02  0.88139479757E+02  0.00000000000E+00 0. -1.
</event>
<event>
 8    1  0.6443238E-009  0.1466933E+03  0.7561462E-02  0.1204596E+00
          1   -1    0    0  501    0  0.00000000000E+00  0.00000000000E+00  0.83849509701E+02  0.83849509701E+02  0.00000000000E+00 0. -1.
         -1   -1    0    0    0  501 -0.00000000000E+00 -0.00000000000E+00 -0.29180358428E+03  0.29180358428E+03  0.00000000000E+00 0.  1.
         25    2    1    2    0    0 -0.10124524603E+03  0.22862426551E+02 -0.58351087470E+02  0.17270082305E+03  0.12508970574E+03 0.  0.
         23    2    1    2    0    0  0.10124524603E+03 -0.22862426551E+02 -0.14960298711E+03  0.20295227093E+03  0.89639724077E+02 0.  0.
          5    1    3    3  502    0 -0.32848266246E+02  0.69373819655E+02 -0.12025795332E+02  0.77806346799E+02  0.41800000000E+01 0. -1.
         -5    1    3    3    0  502 -0.68396979780E+02 -0.46511393104E+02 -0.46325292138E+02  0.94894476252E+02  0.41800000000E+01 0. -1.
        -11    1    4    4    0    0 -0.13786636358E+02 -0.11776578754E+02 -0.70829489142E+01  0.19466055443E+02  0.00000000000E+00 0. -1.
         11    1    4    4    0    0  0.11503188238E+03 -0.11085847797E+02 -0.14252003819E+03  0.18348621548E+03  0.00000000000E+00 0.  1.
</event>
<event>
 7    1  0.6443238E-009  0.1330973E+03  0.7561462E-02  0.1222931E+00
         -2   -1    0    0    0  501 -0.00000000000E+00  0.00000000000E+00  0.11246636342E+03  0.11246636342E+03  0.00000000000E+00 0.  1.
          2   -1    0    0  501    0  0.00000000000E+00 -0.00000000000E+00 -0.20119204394E+03  0.20119204394E+03  0.00000000000E+00 0. -1.
         23    2    1    2    0    0 -0.56830739021E+02 -0.42468724480E+02  0.17100666699E+02  0.13504230858E+03  0.11362511540E+03 0.  0.
          5    1    1    2  502    0  0.30615899247E+02  0.86678105666E+02 -0.73311168180E+02  0.11765384426E+03  0.41800000000E+01 0. -1.
         -5    1    1    2    0  502  0.26214839774E+02 -0.44209381187E+02 -0.32515179040E+02  0.60962254530E+02  0.41800000000E+01 0. -1.
        -11    1    3    3    0    0 -0.10151655491E+02 -0.68439977687E+02  0.36481420029E+02  0.78217521454E+02  0.00000000000E+00 0.  1.
         11    1    3    3    0    0 -0.46679083530E+02  0.25971253208E+02 -0.19380753330E+02  0.56824787127E+02  0.00000000000E+00 0. -1.
</event>
<event>
 8    1  0.6443238E-009  0.1399011E+03  0.7561462E-02  0.1213462E+00
         -1   -1    0    0    0  501 -0.00000000000E+00  0.00000000000E+00  0.41240650875E+02  0.41240650875E+02  0.00000000000E+00 0. -1.
          1   -1    0    0  501    0  0.00000000000E+00 -0.00000000000E+00 -0.50866829017E+03  0.50866829017E+03  0.00000000000E+00 0.  1.
         25    2    1    2    0    0  0.86775341551E+02  0.37018281961E+02 -0.21834236729E+03  0.26873969995E+03  0.12508926363E+03 0.  0.
         23    2    1    2    0    0 -0.86775341551E+02 -0.37018281961E+02 -0.24908527201E+03  0.28116924110E+03  0.90068619993E+02 0.  0.
          5    1    3    3  502    0  0.70355975370E+02 -0.36570260296E+02 -0.91772272173E+02  0.12135472611E+03  0.41800000000E+01 0.  1.
         -5    1    3    3    0  502  0.16419366182E+02  0.73588542257E+02 -0.12657009512E+03  0.14738497384E+03  0.41800000000E+01 0.  1.
        -11    1    4    4    0    0  0.15393832573E+02 -0.12463973510E+02 -0.77278968262E+02  0.79776936846E+02  0.00000000000E+00 0.  1.
         11    1    4    4    0    0 -0.10216917412E+03 -0.24554308452E+02 -0.17180630375E+03  0.20139230425E+03  0.00000000000E+00 0. -1.
</event>
<event>
 8    1  0.6443238E-009  0.1005665E+03  0.7561462E-02  0.1279109E+00
          2   -1    0    0  501    0  0.00000000000E+00  0.00000000000E+00  0.44012410624E+02  0.44012410624E+02  0.00000000000E+00 0. -1.
         -2   -1    0    0    0  501 -0.00000000000E+00 -0.00000000000E+00 -0.27683217384E+03  0.27683217384E+03  0.00000000000E+00 0.  1.
         25    2    1    2    0    0  0.29104064367E+01 -0.97885090429E+00 -0.16685595585E+03  0.20856276672E+03  0.12509232209E+03 0.  0.
         23    2    1    2    0    0 -0.29104064367E+01  0.97885090429E+00 -0.65963807373E+02  0.11228181775E+03  0.90810539578E+02 0.  0.
          5    1    3    3  502    0  0.31715880464E+02  0.48364582548E+02 -0.12441903800E+03  0.13726834790E+03  0.41800000000E+01 0.  1.
         -5    1    3    3    0  502 -0.28805474027E+02 -0.49343433452E+02 -0.42436917848E+02  0.71294418822E+02  0.41800000000E+01 0.  1.
        -11    1    4    4    0    0  0.40949196085E+02 -0.61937800395E+01 -0.13577816982E+02  0.43583903969E+02  0.00000000000E+00 0.  1.
         11    1    4    4    0    0 -0.43859602522E+02  0.71726309438E+01 -0.52385990392E+02  0.68697913777E+02  0.00000000000E+00 0. -1.
</event>
<event>
 8    1  0.6443238E-009  0.1167617E+03  0.7561462E-02  0.1248537E+00
          1   -1    0    0  501    0  0.00000000000E+00  0.00000000000E+00  0.45693379157E+03  0.45693379157E+03  0.00000000000E+00 0.  1.
         -1   -1    0    0    0  501 -0.00000000000E+00 -0.00000000000E+00 -0.70777657929E+02  0.70777657929E+02  0.00000000000E+00 0. -1.
         25    2    1    2    0    0  0.30593185074E+02 -0.34345700597E+02  0.57723609586E+01  0.13340838731E+03  0.12509559357E+03 0.  0.
         23    2    1    2    0    0 -0.30593185074E+02  0.34345700597E+02  0.38038377268E+03  0.39430306219E+03  0.93099517768E+02 0.  0.
          5    1    3    3  502    0  0.56865240661E+02  0.27919686412E+02  0.14545351009E+02  0.65132204943E+02  0.41800000000E+01 0. -1.
         -5    1    3    3    0  502 -0.26272055587E+02 -0.62265387009E+02 -0.87729900505E+01  0.68276182367E+02  0.41800000000E+01 0. -1.
        -11    1    4    4    0    0  0.73783811256E+01 -0.28203830531E+02  0.80346575216E+02  0.85472034687E+02  0.00000000000E+00 0.  1.
         11    1    4    4    0    0 -0.37971566199E+02  0.62549531127E+02  0.30003719747E+03  0.30883102750E+03  0.00000000000E+00 0. -1.
</event>
<event>
 8    1  0.6443238E-009  0.7965650E+02  0.7561462E-02  0.1330029E+00
         -2   -1    0    0    0  501 -0.00000000000E+00  0.00000000000E+00  0.26886906175E+03  0.26886906175E+03  0.00000000000E+00 0.  1.
          2   -1    0    0  501    0  0.00000000000E+00 -0.00000000000E+00 -0.48013532189E+02  0.48013532189E+02  0.00000000000E+00 0. -1.
         25    2    1    2    0    0 -0.14814573078E+02  0.31087888312E+02  0.11920108102E+03  0.17618987978E+03  0.12509215662E+03 0.  0.
         23    2    1    2    0    0  0.14814573078E+02 -0.31087888312E+02  0.10165444855E+03  0.14069271416E+03  0.90966392327E+02 0.  0.
          5    1    3    3  502    0 -0.55240486287E+02  0.22600917977E+02  0.12062391742E+03  0.13464737158E+03  0.41800000000E+01 0. -1.
         -5    1    3    3    0  502  0.40425913209E+02  0.84869703345E+01 -0.14228364081E+01  0.41542508202E+02  0.41800000000E+01 0. -1.
        -11    1    4    4    0    0 -0.12674205397E+02  0.40913051926E+01 -0.12408987629E+02  0.18203220446E+02  0.00000000000E+00 0. -1.
         11    1    4    4    0    0  0.27488778475E+02 -0.35179193505E+02  0.11406343618E+03  0.12248949372E+03  0.00000000000E+00 0.  1.
</event>
<event>
 8    1  0.6443238E-009  0.1467317E+03  0.7561462E-02  0.1204548E+00
          1   -1    0    0  501    0  0.00000000000E+00  0.00000000000E+00  0.19173157525E+03  0.19173157525E+03  0.00000000000E+00 0. -1.
         -1   -1    0    0    0  501 -0.00000000000E+00 -0.00000000000E+00 -0.16622604602E+03  0.16622604602E+03  0.00000000000E+00 0.  1.
         25    2    1    2    0    0 -0.12066164959E+03 -0.92077396701E-01 -0.60962425749E+02  0.18418496180E+03  0.12509372742E+03 0.  0.
         23    2    1    2    0    0  0.12066164959E+03  0.92077396701E-01  0.86467954979E+02  0.17377265946E+03  0.90338185599E+02 0.  0.
          5    1    3    3  502    0 -0.28456204946E+02 -0.49507720245E+02  0.94269218654E+01  0.58026797427E+02  0.41800000000E+01 0. -1.
         -5    1    3    3    0  502 -0.92205444648E+02  0.49415642849E+02 -0.70389347615E+02  0.12615816438E+03  0.41800000000E+01 0. -1.
        -11    1    4    4    0    0  0.11926292588E+03 -0.11517693926E+02  0.40711154739E+02  0.12654525231E+03  0.00000000000E+00 0.  1.
         11    1    4    4    0    0  0.13987237183E+01  0.11609771322E+02  0.45756800240E+02  0.47227407153E+02  0.00000000000E+00 0. -1.
</event>
<event>
 8    1  0.6443238E-009  0.1864991E+03  0.7561462E-02  0.1161657E+00
          1   -1    0    0  501    0  0.00000000000E+00  0.00000000000E+00  0.14629925943E+04  0.14629925943E+04  0.00000000000E+00 0. -1.
         -1   -1    0    0    0  501 -0.00000000000E+00 -0.00000000000E+00 -0.33092497792E+02  0.33092497792E+02  0.00000000000E+00 0.  1.
         25    2    1    2    0    0 -0.13069070378E+03  0.11970846502E+03  0.98235220204E+03  0.10060187979E+04  0.12509115167E+03 0.  0.
         23    2    1    2    0    0  0.13069070378E+03 -0.11970846502E+03  0.44754789452E+03  0.49006629424E+03  0.91954761757E+02 0.  0.
          5    1    3    3  502    0 -0.84597027190E+02  0.28841888906E+02  0.70232916961E+03  0.70800582374E+03  0.41800000000E+01 0.  1.
         -5    1    3    3    0  502 -0.46093676591E+02  0.90866576118E+02  0.28002303242E+03  0.29801297415E+03  0.41800000000E+01 0.  1.
        -11    1    4    4    0    0  0.28861892880E+02 -0.51338056433E+02  0.62152418979E+02  0.85624342823E+02  0.00000000000E+00 0.  1.
         11    1    4    4    0    0  0.10182881090E+03 -0.68370408592E+02  0.38539547554E+03  0.40444195141E+03  0.00000000000E+00 0. -1.
</event>
<event>
 8    1  0.6443238E-009  0.8617854E+02  0.7561462E-02  0.1312379E+00
          2   -1    0    0  501    0  0.00000000000E+00  0.00000000000E+00  0.32958162487E+03  0.32958162487E+03  0.00000000000E+00 0. -1.
         -2   -1    0    0    0  501 -0.00000000000E+00 -0.00000000000E+00 -0.35717969374E+02  0.35717969374E+02  0.00000000000E+00 0.  1.
         25    2    1    2    0    0  0.38079368617E+02 -0.13997802204E+02  0.20889013293E+03  0.24684040983E+03  0.12509645682E+03 0.  0.
         23    2    1    2    0    0 -0.38079368617E+02  0.13997802204E+02  0.84973522570E+02  0.11845918442E+03  0.71875601241E+02 0.  0.
          5    1    3    3  502    0  0.65227981199E+02  0.16800639902E+02  0.53663732114E+02  0.86221920512E+02  0.41800000000E+01 0.  1.
         -5    1    3    3    0  502 -0.27148612582E+02 -0.30798442106E+02  0.15522640081E+03  0.16061848932E+03  0.41800000000E+01 0.  1.
        -11    1    4    4    0    0 -0.11096337016E+02 -0.18370871492E+02 -0.22597151673E+01  0.21580637785E+02  0.00000000000E+00 0.  1.
         11    1    4    4    0    0 -0.26983031601E+02  0.32368673696E+02  0.87233237737E+02  0.96878546631E+02  0.00000000000E+00 0. -1.
</event>
<event>
 8    1  0.6443238E-009  0.1342186E+03  0.7561462E-02  0.1221327E+00
          1   -1    0    0  501    0  0.00000000000E+00  0.00000000000E+00  0.36070419203E+02  0.36070419203E+02  0.00000000000E+00 0. -1.
         -1   -1    0    0    0  501 -0.00000000000E+00 -0.00000000000E+00 -0.65353133880E+03  0.65353133880E+03  0.00000000000E+00 0.  1.
         25    2    1    2    0    0 -0.76503107045E+01 -0.11176597550E+03 -0.35376244381E+03  0.39159480115E+03  0.12509380921E+03 0.  0.
         23    2    1    2    0    0  0.76503107045E+01  0.11176597550E+03 -0.26369847578E+03  0.29800695685E+03  0.81982313141E+02 0.  0.
          5    1    3    3  502    0 -0.34619357570E+02 -0.86930608681E+02 -0.33925217493E+03  0.35194451443E+03  0.41800000000E+01 0. -1.
         -5    1    3    3    0  502  0.26969046866E+02 -0.24835366817E+02 -0.14510268881E+02  0.39650286717E+02  0.41800000000E+01 0. -1.
        -11    1    4    4    0    0 -0.31680014346E+02  0.18577447866E+02 -0.86472990776E+02  0.93948512559E+02  0.00000000000E+00 0.  1.
         11    1    4    4    0    0  0.39330325051E+02  0.93188527631E+02 -0.17722548500E+03  0.20405844429E+03  0.00000000000E+00 0. -1.
</event>
<event>
 8    1  0.6443238E-009  0.1103815E+03  0.7561462E-02  0.1259865E+00
          2   -1    0    0  501    0  0.00000000000E+00  0.00000000000E+00  0.15347407329E+03  0.15347407329E+03  0.00000000000E+00 0. -1.
         -2   -1    0    0    0  501 -0.00000000000E+00 -0.00000000000E+00 -0.94644154512E+02  0.94644154512E+02  0.00000000000E+00 0.  1.
         25    2    1    2    0    0  0.21738981398E+02 -0.40346950973E+02  0.58879068055E+02  0.14565066275E+03  0.12508761385E+03 0.  0.
         23    2    1    2    0    0 -0.21738981398E+02  0.40346950973E+02 -0.49149277809E-01  0.10246756505E+03  0.91646820494E+02 0.  0.
          5    1    3    3  502    0 -0.14007039044E+02 -0.70099985897E+02  0.67220832654E+02  0.98215670380E+02  0.41800000000E+01 0.  1.
         -5    1    3    3    0  502  0.35746020441E+02  0.29753034924E+02 -0.83417645996E+01  0.47434992371E+02  0.41800000000E+01 0.  1.
        -11    1    4    4    0    0  0.16963645839E+02 -0.22786255579E+02  0.56689416031E+00  0.28413026809E+02  0.00000000000E+00 0.  1.
         11    1    4    4    0    0 -0.38702627237E+02  0.63133206552E+02 -0.61604343812E+00  0.74054538241E+02  0.00000000000E+00 0. -1.
</event>
<event>
 8    1  0.6443238E-009  0.1665616E+03  0.7561462E-02  0.1181482E+00
          1   -1    0    0  501    0  0.00000000000E+00  0.00000000000E+00  0.13994683750E+03  0.13994683750E+03  0.00000000000E+00 0. -1.
         -1   -1    0    0    0  501 -0.00000000000E+00 -0.00000000000E+00 -0.32499426264E+03  0.32499426264E+03  0.00000000000E+00 0.  1.
         25    2    1    2    0    0 -0.11227801566E+03 -0.69026236594E+02  0.41821371365E+02  0.18646114827E+03  0.12509100117E+03 0.  0.
         23    2    1    2    0    0  0.11227801566E+03  0.69026236594E+02 -0.22686879650E+03  0.27847995187E+03  0.93330909294E+02 0.  0.
          5    1    3    3  502    0 -0.55444132365E+02 -0.10009163099E+03  0.12296804628E+02  0.11515672022E+03  0.41800000000E+01 0. -1.
         -5    1    3    3    0  502 -0.56833883297E+02  0.31065394391E+02  0.29524566737E+02  0.71304428055E+02  0.41800000000E+01 0. -1.
        -11    1    4    4    0    0  0.57142586274E+02  0.79191702062E+02 -0.99989755925E+02  0.13976606216E+03  0.00000000000E+00 0. -1.
         11    1    4    4    0    0  0.55135429387E+02 -0.10165465467E+02 -0.12687904058E+03  0.13871388971E+03  0.00000000000E+00 0.  1.
</event>
<event>
 8    1  0.6443238E-009  0.1277830E+03  0.7561462E-02  0.1230783E+00
          1   -1    0    0  501    0  0.00000000000E+00  0.00000000000E+00  0.33120698112E+03  0.33120698112E+03  0.00000000000E+00 0. -1.
         -1   -1    0    0    0  501 -0.00000000000E+00 -0.00000000000E+00 -0.66432782676E+02  0.66432782676E+02  0.00000000000E+00 0.  1.
         25    2    1    2    0    0  0.93251939709E+02 -0.26148691479E+02  0.10608969088E+03  0.19047146343E+03  0.12507868542E+03 0.  0.
         23    2    1    2    0    0 -0.93251939709E+02  0.26148691479E+02  0.15868450757E+03  0.20716830037E+03  0.91423483901E+02 0.  0.
          5    1    3    3  502    0  0.11972680705E+03  0.12727089366E+01  0.78528146665E+02  0.14324898022E+03  0.41800000000E+01 0. -1.
         -5    1    3    3    0  502 -0.26474867342E+02 -0.27421400416E+02  0.27561544211E+02  0.47222483214E+02  0.41800000000E+01 0. -1.
        -11    1    4    4    0    0 -0.45535105834E+02  0.73315148224E+01  0.14767127893E+03  0.15470618473E+03  0.00000000000E+00 0. -1.
         11    1    4    4    0    0 -0.47716833875E+02  0.18817176657E+02  0.11013228646E+02  0.52462115642E+02  0.00000000000E+00 0.  1.
</event>
<event>
 8    1  0.6443238E-009  0.7207878E+02  0.7561462E-02  0.1353163E+00
         -2   -1    0    0    0  501 -0.00000000000E+00  0.00000000000E+00  0.86537992802E+02  0.86537992802E+02  0.00000000000E+00 0.  1.
          2   -1    0    0  501    0  0.00000000000E+00 -0.00000000000E+00 -0.16668517529E+03  0.16668517529E+03  0.00000000000E+00 0. -1.
         25    2    1    2    0    0 -0.11880629423E+02 -0.40369372544E+02 -0.74659954777E+02  0.15163677624E+03  0.12509503374E+03 0.  0.
         23    2    1    2    0    0  0.11880629423E+02  0.40369372544E+02 -0.54872277117E+01  0.10158639185E+03  0.92297615058E+02 0.  0.
          5    1    3    3  502    0 -0.22366240149E+02 -0.37787047944E+01 -0.10200685544E+03  0.10458201693E+03  0.41800000000E+01 0. -1.
         -5    1    3    3    0  502  0.10485610726E+02 -0.36590667750E+02  0.27346900661E+02  0.47054759318E+02  0.41800000000E+01 0. -1.
        -11    1    4    4    0    0 -0.29355594394E+02  0.25750913041E+02 -0.31950510466E+02  0.50454886421E+02  0.00000000000E+00 0. -1.
         11    1    4    4    0    0  0.41236223818E+02  0.14618459504E+02  0.26463282754E+02  0.51131505426E+02  0.00000000000E+00 0.  1.
</event>
<event>
 8    1  0.6443238E-009  0.2022934E+03  0.7561462E-02  0.1147818E+00
          2   -1    0    0  501    0  0.00000000000E+00  0.00000000000E+00  0.21762948230E+03  0.21762948230E+03  0.00000000000E+00 0. -1.
         -2   -1    0    0    0  501 -0.00000000000E+00 -0.00000000000E+00 -0.24418685960E+03  0.24418685960E+03  0.00000000000E+00 0.  1.
         25    2    1    2    0    0  0.28530506135E+02 -0.19570754462E+03  0.33072655596E+02  0.23635777919E+03  0.12512300522E+03 0.  0.
         23    2    1    2    0    0 -0.28530506135E+02  0.19570754462E+03 -0.59630032889E+02  0.22545856270E+03  0.90334876281E+02 0.  0.
          5    1    3    3  502    0 -0.71363895543E+01 -0.49866277478E+01  0.41001544689E+02  0.42123551359E+02  0.41800000000E+01 0. -1.
         -5    1    3    3    0  502  0.35666895690E+02 -0.19072091687E+03 -0.79288890927E+01  0.19423422784E+03  0.41800000000E+01 0. -1.
        -11    1    4    4    0    0 -0.48813033875E+01  0.14304302148E+03 -0.93364509783E+00  0.14312932897E+03  0.00000000000E+00 0. -1.
         11    1    4    4    0    0 -0.23649202748E+02  0.52664523139E+02 -0.58696387792E+02  0.82329233738E+02  0.00000000000E+00 0.  1.
</event>
<event>
 8    1  0.6443238E-009  0.1080673E+03  0.7561462E-02  0.1264191E+00
          2   -1    0    0  501    0  0.00000000000E+00  0.00000000000E+00  0.46081244036E+03  0.46081244036E+03  0.00000000000E+00 0. -1.
         -2   -1    0    0    0  501 -0.00000000000E+00 -0.00000000000E+00 -0.25792642591E+02  0.25792642591E+02  0.00000000000E+00 0.  1.
         25    2    1    2    0    0 -0.12355736156E+02 -0.13083325328E+02  0.26704373092E+03  0.29543713523E+03  0.12508760544E+03 0.  0.
         23    2    1    2    0    0  0.12355736156E+02  0.13083325328E+02  0.16797606685E+03  0.19116794772E+03  0.89472831529E+02 0.  0.
          5    1    3    3  502    0 -0.63244389387E+02 -0.32812766803E+02  0.16051816339E+03  0.17567038348E+03  0.41800000000E+01 0. -1.
         -5    1    3    3    0  502  0.50888653231E+02  0.19729441475E+02  0.10652556752E+03  0.11976675175E+03  0.41800000000E+01 0. -1.
        -11    1    4    4    0    0 -0.11982084359E+02  0.46873441321E+02  0.74435973939E+02  0.88777272222E+02  0.00000000000E+00 0. -1.
         11    1    4    4    0    0  0.24337820515E+02 -0.33790115993E+02  0.93540092914E+02  0.10239067550E+03  0.00000000000E+00 0.  1.
</event>
<event>
 8    1  0.6443238E-009  0.1250666E+03  0.7561462E-02  0.1234965E+00
         -2   -1    0    0    0  501 -0.00000000000E+00  0.00000000000E+00  0.74020457232E+01  0.74020457232E+01  0.00000000000E+00 0.  1.
          2   -1    0    0  501    0  0.00000000000E+00 -0.00000000000E+00 -0.32976186938E+04  0.32976186938E+04  0.00000000000E+00 0. -1.
         25    2    1    2    0    0  0.15796768593E+02 -0.72355769016E+02 -0.27504621634E+04  0.27543013210E+04  0.12509500089E+03 0.  0.
         23    2    1    2    0    0 -0.15796768593E+02  0.72355769016E+02 -0.53975448470E+03  0.55071941856E+03  0.80449232593E+02 0.  0.
          5    1    3    3  502    0  0.28060389619E+02  0.28437198356E+02 -0.53282793693E+03  0.53433991287E+03  0.41800000000E+01 0. -1.
         -5    1    3    3    0  502 -0.12263621026E+02 -0.10079296737E+03 -0.22176342265E+04  0.22199614081E+04  0.41800000000E+01 0. -1.
        -11    1    4    4    0    0 -0.53344120583E+01  0.88741223671E+02 -0.46851114341E+03  0.47687121137E+03  0.00000000000E+00 0. -1.
         11    1    4    4    0    0 -0.10462356535E+02 -0.16385454655E+02 -0.71243341286E+02  0.73848207196E+02  0.00000000000E+00 0.  1.
</event>
<event>
 8    1  0.6443238E-009  0.1113421E+03  0.7561462E-02  0.1258104E+00
         -3   -1    0    0    0  501 -0.00000000000E+00  0.00000000000E+00  0.11774546097E+03  0.11774546097E+03  0.00000000000E+00 0.  1.
          3   -1    0    0  501    0  0.00000000000E+00 -0.00000000000E+00 -0.13976981247E+03  0.13976981247E+03  0.00000000000E+00 0. -1.
         25    2    1    2    0    0  0.16966300169E+02 -0.60385309937E+02 -0.38712676743E+02  0.14518843736E+03  0.12508704971E+03 0.  0.
         23    2    1    2    0    0 -0.16966300169E+02  0.60385309937E+02  0.16688325250E+02  0.11232683608E+03  0.91676479567E+02 0.  0.
          5    1    3    3  502    0 -0.11448614254E+02  0.31513186652E+02  0.12631444774E+02  0.36071838024E+02  0.41800000000E+01 0.  1.
         -5    1    3    3    0  502  0.28414914423E+02 -0.91898496590E+02 -0.51344121517E+02  0.10911659934E+03  0.41800000000E+01 0.  1.
        -11    1    4    4    0    0 -0.34961987167E+02  0.65203017545E+02 -0.15073359990E+02  0.75504835773E+02  0.00000000000E+00 0. -1.
         11    1    4    4    0    0  0.17995686998E+02 -0.48177076079E+01  0.31761685240E+02  0.36822000304E+02  0.00000000000E+00 0.  1.
</event>
<event>
 8    1  0.6443238E-009  0.1048947E+03  0.7561462E-02  0.1270327E+00
          3   -1    0    0  501    0  0.00000000000E+00  0.00000000000E+00  0.48060412905E+02  0.48060412905E+02  0.00000000000E+00 0. -1.
         -3   -1    0    0    0  501 -0.00000000000E+00 -0.00000000000E+00 -0.34357258843E+03  0.34357258843E+03  0.00000000000E+00 0.  1.
         25    2    1    2    0    0  0.49780616456E+02  0.12231449915E+02 -0.25138705547E+03  0.28543219280E+03  0.12509343263E+03 0.  0.
         23    2    1    2    0    0 -0.49780616456E+02 -0.12231449915E+02 -0.44125120051E+02  0.10620080853E+03  0.81877148043E+02 0.  0.
          5    1    3    3  502    0  0.40542055636E-02  0.56186978267E+02 -0.57747322191E+02  0.80679626693E+02  0.41800000000E+01 0. -1.
         -5    1    3    3    0  502  0.49776562250E+02 -0.43955528352E+02 -0.19363973328E+03  0.20475256611E+03  0.41800000000E+01 0. -1.
        -11    1    4    4    0    0 -0.61628210871E+02 -0.27581720147E+02 -0.52050754848E+02  0.85252969108E+02  0.00000000000E+00 0.  1.
         11    1    4    4    0    0  0.11847594415E+02  0.15350270232E+02  0.79256347971E+01  0.20947839425E+02  0.00000000000E+00 0. -1.
</event>
<event>
 8    1  0.6443238E-009  0.8475570E+02  0.7561462E-02  0.1316073E+00
         -1   -1    0    0    0  501 -0.00000000000E+00  0.00000000000E+00  0.40788252181E+02  0.40788252181E+02  0.00000000000E+00 0.  1.
          1   -1    0    0  501    0  0.00000000000E+00 -0.00000000000E+00 -0.38525447813E+03  0.38525447813E+03  0.00000000000E+00 0. -1.
         25    2    1    2    0    0 -0.27619893295E+00  0.57002537566E+02 -0.14343479478E+03  0.19867285436E+03  0.12509195470E+03 0.  0.
         23    2    1    2    0    0  0.27619893295E+00 -0.57002537566E+02 -0.20103143116E+03  0.22736987595E+03  0.89632910236E+02 0.  0.
          5    1    3    3  502    0  0.14516718571E+02  0.19106811089E+00 -0.13881792020E+03  0.13963759878E+03  0.41800000000E+01 0. -1.
         -5    1    3    3    0  502 -0.14792917503E+02  0.56811469455E+02 -0.46168745787E+01  0.59035255575E+02  0.41800000000E+01 0. -1.
        -11    1    4    4    0    0 -0.36460129928E+01  0.19049915139E+02 -0.94188596553E+02  0.96164881314E+02  0.00000000000E+00 0. -1.
         11    1    4    4    0    0  0.39222119257E+01 -0.76052452705E+02 -0.10684283461E+03  0.13120499463E+03  0.00000000000E+00 0.  1.
</event>
<event>
 8    1  0.6443238E-009  0.4630039E+02  0.7561462E-02  0.1466383E+00
         -4   -1    0    0    0  501 -0.00000000000E+00  0.00000000000E+00  0.91837711296E+02  0.91837711296E+02  0.00000000000E+00 0.  1.
          4   -1    0    0  501    0  0.00000000000E+00 -0.00000000000E+00 -0.14166038323E+03  0.14166038323E+03  0.00000000000E+00 0. -1.
         25    2    1    2    0    0  0.78009545963E+01  0.25624038549E+02 -0.56227567300E+02  0.13974175397E+03  0.12509505280E+03 0.  0.
         23    2    1    2    0    0 -0.78009545963E+01 -0.25624038549E+02  0.64048953700E+01  0.93756340553E+02  0.89620212369E+02 0.  0.
          5    1    3    3  502    0  0.63604344882E+01  0.50381141636E+01  0.40107287540E+02  0.41132768385E+02  0.41800000000E+01 0. -1.
         -5    1    3    3    0  502  0.14405201082E+01  0.20585924385E+02 -0.96334854840E+02  0.98608985585E+02  0.41800000000E+01 0. -1.
        -11    1    4    4    0    0  0.14419532305E+02  0.11975097724E+02 -0.31018261051E+02  0.36241666573E+02  0.00000000000E+00 0. -1.
         11    1    4    4    0    0 -0.22220486901E+02 -0.37599136272E+02  0.37423156421E+02  0.57514673980E+02  0.00000000000E+00 0.  1.
</event>
<event>
 8    1  0.6443238E-009  0.9926836E+02  0.7561462E-02  0.1281842E+00
         -2   -1    0    0    0  501 -0.00000000000E+00  0.00000000000E+00  0.35115591835E+03  0.35115591835E+03  0.00000000000E+00 0.  1.
          2   -1    0    0  501    0  0.00000000000E+00 -0.00000000000E+00 -0.39231806692E+02  0.39231806692E+02  0.00000000000E+00 0. -1.
         25    2    1    2    0    0  0.37143539005E+01 -0.58517382219E+01  0.10261321786E+03  0.16194220699E+03  0.12509103349E+03 0.  0.
         23    2    1    2    0    0 -0.37143539005E+01  0.58517382219E+01  0.20931089379E+03  0.22844551805E+03  0.91259329337E+02 0.  0.
          5    1    3    3  502    0  0.58334813109E+02 -0.29135926896E+02  0.60294713928E+02  0.88908816122E+02  0.41800000000E+01 0.  1.
         -5    1    3    3    0  502 -0.54620459209E+02  0.23284188674E+02  0.42318503934E+02  0.73033390867E+02  0.41800000000E+01 0.  1.
        -11    1    4    4    0    0 -0.31653977022E+02  0.24546401037E+02  0.42981658066E+02  0.58753067965E+02  0.00000000000E+00 0. -1.
         11    1    4    4    0    0  0.27939623122E+02 -0.18694662815E+02  0.16632923573E+03  0.16969245008E+03  0.00000000000E+00 0.  1.
</event>
<event>
 8    1  0.6443238E-009  0.1262634E+03  0.7561462E-02  0.1233108E+00
         -1   -1    0    0    0  501 -0.00000000000E+00  0.00000000000E+00  0.32598640613E+02  0.32598640613E+02  0.00000000000E+00 0.  1.
          1   -1    0    0  501    0  0.00000000000E+00 -0.00000000000E+00 -0.57255362525E+03  0.57255362525E+03  0.00000000000E+00 0. -1.
         25    2    1    2    0    0  0.47061273476E+02  0.68558813410E+02 -0.29606860155E+03  0.33199697758E+03  0.12510116681E+03 0.  0.
         23    2    1    2    0    0 -0.47061273476E+02 -0.68558813410E+02 -0.24388638309E+03  0.27315528829E+03  0.90654119087E+02 0.  0.
          5    1    3    3  502    0 -0.35387829602E+02  0.32088489658E+02 -0.17209847995E+03  0.17865421588E+03  0.41800000000E+01 0. -1.
         -5    1    3    3    0  502  0.82449103078E+02  0.36470323752E+02 -0.12397012161E+03  0.15334276169E+03  0.41800000000E+01 0. -1.
        -11    1    4    4    0    0  0.19004947600E+01 -0.65219231042E+02 -0.86843436683E+02  0.10862293714E+03  0.00000000000E+00 0.  1.
         11    1    4    4    0    0 -0.48961768236E+02 -0.33395823673E+01 -0.15704294640E+03  0.16453235115E+03  0.00000000000E+00 0. -1.
</event>
<event>
 8    1  0.6443238E-009  0.1038186E+03  0.7561462E-02  0.1272465E+00
         -1   -1    0    0    0  501 -0.00000000000E+00  0.00000000000E+00  0.46121904250E+03  0.46121904250E+03  0.00000000000E+00 0.  1.
          1   -1    0    0  501    0  0.00000000000E+00 -0.00000000000E+00 -0.26984179465E+02  0.26984179465E+02  0.00000000000E+00 0. -1.
         25    2    1    2    0    0  0.31176661787E+02 -0.10179689260E+02  0.23444417037E+03  0.26774391792E+03  0.12508847369E+03 0.  0.
         23    2    1    2    0    0 -0.31176661787E+02  0.10179689260E+02  0.19979069267E+03  0.22045930404E+03  0.87237454969E+02 0.  0.
          5    1    3    3  502    0 -0.24281015122E+02  0.40497137611E+02  0.51838144705E+02  0.70244227496E+02  0.41800000000E+01 0. -1.
         -5    1    3    3    0  502  0.55457676909E+02 -0.50676826872E+02  0.18260602566E+03  0.19749969043E+03  0.41800000000E+01 0. -1.
        -11    1    4    4    0    0 -0.40182199458E+02  0.38272619382E+02  0.16873219258E+03  0.17762307102E+03  0.00000000000E+00 0.  1.
         11    1    4    4    0    0  0.90055376716E+01 -0.28092930122E+02  0.31058500090E+02  0.42836233021E+02  0.00000000000E+00 0. -1.
</event>
<event>
 8    1  0.6443238E-009  0.1024105E+03  0.7561462E-02  0.1275307E+00
         -1   -1    0    0    0  501 -0.00000000000E+00  0.00000000000E+00  0.15036168855E+02  0.15036168855E+02  0.00000000000E+00 0.  1.
          1   -1    0    0  501    0  0.00000000000E+00 -0.00000000000E+00 -0.85091916095E+03  0.85091916095E+03  0.00000000000E+00 0. -1.
         25    2    1    2    0    0  0.61695101103E+01 -0.27932446685E+02 -0.54225071572E+03  0.55722606595E+03  0.12508703144E+03 0.  0.
         23    2    1    2    0    0 -0.61695101103E+01  0.27932446685E+02 -0.29363227637E+03  0.30872926386E+03  0.90970106090E+02 0.  0.
          5    1    3    3  502    0  0.57577161708E+02  0.16423644343E+02 -0.27225947680E+03  0.27879662974E+03  0.41800000000E+01 0. -1.
         -5    1    3    3    0  502 -0.51407651598E+02 -0.44356091028E+02 -0.26999123892E+03  0.27842943621E+03  0.41800000000E+01 0. -1.
        -11    1    4    4    0    0 -0.33018060968E+02 -0.59439257860E+01 -0.43732043222E+02  0.55118184007E+02  0.00000000000E+00 0.  1.
         11    1    4    4    0    0  0.26848550858E+02  0.33876372471E+02 -0.24990023315E+03  0.25361107985E+03  0.00000000000E+00 0. -1.
</event>
<event>
 7    1  0.6443238E-009  0.9799114E+02  0.7561462E-02  0.1284578E+00
         -1   -1    0    0    0  501 -0.00000000000E+00  0.00000000000E+00  0.40458565105E+02  0.40458565105E+02  0.00000000000E+00 0.  1.
          1   -1    0    0  501    0  0.00000000000E+00 -0.00000000000E+00 -0.36252860802E+03  0.36252860802E+03  0.00000000000E+00 0. -1.
         23    2    1    2    0    0  0.52613882515E+02  0.15642499531E+02 -0.16497415942E+03  0.19469970373E+03  0.87627580894E+02 0.  0.
          5    1    1    2  502    0 -0.61357214606E+02 -0.37666799495E+02 -0.28638590411E+02  0.77595984620E+02  0.41800000000E+01 0. -1.
         -5    1    1    2    0  502  0.87433320911E+01  0.22024299964E+02 -0.12845729308E+03  0.13069148477E+03  0.41800000000E+01 0. -1.
        -11    1    3    3    0    0 -0.18585297876E+02 -0.13395221995E+02 -0.19209814810E+02  0.29897529237E+02  0.00000000000E+00 0.  1.
         11    1    3    3    0    0  0.71199180391E+02  0.29037721526E+02 -0.14576434461E+03  0.16480217450E+03  0.00000000000E+00 0. -1.
</event>
<event>
 8    1  0.6443238E-009  0.1140029E+03  0.7561462E-02  0.1253332E+00
          4   -1    0    0  501    0  0.00000000000E+00  0.00000000000E+00  0.60646762008E+02  0.60646762008E+02  0.00000000000E+00 0. -1.
         -4   -1    0    0    0  501 -0.00000000000E+00 -0.00000000000E+00 -0.23491468477E+03  0.23491468477E+03  0.00000000000E+00 0.  1.
         25    2    1    2    0    0  0.14639144339E+02 -0.43686171673E+02 -0.11067723998E+03  0.17325891478E+03  0.12508562650E+03 0.  0.
         23    2    1    2    0    0 -0.14639144339E+02  0.43686171673E+02 -0.63590682772E+02  0.12230253199E+03  0.93762189896E+02 0.  0.
          5    1    3    3  502    0  0.47877902317E+01  0.40384720916E+02 -0.65523987188E+02  0.77231560361E+02  0.41800000000E+01 0. -1.
         -5    1    3    3    0  502  0.98513541074E+01 -0.84070892589E+02 -0.45153252797E+02  0.96027354419E+02  0.41800000000E+01 0. -1.
        -11    1    4    4    0    0 -0.53030176043E+02  0.33244237455E+02 -0.50490294713E+02  0.80415475845E+02  0.00000000000E+00 0.  1.
         11    1    4    4    0    0  0.38391031704E+02  0.10441934219E+02 -0.13100388059E+02  0.41887056149E+02  0.00000000000E+00 0. -1.
</event>
<event>
 8    1  0.6443238E-009  0.9711750E+02  0.7561462E-02  0.1286477E+00
          1   -1    0    0  501    0  0.00000000000E+00  0.00000000000E+00  0.46903761034E+03  0.46903761034E+03  0.00000000000E+00 0. -1.
         -1   -1    0    0    0  501 -0.00000000000E+00 -0.00000000000E+00 -0.27216922602E+02  0.27216922602E+02  0.00000000000E+00 0.  1.
         25    2    1    2    0    0  0.27219029121E+02 -0.12857426696E+02  0.30584913617E+03  0.33180981590E+03  0.12509145001E+03 0.  0.
         23    2    1    2    0    0 -0.27219029121E+02  0.12857426696E+02  0.13597155157E+03  0.16444471704E+03  0.87450632698E+02 0.  0.
          5    1    3    3  502    0  0.37048207183E+02  0.42054021850E+02  0.71864267273E+02  0.91230782743E+02  0.41800000000E+01 0.  1.
         -5    1    3    3    0  502 -0.98291780623E+01 -0.54911448546E+02  0.23398486890E+03  0.24057903316E+03  0.41800000000E+01 0.  1.
        -11    1    4    4    0    0  0.13700997877E+02  0.33549199221E+02  0.99376626915E+02  0.10577797544E+03  0.00000000000E+00 0. -1.
         11    1    4    4    0    0 -0.40920026998E+02 -0.20691772524E+02  0.36594924655E+02  0.58666741602E+02  0.00000000000E+00 0.  1.
</event>
<event>
 8    1  0.6443238E-009  0.7599048E+02  0.7561462E-02  0.1340831E+00
         -1   -1    0    0    0  501 -0.00000000000E+00  0.00000000000E+00  0.81037414127E+02  0.81037414127E+02  0.00000000000E+00 0.  1.
          1   -1    0    0  501    0  0.00000000000E+00 -0.00000000000E+00 -0.21369873751E+03  0.21369873751E+03  0.00000000000E+00 0. -1.
         25    2    1    2    0    0  0.28803447278E+02 -0.49130823625E+02 -0.12683760343E+03  0.18703118818E+03  0.12509760710E+03 0.  0.
         23    2    1    2    0    0 -0.28803447278E+02  0.49130823625E+02 -0.58237199463E+01  0.10770496345E+03  0.91230296687E+02 0.  0.
          5    1    3    3  502    0  0.24295093450E+02 -0.54769822805E+02 -0.14306235131E+00  0.60062283695E+02  0.41800000000E+01 0. -1.
         -5    1    3    3    0  502  0.45083538280E+01  0.56389991805E+01 -0.12669454108E+03  0.12696890448E+03  0.41800000000E+01 0. -1.
        -11    1    4    4    0    0 -0.42000347703E+02  0.11276668387E+02  0.30892371257E+02  0.53343519371E+02  0.00000000000E+00 0.  1.
         11    1    4    4    0    0  0.13196900425E+02  0.37854155238E+02 -0.36716091203E+02  0.54361444084E+02  0.00000000000E+00 0. -1.
</event>
<event>
 8    1  0.6443238E-009  0.1224668E+03  0.7561462E-02  0.1239082E+00
         -4   -1    0    0    0  501 -0.00000000000E+00  0.00000000000E+00  0.12851453192E+03  0.12851453192E+03  0.00000000000E+00 0.  1.
          4   -1    0    0  501    0  0.00000000000E+00 -0.00000000000E+00 -0.18068230247E+03  0.18068230247E+03  0.00000000000E+00 0. -1.
         25    2    1    2    0    0  0.73898845404E+02  0.71246358325E+02 -0.44166274203E+02  0.16773461658E+03  0.12508860418E+03 0.  0.
         23    2    1    2    0    0 -0.73898845404E+02 -0.71246358325E+02 -0.80014963537E+01  0.14146221781E+03  0.97007485265E+02 0.  0.
          5    1    3    3  502    0  0.64658661505E+02  0.87367076971E+02 -0.74555717125E+02  0.13187029992E+03  0.41800000000E+01 0. -1.
         -5    1    3    3    0  502  0.92401838992E+01 -0.16120718646E+02  0.30389442922E+02  0.35864316657E+02  0.41800000000E+01 0. -1.
        -11    1    4    4    0    0 -0.43215945524E+01 -0.41037365005E+02  0.35140280074E+02  0.54199453777E+02  0.00000000000E+00 0.  1.
         11    1    4    4    0    0 -0.69577250852E+02 -0.30208993320E+02 -0.43141776428E+02  0.87262764034E+02  0.00000000000E+00 0. -1.
</event>
<event>
 8    1  0.6443238E-009  0.1172768E+03  0.7561462E-02  0.1247658E+00
          1   -1    0    0  501    0  0.00000000000E+00  0.00000000000E+00  0.37481969013E+03  0.37481969013E+03  0.00000000000E+00 0. -1.
         -1   -1    0    0    0  501 -0.00000000000E+00 -0.00000000000E+00 -0.46449670158E+02  0.46449670158E+02  0.00000000000E+00 0.  1.
         25    2    1    2    0    0 -0.56402451708E+02 -0.47285279931E+02  0.18024486387E+03  0.23142199152E+03  0.12510312926E+03 0.  0.
         23    2    1    2    0    0  0.56402451708E+02  0.47285279931E+02  0.14812515610E+03  0.18984736877E+03  0.93187055444E+02 0.  0.
          5    1    3    3  502    0 -0.56188996046E+02  0.20982274874E+02  0.13926439669E+03  0.15168883849E+03  0.41800000000E+01 0.  1.
         -5    1    3    3    0  502 -0.21345566149E+00 -0.68267554805E+02  0.40980467183E+02  0.79733153035E+02  0.41800000000E+01 0.  1.
        -11    1    4    4    0    0  0.33175247438E+02 -0.17288234640E+02  0.97909531858E+02  0.10481295973E+03  0.00000000000E+00 0.  1.
         11    1    4    4    0    0  0.23227204270E+02  0.64573514570E+02  0.50215624245E+02  0.85034409038E+02  0.00000000000E+00 0. -1.
</event>
<event>
 8    1  0.6443238E-009  0.1069361E+03  0.7561462E-02  0.1266351E+00
          1   -1    0    0  501    0  0.00000000000E+00  0.00000000000E+00  0.95267476004E+03  0.95267476004E+03  0.00000000000E+00 0. -1.
         -1   -1    0    0    0  501 -0.00000000000E+00 -0.00000000000E+00 -0.53875013874E+02  0.53875013874E+02  0.00000000000E+00 0.  1.
         25    2    1    2    0    0 -0.37327019107E+02  0.27897363151E+02  0.86535481046E+03  0.87558791690E+03  0.12507470973E+03 0.  0.
         23    2    1    2    0    0  0.37327019107E+02 -0.27897363151E+02  0.33444935704E+02  0.13096185701E+03  0.11773221751E+03 0.  0.
          5    1    3    3  502    0  0.23084834382E+02  0.14444227283E+02  0.67117715765E+03  0.67174235733E+03  0.41800000000E+01 0.  1.
         -5    1    3    3    0  502 -0.60411853489E+02  0.13453135868E+02  0.19417765281E+03  0.20384555958E+03  0.41800000000E+01 0.  1.
        -11    1    4    4    0    0  0.61504160034E+02  0.24795744568E+02  0.53267200583E+01  0.66527923436E+02  0.00000000000E+00 0.  1.
         11    1    4    4    0    0 -0.24177140927E+02 -0.52693107719E+02  0.28118215645E+02  0.64433933572E+02  0.00000000000E+00 0. -1.
</event>
<event>
 8    1  0.6443238E-009  0.1429641E+03  0.7561462E-02  0.1209395E+00
          4   -1    0    0  501    0  0.00000000000E+00  0.00000000000E+00  0.37169081286E+03  0.37169081286E+03  0.00000000000E+00 0.  1.
         -4   -1    0    0    0  501 -0.00000000000E+00 -0.00000000000E+00 -0.73456087138E+02  0.73456087138E+02  0.00000000000E+00 0. -1.
         25    2    1    2    0    0 -0.11494122716E+03  0.32283127580E+02  0.11327551924E+03  0.20671700899E+03  0.12508753943E+03 0.  0.
         23    2    1    2    0    0  0.11494122716E+03 -0.32283127580E+02  0.18495920648E+03  0.23842989101E+03  0.91570840537E+02 0.  0.
          5    1    3    3  502    0 -0.11657263343E+03  0.11770346582E+02  0.13342455295E+03  0.17761560645E+03  0.41800000000E+01 0. -1.
         -5    1    3    3    0  502  0.16314062747E+01  0.20512780998E+02 -0.20149033707E+02  0.29101402544E+02  0.41800000000E+01 0. -1.
        -11    1    4    4    0    0  0.28205545186E+02 -0.51622049022E+02  0.52037196701E+02  0.78538261790E+02  0.00000000000E+00 0. -1.
         11    1    4    4    0    0  0.86735681972E+02  0.19338921442E+02  0.13292200978E+03  0.15989162922E+03  0.00000000000E+00 0.  1.
</event>
<event>
 8    1  0.6443238E-009  0.9803552E+02  0.7561462E-02  0.1284482E+00
          2   -1    0    0  501    0  0.00000000000E+00  0.00000000000E+00  0.38265258079E+03  0.38265258079E+03  0.00000000000E+00 0.  1.
         -2   -1    0    0    0  501 -0.00000000000E+00 -0.00000000000E+00 -0.33733440119E+02  0.33733440119E+02  0.00000000000E+00 0. -1.
         25    2    1    2    0    0 -0.26728202199E+02  0.85029116012E+01  0.22519861975E+03  0.25913592148E+03  0.12510120369E+03 0.  0.
         23    2    1    2    0    0  0.26728202199E+02 -0.85029116012E+01  0.12372052092E+03  0.15725009943E+03  0.92920020316E+02 0.  0.
          5    1    3    3  502    0 -0.67880096329E+02  0.34311164460E+02  0.16450497845E+03  0.18128520022E+03  0.41800000000E+01 0. -1.
         -5    1    3    3    0  502  0.41151894131E+02 -0.25808252859E+02  0.60693641309E+02  0.77850721265E+02  0.41800000000E+01 0. -1.
        -11    1    4    4    0    0  0.31115374019E+01 -0.35292566162E+02  0.11521312454E+03  0.12053759147E+03  0.00000000000E+00 0.  1.
         11    1    4    4    0    0  0.23616664797E+02  0.26789654561E+02  0.85073963820E+01  0.36712507961E+02  0.00000000000E+00 0. -1.
</event>
<event>
 8    1  0.6443238E-009  0.1068776E+03  0.7561462E-02  0.1266464E+00
         -1   -1    0    0    0  501 -0.00000000000E+00  0.00000000000E+00  0.50383971967E+02  0.50383971967E+02  0.00000000000E+00 0.  1.
          1   -1    0    0  501    0  0.00000000000E+00 -0.00000000000E+00 -0.27328808204E+03  0.27328808204E+03  0.00000000000E+00 0. -1.
         25    2    1    2    0    0  0.80125901346E+01  0.44808155884E+02 -0.12164728747E+03  0.18032545939E+03  0.12508891366E+03 0.  0.
         23    2    1    2    0    0 -0.80125901346E+01 -0.44808155884E+02 -0.10125682261E+03  0.14334659462E+03  0.90682576226E+02 0.  0.
          5    1    3    3  502    0  0.34917347301E+02 -0.21187794605E+02 -0.96095636855E+02  0.10449874452E+03  0.41800000000E+01 0.  1.
         -5    1    3    3    0  502 -0.26904757166E+02  0.65995950490E+02 -0.25551650614E+02  0.75826714872E+02  0.41800000000E+01 0.  1.
        -11    1    4    4    0    0 -0.35283842273E+02  0.12828959762E+02 -0.33694616379E+02  0.50446594603E+02  0.00000000000E+00 0.  1.
         11    1    4    4    0    0  0.27271252138E+02 -0.57637115647E+02 -0.67562206229E+02  0.92900000020E+02  0.00000000000E+00 0. -1.
</event>
<event>
 8    1  0.6443238E-009  0.1329328E+03  0.7561462E-02  0.1223168E+00
         -1   -1    0    0    0  501 -0.00000000000E+00  0.00000000000E+00  0.49643042382E+02  0.49643042382E+02  0.00000000000E+00 0.  1.
          1   -1    0    0  501    0  0.00000000000E+00 -0.00000000000E+00 -0.42252881243E+03  0.42252881243E+03  0.00000000000E+00 0. -1.
         25    2    1    2    0    0  0.23118304643E+02 -0.76507390806E+02 -0.11799749805E+03  0.18963030996E+03  0.12509359716E+03 0.  0.
         23    2    1    2    0    0 -0.23118304643E+02  0.76507390806E+02 -0.25488827200E+03  0.28254154486E+03  0.92053552418E+02 0.  0.
          5    1    3    3  502    0  0.59826431888E+02  0.30689069732E+01 -0.39265263963E+02  0.71748543515E+02  0.41800000000E+01 0. -1.
         -5    1    3    3    0  502 -0.36708127245E+02 -0.79576297779E+02 -0.78732234092E+02  0.11788176644E+03  0.41800000000E+01 0. -1.
        -11    1    4    4    0    0 -0.28677455603E+02 -0.10764830647E+02 -0.10098768068E+03  0.10553098923E+03  0.00000000000E+00 0.  1.
         11    1    4    4    0    0  0.55591509597E+01  0.87272221453E+02 -0.15390059131E+03  0.17701055563E+03  0.00000000000E+00 0. -1.
</event>
<event>
 8    1  0.6443238E-009  0.6089066E+02  0.7561462E-02  0.1394132E+00
         -4   -1    0    0    0  501 -0.00000000000E+00  0.00000000000E+00  0.34037184858E+02  0.34037184858E+02  0.00000000000E+00 0.  1.
          4   -1    0    0  501    0  0.00000000000E+00 -0.00000000000E+00 -0.43322613804E+03  0.43322613804E+03  0.00000000000E+00 0. -1.
         25    2    1    2    0    0 -0.41529845431E+02 -0.15183177691E+02 -0.16104387407E+03  0.20865795370E+03  0.12509098816E+03 0.  0.
         23    2    1    2    0    0  0.41529845431E+02  0.15183177691E+02 -0.23814507910E+03  0.25860536919E+03  0.90600228083E+02 0.  0.
          5    1    3    3  502    0 -0.28148583767E+02  0.10407670334E+01 -0.17865542289E+03  0.18091063675E+03  0.41800000000E+01 0. -1.
         -5    1    3    3    0  502 -0.13381261664E+02 -0.16223944724E+02  0.17611548812E+02  0.27747316946E+02  0.41800000000E+01 0. -1.
        -11    1    4    4    0    0  0.24301617324E+02 -0.20787651108E+02 -0.22011553746E+02  0.38822719398E+02  0.00000000000E+00 0.  1.
         11    1    4    4    0    0  0.17228228107E+02  0.35970828798E+02 -0.21613352536E+03  0.21978264979E+03  0.00000000000E+00 0. -1.
</event>
<event>
 8    1  0.6443238E-009  0.1250603E+03  0.7561462E-02  0.1234975E+00
          2   -1    0    0  501    0  0.00000000000E+00  0.00000000000E+00  0.59878919678E+03  0.59878919678E+03  0.00000000000E+00 0. -1.
         -2   -1    0    0    0  501 -0.00000000000E+00 -0.00000000000E+00 -0.33265726735E+02  0.33265726735E+02  0.00000000000E+00 0.  1.
         25    2    1    2    0    0  0.17145148024E+02 -0.71513299238E+02  0.19197771935E+03  0.24064751837E+03  0.12509066832E+03 0.  0.
         23    2    1    2    0    0 -0.17145148024E+02  0.71513299238E+02  0.37354575069E+03  0.39140740514E+03  0.90858246041E+02 0.  0.
          5    1    3    3  502    0  0.48278673665E+02 -0.91290676311E+02  0.11157565134E+03  0.15209015840E+03  0.41800000000E+01 0.  1.
         -5    1    3    3    0  502 -0.31133525641E+02  0.19777377074E+02  0.80402068016E+02  0.88557359965E+02  0.41800000000E+01 0.  1.
        -11    1    4    4    0    0  0.12050558805E+02  0.78667913304E+02  0.32244221714E+03  0.33211871363E+03  0.00000000000E+00 0.  1.
         11    1    4    4    0    0 -0.29195706829E+02 -0.71546140664E+01  0.51103533553E+02  0.59288691512E+02  0.00000000000E+00 0. -1.
</event>
<event>
 8    1  0.6443238E-009  0.1341062E+03  0.7561462E-02  0.1221487E+00
         -2   -1    0    0    0  501 -0.00000000000E+00  0.00000000000E+00  0.14863603149E+03  0.14863603149E+03  0.00000000000E+00 0.  1.
          2   -1    0    0  501    0  0.00000000000E+00 -0.00000000000E+00 -0.17604081226E+03  0.17604081226E+03  0.00000000000E+00 0. -1.
         25    2    1    2    0    0  0.90644990640E+02 -0.31570017743E+02 -0.82298513453E+02  0.17785904152E+03  0.12509041924E+03 0.  0.
         23    2    1    2    0    0 -0.90644990640E+02  0.31570017743E+02  0.54893732686E+02  0.14681780223E+03  0.96586566431E+02 0.  0.
          5    1    3    3  502    0  0.45172830007E+02 -0.62265808859E+02 -0.94071428759E+02  0.12159161827E+03  0.41800000000E+01 0. -1.
         -5    1    3    3    0  502  0.45472160634E+02  0.30695791116E+02  0.11772915306E+02  0.56267423255E+02  0.41800000000E+01 0. -1.
        -11    1    4    4    0    0  0.74593868085E+01 -0.22798966460E+02  0.87498765253E+01  0.25534205733E+02  0.00000000000E+00 0. -1.
         11    1    4    4    0    0 -0.98104377449E+02  0.54368984203E+02  0.46143856161E+02  0.12128359650E+03  0.00000000000E+00 0.  1.
</event>
<event>
 8    1  0.6443238E-009  0.2334881E+03  0.7561462E-02  0.1124208E+00
          1   -1    0    0  501    0  0.00000000000E+00  0.00000000000E+00  0.41821132816E+03  0.41821132816E+03  0.00000000000E+00 0. -1.
         -1   -1    0    0    0  501 -0.00000000000E+00 -0.00000000000E+00 -0.14202194012E+03  0.14202194012E+03  0.00000000000E+00 0.  1.
         25    2    1    2    0    0  0.69434852607E+01  0.21702702402E+03  0.12690343019E+03  0.28089255622E+03  0.12508879407E+03 0.  0.
         23    2    1    2    0    0 -0.69434852607E+01 -0.21702702402E+03  0.14928595785E+03  0.27934071206E+03  0.92714589244E+02 0.  0.
          5    1    3    3  502    0  0.55186841512E+02  0.12724355929E+03  0.11090889820E+03  0.17763661491E+03  0.41800000000E+01 0. -1.
         -5    1    3    3    0  502 -0.48243356251E+02  0.89783464736E+02  0.15994531987E+02  0.10325594131E+03  0.41800000000E+01 0. -1.
        -11    1    4    4    0    0  0.28257028766E+02 -0.10824034314E+03  0.33884016995E+02  0.11688694609E+03  0.00000000000E+00 0.  1.
         11    1    4    4    0    0 -0.35200514027E+02 -0.10878668088E+03  0.11540194085E+03  0.16245376597E+03  0.00000000000E+00 0. -1.
</event>
<event>
 8    1  0.6443238E-009  0.1713526E+03  0.7561462E-02  0.1176445E+00
         -2   -1    0    0    0  501 -0.00000000000E+00  0.00000000000E+00  0.40680286883E+03  0.40680286883E+03  0.00000000000E+00 0. -1.
          2   -1    0    0  501    0  0.00000000000E+00 -0.00000000000E+00 -0.10594952773E+03  0.10594952773E+03  0.00000000000E+00 0.  1.
         25    2    1    2    0    0 -0.22734256164E+02  0.14825219943E+03  0.41783022163E+02  0.19972842581E+03  0.12510020822E+03 0.  0.
         23    2    1    2    0    0  0.22734256164E+02 -0.14825219943E+03  0.25907031893E+03  0.31302397075E+03  0.91493251512E+02 0.  0.
          5    1    3    3  502    0  0.24911778113E+01 -0.20558337146E+02  0.17177544858E+02  0.27228507863E+02  0.41800000000E+01 0.  1.
         -5    1    3    3    0  502 -0.25225433975E+02  0.16881053657E+03  0.24605477305E+02  0.17249991794E+03  0.41800000000E+01 0.  1.
        -11    1    4    4    0    0  0.11267192674E+02 -0.30172078800E+02  0.49635661384E+01  0.32587435595E+02  0.00000000000E+00 0.  1.
         11    1    4    4    0    0  0.11467063490E+02 -0.11808012063E+03  0.25410675280E+03  0.28043653515E+03  0.00000000000E+00 0. -1.
</event>
<event>
 8    1  0.6443238E-009  0.1052975E+03  0.7561462E-02  0.1269535E+00
          2   -1    0    0  501    0  0.00000000000E+00  0.00000000000E+00  0.89160714880E+03  0.89160714880E+03  0.00000000000E+00 0. -1.
         -2   -1    0    0    0  501 -0.00000000000E+00 -0.00000000000E+00 -0.19471053355E+02  0.19471053355E+02  0.00000000000E+00 0.  1.
         25    2    1    2    0    0  0.10607685695E+02 -0.17282339389E+02  0.72733204282E+03  0.73828798516E+03  0.12508415672E+03 0.  0.
         23    2    1    2    0    0 -0.10607685695E+02  0.17282339389E+02  0.14480405263E+03  0.17279021700E+03  0.92070859576E+02 0.  0.
          5    1    3    3  502    0  0.64484434377E+02 -0.25840336211E+02  0.47672529008E+03  0.48177841365E+03  0.41800000000E+01 0. -1.
         -5    1    3    3    0  502 -0.53876748682E+02  0.85579968225E+01  0.25060675274E+03  0.25650957151E+03  0.41800000000E+01 0. -1.
        -11    1    4    4    0    0  0.32327753328E+02 -0.11817915303E+02  0.94343261174E+02  0.10042608071E+03  0.00000000000E+00 0.  1.
         11    1    4    4    0    0 -0.42935439023E+02  0.29100254691E+02  0.50460791451E+02  0.72364136290E+02  0.00000000000E+00 0. -1.
</event>
<event>
 8    1  0.6443238E-009  0.9712345E+02  0.7561462E-02  0.1286464E+00
          1   -1    0    0  501    0  0.00000000000E+00  0.00000000000E+00  0.42192822403E+03  0.42192822403E+03  0.00000000000E+00 0. -1.
         -1   -1    0    0    0  501 -0.00000000000E+00 -0.00000000000E+00 -0.30141985088E+02  0.30141985088E+02  0.00000000000E+00 0.  1.
         25    2    1    2    0    0 -0.68239804200E+01 -0.62725528257E+00  0.28602138974E+03  0.31225348754E+03  0.12508814867E+03 0.  0.
         23    2    1    2    0    0  0.68239804200E+01  0.62725528257E+00  0.10576484920E+03  0.13981672157E+03  0.91189649337E+02 0.  0.
          5    1    3    3  502    0  0.42485205410E+02 -0.40575452808E+02  0.10507320770E+03  0.12045418808E+03  0.41800000000E+01 0. -1.
         -5    1    3    3    0  502 -0.49309185830E+02  0.39948197526E+02  0.18094818203E+03  0.19179929946E+03  0.41800000000E+01 0. -1.
        -11    1    4    4    0    0  0.68235258691E+01 -0.35235024858E+02  0.96235480501E+02  0.10270995662E+03  0.00000000000E+00 0. -1.
         11    1    4    4    0    0  0.45455096050E-03  0.35862280141E+02  0.95293687005E+01  0.37106764948E+02  0.00000000000E+00 0.  1.
</event>
<event>
 8    1  0.6443238E-009  0.1087578E+03  0.7561462E-02  0.1262888E+00
         -3   -1    0    0    0  501 -0.00000000000E+00  0.00000000000E+00  0.37193692605E+03  0.37193692605E+03  0.00000000000E+00 0.  1.
          3   -1    0    0  501    0  0.00000000000E+00 -0.00000000000E+00 -0.47524293029E+02  0.47524293029E+02  0.00000000000E+00 0. -1.
         25    2    1    2    0    0  0.70876764260E+02 -0.42734137826E+02  0.16179809216E+03  0.22062548781E+03  0.12508901229E+03 0.  0.
         23    2    1    2    0    0 -0.70876764260E+02  0.42734137826E+02  0.16261454086E+03  0.19883573127E+03  0.79009093675E+02 0.  0.
          5    1    3    3  502    0  0.33713231435E+02  0.22826814157E+02 -0.12581174286E+01  0.40947535675E+02  0.41800000000E+01 0.  1.
         -5    1    3    3    0  502  0.37163532824E+02 -0.65560951983E+02  0.16305620959E+03  0.17967795213E+03  0.41800000000E+01 0.  1.
        -11    1    4    4    0    0 -0.77606157941E+02  0.24044299307E+02  0.80574533544E+02  0.11442508263E+03  0.00000000000E+00 0. -1.
         11    1    4    4    0    0  0.67293936810E+01  0.18689838519E+02  0.82040007320E+02  0.84410648643E+02  0.00000000000E+00 0.  1.
</event>
<event>
 8    1  0.6443238E-009  0.1104517E+03  0.7561462E-02  0.1259736E+00
         -2   -1    0    0    0  501 -0.00000000000E+00  0.00000000000E+00  0.21923287385E+02  0.21923287385E+02  0.00000000000E+00 0. -1.
          2   -1    0    0  501    0  0.00000000000E+00 -0.00000000000E+00 -0.71960403386E+03  0.71960403386E+03  0.00000000000E+00 0.  1.
         25    2    1    2    0    0 -0.21257303470E+02  0.35626819123E+02 -0.24520122037E+03  0.27837467830E+03  0.12509068653E+03 0.  0.
         23    2    1    2    0    0  0.21257303470E+02 -0.35626819123E+02 -0.45247952611E+03  0.46315264295E+03  0.89730184051E+02 0.  0.
          5    1    3    3  502    0  0.40658128652E+02 -0.15382685113E+02 -0.13579466358E+03  0.14264421994E+03  0.41800000000E+01 0. -1.
         -5    1    3    3    0  502 -0.61915432122E+02  0.51009504235E+02 -0.10940655679E+03  0.13573045836E+03  0.41800000000E+01 0. -1.
        -11    1    4    4    0    0 -0.32213562186E+02 -0.28399369237E+02 -0.15599341602E+03  0.16179673545E+03  0.00000000000E+00 0. -1.
         11    1    4    4    0    0  0.53470865657E+02 -0.72274498854E+01 -0.29648611009E+03  0.30135590749E+03  0.00000000000E+00 0.  1.
</event>
<event>
 8    1  0.6443238E-009  0.1069987E+03  0.7561462E-02  0.1266231E+00
          2   -1    0    0  501    0  0.00000000000E+00  0.00000000000E+00  0.87759727465E+02  0.87759727465E+02  0.00000000000E+00 0. -1.
         -2   -1    0    0    0  501 -0.00000000000E+00 -0.00000000000E+00 -0.13524672512E+03  0.13524672512E+03  0.00000000000E+00 0.  1.
         25    2    1    2    0    0 -0.72791006105E+01  0.59453433472E+01 -0.13150225979E+02  0.12613373750E+03  0.12509380032E+03 0.  0.
         23    2    1    2    0    0  0.72791006105E+01 -0.59453433472E+01 -0.34336771679E+02  0.96872715092E+02  0.90094265227E+02 0.  0.
          5    1    3    3  502    0  0.63270908752E+01  0.64246491672E+02 -0.13655875023E+02  0.66118069344E+02  0.41800000000E+01 0. -1.
         -5    1    3    3    0  502 -0.13606191486E+02 -0.58301148325E+02  0.50564904461E+00  0.60015668152E+02  0.41800000000E+01 0. -1.
        -11    1    4    4    0    0 -0.38648035898E+02  0.11247843942E+02 -0.23638892799E+02  0.46679566460E+02  0.00000000000E+00 0.  1.
         11    1    4    4    0    0  0.45927136509E+02 -0.17193187289E+02 -0.10697878880E+02  0.50193148632E+02  0.00000000000E+00 0. -1.
</event>
<event>
 8    1  0.6443238E-009  0.8263879E+02  0.7561462E-02  0.1321725E+00
         -2   -1    0    0    0  501 -0.00000000000E+00  0.00000000000E+00  0.46994925218E+02  0.46994925218E+02  0.00000000000E+00 0.  1.
          2   -1    0    0  501    0  0.00000000000E+00 -0.00000000000E+00 -0.33453124047E+03  0.33453124047E+03  0.00000000000E+00 0. -1.
         25    2    1    2    0    0 -0.20183196366E+02  0.26433075962E+02 -0.24184878772E+03  0.27431055309E+03  0.12509745999E+03 0.  0.
         23    2    1    2    0    0  0.20183196366E+02 -0.26433075962E+02 -0.45687527537E+02  0.10721561260E+03  0.91114041137E+02 0.  0.
          5    1    3    3  502    0 -0.14498598123E+02 -0.29570905891E+02 -0.20321482245E+03  0.20590867948E+03  0.41800000000E+01 0.  1.
         -5    1    3    3    0  502 -0.56845982434E+01  0.56003981853E+02 -0.38633965265E+02  0.68401873605E+02  0.41800000000E+01 0.  1.
        -11    1    4    4    0    0 -0.19205329684E+02 -0.30491327709E+02  0.11349931672E+02  0.37780771600E+02  0.00000000000E+00 0.  1.
         11    1    4    4    0    0  0.39388526050E+02  0.40582517465E+01 -0.57037459209E+02  0.69434841000E+02  0.00000000000E+00 0. -1.
</event>
<event>
 8    1  0.6443238E-009  0.1203679E+03  0.7561462E-02  0.1242491E+00
         -1   -1    0    0    0  501 -0.00000000000E+00  0.00000000000E+00  0.37338785181E+02  0.37338785181E+02  0.00000000000E+00 0.  1.
          1   -1    0    0  501    0  0.00000000000E+00 -0.00000000000E+00 -0.41234464829E+03  0.41234464829E+03  0.00000000000E+00 0. -1.
         25    2    1    2    0    0 -0.11134844013E+02 -0.59266075355E+02 -0.18985048029E+03  0.23521635948E+03  0.12508828267E+03 0.  0.
         23    2    1    2    0    0  0.11134844013E+02  0.59266075355E+02 -0.18515538282E+03  0.21446707400E+03  0.89873008191E+02 0.  0.
          5    1    3    3  502    0 -0.22434149945E+02 -0.94646542339E+02 -0.16038802713E+03  0.18762476038E+03  0.41800000000E+01 0. -1.
         -5    1    3    3    0  502  0.11299305932E+02  0.35380466983E+02 -0.29462453157E+02  0.47591599096E+02  0.41800000000E+01 0. -1.
        -11    1    4    4    0    0 -0.30490150605E+02 -0.34968323207E+01 -0.35474322947E+02  0.46907405692E+02  0.00000000000E+00 0. -1.
         11    1    4    4    0    0  0.41624994618E+02  0.62762907676E+02 -0.14968105988E+03  0.16755966831E+03  0.00000000000E+00 0.  1.
</event>
<event>
 8    1  0.6443238E-009  0.1017483E+03  0.7561462E-02  0.1276662E+00
          1   -1    0    0  501    0  0.00000000000E+00  0.00000000000E+00  0.35528074231E+03  0.35528074231E+03  0.00000000000E+00 0. -1.
         -1   -1    0    0    0  501 -0.00000000000E+00 -0.00000000000E+00 -0.36594117594E+02  0.36594117594E+02  0.00000000000E+00 0.  1.
         25    2    1    2    0    0  0.19424804429E+02  0.22756540810E+02  0.14841056192E+03  0.19639105761E+03  0.12509424225E+03 0.  0.
         23    2    1    2    0    0 -0.19424804429E+02 -0.22756540810E+02  0.17027606279E+03  0.19548380229E+03  0.91240321240E+02 0.  0.
          5    1    3    3  502    0  0.62860359141E+02 -0.17853761453E+02  0.10033099151E+03  0.11980802063E+03  0.41800000000E+01 0.  1.
         -5    1    3    3    0  502 -0.43435554712E+02  0.40610302263E+02  0.48079570410E+02  0.76583036985E+02  0.41800000000E+01 0.  1.
        -11    1    4    4    0    0 -0.14685565334E+02 -0.49301416169E+02  0.48301778288E+02  0.70564560873E+02  0.00000000000E+00 0.  1.
         11    1    4    4    0    0 -0.47392390954E+01  0.26544875360E+02  0.12197428450E+03  0.12491924141E+03  0.00000000000E+00 0. -1.
</event>
<event>
 8    1  0.6443238E-009  0.7461568E+02  0.7561462E-02  0.1345065E+00
         -4   -1    0    0    0  501 -0.00000000000E+00  0.00000000000E+00  0.81937564829E+02  0.81937564829E+02  0.00000000000E+00 0.  1.
          4   -1    0    0  501    0  0.00000000000E+00 -0.00000000000E+00 -0.14828538439E+03  0.14828538439E+03  0.00000000000E+00 0. -1.
         25    2    1    2    0    0  0.41443231282E+01 -0.29694862678E+02 -0.36482631478E+02  0.13370616423E+03  0.12508955061E+03 0.  0.
         23    2    1    2    0    0 -0.41443231282E+01  0.29694862678E+02 -0.29865188083E+02  0.96516784985E+02  0.86744452509E+02 0.  0.
          5    1    3    3  502    0 -0.12461220756E+02 -0.42199968799E+02 -0.76538693015E+02  0.88384180246E+02  0.41800000000E+01 0. -1.
         -5    1    3    3    0  502  0.16605543884E+02  0.12505106121E+02  0.40056061537E+02  0.45321983988E+02  0.41800000000E+01 0. -1.
        -11    1    4    4    0    0 -0.35124922166E+02  0.38006756311E+02  0.13350693306E+01  0.51769258180E+02  0.00000000000E+00 0.  1.
         11    1    4    4    0    0  0.30980599037E+02 -0.83118936333E+01 -0.31200257414E+02  0.44747526805E+02  0.00000000000E+00 0. -1.
</event>
<event>
 8    1  0.6443238E-009  0.2026550E+03  0.7561462E-02  0.1147518E+00
         -2   -1    0    0    0  501 -0.00000000000E+00  0.00000000000E+00  0.49160275767E+02  0.49160275767E+02  0.00000000000E+00 0.  1.
          2   -1    0    0  501    0  0.00000000000E+00 -0.00000000000E+00 -0.97673006482E+03  0.97673006482E+03  0.00000000000E+00 0. -1.
         25    2    1    2    0    0 -0.11010212425E+03 -0.15487635968E+03 -0.49473984522E+03  0.54454111456E+03  0.12509335089E+03 0.  0.
         23    2    1    2    0    0  0.11010212425E+03  0.15487635968E+03 -0.43282994383E+03  0.48134922603E+03  0.90808328785E+02 0.  0.
          5    1    3    3  502    0 -0.37385961566E+02 -0.11095593359E+03 -0.40191026585E+03  0.41863858341E+03  0.41800000000E+01 0. -1.
         -5    1    3    3    0  502 -0.72716162679E+02 -0.43920426092E+02 -0.92829579376E+02  0.12590253115E+03  0.41800000000E+01 0. -1.
        -11    1    4    4    0    0  0.68558992686E+02  0.36557973466E+02 -0.23118844539E+03  0.24389530168E+03  0.00000000000E+00 0. -1.
         11    1    4    4    0    0  0.41543131559E+02  0.11831838621E+03 -0.20164149844E+03  0.23745392435E+03  0.00000000000E+00 0.  1.
</event>
<event>
 8    1  0.6443238E-009  0.1103980E+03  0.7561462E-02  0.1259835E+00
          2   -1    0    0  501    0  0.00000000000E+00  0.00000000000E+00  0.13064099360E+03  0.13064099360E+03  0.00000000000E+00 0.  1.
         -2   -1    0    0    0  501 -0.00000000000E+00 -0.00000000000E+00 -0.15907455359E+03  0.15907455359E+03  0.00000000000E+00 0. -1.
         25    2    1    2    0    0  0.73452441264E+02  0.48335208966E+02  0.17354146971E+02  0.15388768608E+03  0.12509476390E+03 0.  0.
         23    2    1    2    0    0 -0.73452441264E+02 -0.48335208966E+02 -0.45787706953E+02  0.13582786111E+03  0.92850095277E+02 0.  0.
          5    1    3    3  502    0  0.30853061545E+02  0.45553473060E+02  0.67966303675E+02  0.87543824167E+02  0.41800000000E+01 0.  1.
         -5    1    3    3    0  502  0.42599379719E+02  0.27817359061E+01 -0.50612156703E+02  0.66343861911E+02  0.41800000000E+01 0.  1.
        -11    1    4    4    0    0 -0.61249236548E+00  0.21681406236E+02 -0.24228119832E+02  0.32518614882E+02  0.00000000000E+00 0. -1.
         11    1    4    4    0    0 -0.72839948898E+02 -0.70016615202E+02 -0.21559587121E+02  0.10330924623E+03  0.00000000000E+00 0.  1.
</event>
<event>
 8    1  0.6443238E-009  0.9437734E+02  0.7561462E-02  0.1292585E+00
         -2   -1    0    0    0  501 -0.00000000000E+00  0.00000000000E+00  0.27710903259E+02  0.27710903259E+02  0.00000000000E+00 0.  1.
          2   -1    0    0  501    0  0.00000000000E+00 -0.00000000000E+00 -0.66264620198E+03  0.66264620198E+03  0.00000000000E+00 0. -1.
         25    2    1    2    0    0  0.16443576317E+02 -0.56129150117E+02 -0.48404590636E+03  0.50335757056E+03  0.12509009426E+03 0.  0.
         23    2    1    2    0    0 -0.16443576317E+02  0.56129150117E+02 -0.15088939237E+03  0.18699953468E+03  0.93703492719E+02 0.  0.
          5    1    3    3  502    0  0.55867711146E+01  0.13769177306E+02 -0.36127725725E+03  0.36160687391E+03  0.41800000000E+01 0.  1.
         -5    1    3    3    0  502  0.10856805202E+02 -0.69898327423E+02 -0.12276864911E+03  0.14175069665E+03  0.41800000000E+01 0.  1.
        -11    1    4    4    0    0  0.20875865339E+02  0.61323561137E+02 -0.58745691904E+02  0.87449626766E+02  0.00000000000E+00 0.  1.
         11    1    4    4    0    0 -0.37319441656E+02 -0.51944110197E+01 -0.92143700461E+02  0.99549907916E+02  0.00000000000E+00 0. -1.
</event>
<event>
 8    1  0.6443238E-009  0.9036496E+02  0.7561462E-02  0.1301970E+00
         -4   -1    0    0    0  501 -0.00000000000E+00  0.00000000000E+00  0.15416369500E+03  0.15416369500E+03  0.00000000000E+00 0. -1.
          4   -1    0    0  501    0  0.00000000000E+00 -0.00000000000E+00 -0.86270125039E+02  0.86270125039E+02  0.00000000000E+00 0.  1.
         25    2    1    2    0    0 -0.20357793372E+02 -0.21862968707E+02  0.99828144336E+01  0.12899565950E+03  0.12509114451E+03 0.  0.
         23    2    1    2    0    0  0.20357793372E+02  0.21862968707E+02  0.57910755529E+02  0.11143816054E+03  0.90401210537E+02 0.  0.
          5    1    3    3  502    0 -0.73298749888E+02 -0.10599186226E+02  0.27615456216E+01  0.74230371264E+02  0.41800000000E+01 0.  1.
         -5    1    3    3    0  502  0.52940956516E+02 -0.11263782481E+02  0.72212688121E+01  0.54765288238E+02  0.41800000000E+01 0.  1.
        -11    1    4    4    0    0  0.15765143689E+02 -0.10909083014E+02 -0.19441684845E+02  0.27304339533E+02  0.00000000000E+00 0.  1.
         11    1    4    4    0    0  0.45926496824E+01  0.32772051721E+02  0.77352440374E+02  0.84133821005E+02  0.00000000000E+00 0. -1.
</event>
<event>
 8    1  0.6443238E-009  0.1207304E+03  0.7561462E-02  0.1241897E+00
         -1   -1    0    0    0  501 -0.00000000000E+00  0.00000000000E+00  0.24070124893E+03  0.24070124893E+03  0.00000000000E+00 0.  1.
          1   -1    0    0  501    0  0.00000000000E+00 -0.00000000000E+00 -0.90568606291E+02  0.90568606291E+02  0.00000000000E+00 0. -1.
         25    2    1    2    0    0 -0.13968190794E+02 -0.98572686454E+02  0.85510544257E+02  0.18130510863E+03  0.12509118420E+03 0.  0.
         23    2    1    2    0    0  0.13968190794E+02  0.98572686454E+02  0.64622098378E+02  0.14996474659E+03  0.91660922715E+02 0.  0.
          5    1    3    3  502    0  0.96692112631E+01 -0.96875800967E+02  0.53313039488E+01  0.97592569703E+02  0.41800000000E+01 0.  1.
         -5    1    3    3    0  502 -0.23637402057E+02 -0.16968854862E+01  0.80179240308E+02  0.83712538922E+02  0.41800000000E+01 0.  1.
        -11    1    4    4    0    0 -0.27021378053E+02  0.45084873345E+02  0.63679614302E+02  0.82570539262E+02  0.00000000000E+00 0.  1.
         11    1    4    4    0    0  0.40989568847E+02  0.53487813109E+02  0.94248407590E+00  0.67394207330E+02  0.00000000000E+00 0. -1.
</event>
<event>
 8    1  0.6443238E-009  0.1134453E+03  0.7561462E-02  0.1254320E+00
          1   -1    0    0  501    0  0.00000000000E+00  0.00000000000E+00  0.62742132482E+03  0.62742132482E+03  0.00000000000E+00 0. -1.
         -1   -1    0    0    0  501 -0.00000000000E+00 -0.00000000000E+00 -0.26989971304E+02  0.26989971304E+02  0.00000000000E+00 0.  1.
         25    2    1    2    0    0  0.36120579875E+02  0.59844358319E+02  0.37095372322E+03  0.39766801885E+03  0.12508854838E+03 0.  0.
         23    2    1    2    0    0 -0.36120579875E+02 -0.59844358319E+02  0.22947763030E+03  0.25674327727E+03  0.91493628754E+02 0.  0.
          5    1    3    3  502    0 -0.41874773591E+02 -0.36281880881E+01  0.12381123003E+03  0.13081801671E+03  0.41800000000E+01 0. -1.
         -5    1    3    3    0  502  0.77995353466E+02  0.63472546407E+02  0.24714249318E+03  0.26685000215E+03  0.41800000000E+01 0. -1.
        -11    1    4    4    0    0 -0.49537003143E+01 -0.51505161032E+02  0.42377420592E+02  0.66881735442E+02  0.00000000000E+00 0.  1.
         11    1    4    4    0    0 -0.31166879561E+02 -0.83391972876E+01  0.18710020970E+03  0.18986154183E+03  0.00000000000E+00 0. -1.
</event>
<event>
 8    1  0.6443238E-009  0.1278831E+03  0.7561462E-02  0.1230631E+00
          1   -1    0    0  501    0  0.00000000000E+00  0.00000000000E+00  0.43036549583E+02  0.43036549583E+02  0.00000000000E+00 0. -1.
         -1   -1    0    0    0  501 -0.00000000000E+00 -0.00000000000E+00 -0.38692153551E+03  0.38692153551E+03  0.00000000000E+00 0.  1.
         25    2    1    2    0    0  0.56932716971E+02 -0.44666063661E+02 -0.20686648623E+03  0.25234078719E+03  0.12508292551E+03 0.  0.
         23    2    1    2    0    0 -0.56932716971E+02  0.44666063661E+02 -0.13701849970E+03  0.17761729790E+03  0.86818452808E+02 0.  0.
          5    1    3    3  502    0 -0.40053788665E+02 -0.15323648932E+02 -0.60811900660E+02  0.74529724708E+02  0.41800000000E+01 0.  1.
         -5    1    3    3    0  502  0.96986505637E+02 -0.29342414729E+02 -0.14605458557E+03  0.17781106249E+03  0.41800000000E+01 0.  1.
        -11    1    4    4    0    0  0.19723743202E+02  0.25517994070E+02 -0.54809207063E+02  0.63594364893E+02  0.00000000000E+00 0.  1.
         11    1    4    4    0    0 -0.76656460173E+02  0.19148069591E+02 -0.82209292641E+02  0.11402293301E+03  0.00000000000E+00 0. -1.
</event>
<event>
 8    1  0.6443238E-009  0.1983726E+03  0.7561462E-02  0.1151119E+00
          1   -1    0    0  501    0  0.00000000000E+00  0.00000000000E+00  0.24291986722E+03  0.24291986722E+03  0.00000000000E+00 0. -1.
         -1   -1    0    0    0  501 -0.00000000000E+00 -0.00000000000E+00 -0.19987966702E+03  0.19987966702E+03  0.00000000000E+00 0.  1.
         25    2    1    2    0    0 -0.29076139813E+02  0.17522913855E+03  0.92167518246E+02  0.23599140996E+03  0.12508565565E+03 0.  0.
         23    2    1    2    0    0  0.29076139813E+02 -0.17522913855E+03 -0.49127318046E+02  0.20680812429E+03  0.93837273977E+02 0.  0.
          5    1    3    3  502    0 -0.71224103852E+02  0.14536934585E+03  0.50899210050E+02  0.16974487228E+03  0.41800000000E+01 0. -1.
         -5    1    3    3    0  502  0.42147964039E+02  0.29859792705E+02  0.41268308195E+02  0.66246537678E+02  0.41800000000E+01 0. -1.
        -11    1    4    4    0    0 -0.69887269310E+01 -0.92215174420E+02 -0.67448234763E+02  0.11446285454E+03  0.00000000000E+00 0.  1.
         11    1    4    4    0    0  0.36064866744E+02 -0.83013964134E+02  0.18320916717E+02  0.92345269743E+02  0.00000000000E+00 0. -1.
</event>
<event>
 8    1  0.6443238E-009  0.1068424E+03  0.7561462E-02  0.1266532E+00
          1   -1    0    0  501    0  0.00000000000E+00  0.00000000000E+00  0.10397409845E+03  0.10397409845E+03  0.00000000000E+00 0. -1.
         -1   -1    0    0    0  501 -0.00000000000E+00 -0.00000000000E+00 -0.16382911295E+03  0.16382911295E+03  0.00000000000E+00 0.  1.
         25    2    1    2    0    0  0.64367832652E+02  0.23893851428E+02 -0.57782944422E+02  0.15395034460E+03  0.12509079071E+03 0.  0.
         23    2    1    2    0    0 -0.64367832652E+02 -0.23893851428E+02 -0.20720700845E+01  0.11385286679E+03  0.90796738855E+02 0.  0.
          5    1    3    3  502    0  0.45202102675E+02 -0.21914600028E+02  0.25809988818E+02  0.56631331465E+02  0.41800000000E+01 0. -1.
         -5    1    3    3    0  502  0.19165729976E+02  0.45808451456E+02 -0.83592933241E+02  0.97319013138E+02  0.41800000000E+01 0. -1.
        -11    1    4    4    0    0 -0.55360352911E+02 -0.56807413263E+02  0.28694789337E+01  0.79373073428E+02  0.00000000000E+00 0.  1.
         11    1    4    4    0    0 -0.90074797407E+01  0.32913561835E+02 -0.49415490182E+01  0.34479793367E+02  0.00000000000E+00 0. -1.
</event>
<event>
 8    1  0.6443238E-009  0.1052123E+03  0.7561462E-02  0.1269702E+00
         -2   -1    0    0    0  501 -0.00000000000E+00  0.00000000000E+00  0.48287146206E+02  0.48287146206E+02  0.00000000000E+00 0.  1.
          2   -1    0    0  501    0  0.00000000000E+00 -0.00000000000E+00 -0.32812361242E+03  0.32812361242E+03  0.00000000000E+00 0. -1.
         25    2    1    2    0    0  0.54091054572E+00  0.21164907366E+02 -0.65701532724E+02  0.14286894271E+03  0.12508636017E+03 0.  0.
         23    2    1    2    0    0 -0.54091054572E+00 -0.21164907366E+02 -0.21413493349E+03  0.23354181592E+03  0.90773146650E+02 0.  0.
          5    1    3    3  502    0  0.28821515886E+02 -0.42754386327E+02 -0.48172446676E+02  0.70687158288E+02  0.41800000000E+01 0. -1.
         -5    1    3    3    0  502 -0.28280605340E+02  0.63919293693E+02 -0.17529086048E+02  0.72181784421E+02  0.41800000000E+01 0. -1.
        -11    1    4    4    0    0 -0.22291030766E+02 -0.48714374003E+02 -0.91979375954E+02  0.10644334591E+03  0.00000000000E+00 0.  1.
         11    1    4    4    0    0  0.21750120220E+02  0.27549466637E+02 -0.12215555754E+03  0.12709847001E+03  0.00000000000E+00 0. -1.
</event>
<event>
 8    1  0.6443238E-009  0.1174072E+03  0.7561462E-02  0.1247437E+00
          2   -1    0    0  501    0  0.00000000000E+00  0.00000000000E+00  0.30719521569E+03  0.30719521569E+03  0.00000000000E+00 0.  1.
         -2   -1    0    0    0  501 -0.00000000000E+00 -0.00000000000E+00 -0.11433179230E+03  0.11433179230E+03  0.00000000000E+00 0. -1.
         25    2    1    2    0    0  0.11335014029E+03 -0.18164181011E+01  0.21661733060E+03  0.27463019269E+03  0.12508845328E+03 0.  0.
         23    2    1    2    0    0 -0.11335014029E+03  0.18164181011E+01 -0.23753907201E+02  0.14689681530E+03  0.90348616802E+02 0.  0.
          5    1    3    3  502    0  0.25315376584E+02 -0.99903914031E+01  0.17440925994E+03  0.17656935908E+03  0.41800000000E+01 0.  1.
         -5    1    3    3    0  502  0.88034763709E+02  0.81739733019E+01  0.42208070654E+02  0.98060833615E+02  0.41800000000E+01 0.  1.
        -11    1    4    4    0    0 -0.81991878282E+01  0.10427201438E+02 -0.38174015526E+02  0.40412976533E+02  0.00000000000E+00 0. -1.
         11    1    4    4    0    0 -0.10515095247E+03 -0.86107833373E+01  0.14420108325E+02  0.10648383876E+03  0.00000000000E+00 0.  1.
</event>
<event>
 8    1  0.6443238E-009  0.2590136E+03  0.7561462E-02  0.1107737E+00
         -4   -1    0    0    0  501 -0.00000000000E+00  0.00000000000E+00  0.45721929831E+03  0.45721929831E+03  0.00000000000E+00 0.  1.
          4   -1    0    0  501    0  0.00000000000E+00 -0.00000000000E+00 -0.17617808468E+03  0.17617808468E+03  0.00000000000E+00 0. -1.
         25    2    1    2    0    0 -0.13082587919E+03  0.21810042856E+03  0.21222870666E+03  0.35407992058E+03  0.12509339961E+03 0.  0.
         23    2    1    2    0    0  0.13082587919E+03 -0.21810042856E+03  0.68812506968E+02  0.27931746241E+03  0.92735516865E+02 0.  0.
          5    1    3    3  502    0 -0.18804222610E+02  0.56314558762E+01 -0.13702231072E+02  0.24300938657E+02  0.41800000000E+01 0. -1.
         -5    1    3    3    0  502 -0.11202165658E+03  0.21246897268E+03  0.22593093773E+03  0.32977898192E+03  0.41800000000E+01 0. -1.
        -11    1    4    4    0    0  0.79326160144E+02 -0.91753189637E+02 -0.10084327361E+02  0.12170859111E+03  0.00000000000E+00 0. -1.
         11    1    4    4    0    0  0.51499719047E+02 -0.12634723892E+03  0.78896834329E+02  0.15760887130E+03  0.00000000000E+00 0.  1.
</event>
<event>
 8    1  0.6443238E-009  0.1627401E+03  0.7561462E-02  0.1185637E+00
         -1   -1    0    0    0  501 -0.00000000000E+00  0.00000000000E+00  0.41947460706E+02  0.41947460706E+02  0.00000000000E+00 0.  1.
          1   -1    0    0  501    0  0.00000000000E+00 -0.00000000000E+00 -0.74726615221E+03  0.74726615221E+03  0.00000000000E+00 0. -1.
         25    2    1    2    0    0 -0.32834769375E+02  0.13050608024E+03 -0.45507849222E+03  0.49076996815E+03  0.12509503784E+03 0.  0.
         23    2    1    2    0    0  0.32834769375E+02 -0.13050608024E+03 -0.25024019928E+03  0.29844364477E+03  0.91315347585E+02 0.  0.
          5    1    3    3  502    0 -0.76676713020E+01 -0.23866367209E+02 -0.42502857654E+02  0.49521328493E+02  0.41800000000E+01 0. -1.
         -5    1    3    3    0  502 -0.25167098073E+02  0.15437244745E+03 -0.41257563457E+03  0.44124863966E+03  0.41800000000E+01 0. -1.
        -11    1    4    4    0    0  0.41659870598E+02 -0.63057015777E+02 -0.20021928299E+03  0.21400816185E+03  0.00000000000E+00 0. -1.
         11    1    4    4    0    0 -0.88251012229E+01 -0.67449064468E+02 -0.50020916296E+02  0.84435482922E+02  0.00000000000E+00 0.  1.
</event>
<event>
 8    1  0.6443238E-009  0.2022132E+03  0.7561462E-02  0.1147885E+00
          2   -1    0    0  501    0  0.00000000000E+00  0.00000000000E+00  0.11343977807E+04  0.11343977807E+04  0.00000000000E+00 0. -1.
         -2   -1    0    0    0  501 -0.00000000000E+00 -0.00000000000E+00 -0.38087465476E+02  0.38087465476E+02  0.00000000000E+00 0.  1.
         25    2    1    2    0    0  0.17139904162E+03 -0.36938310634E+02  0.61971257991E+03  0.65607334616E+03  0.12508590482E+03 0.  0.
         23    2    1    2    0    0 -0.17139904162E+03  0.36938310634E+02  0.47659773531E+03  0.51641190001E+03  0.93775150813E+02 0.  0.
          5    1    3    3  502    0  0.86966342014E+02 -0.73354117688E+02  0.24405580645E+03  0.26930406659E+03  0.41800000000E+01 0. -1.
         -5    1    3    3    0  502  0.84432699607E+02  0.36415807054E+02  0.37565677347E+03  0.38676927957E+03  0.41800000000E+01 0. -1.
        -11    1    4    4    0    0 -0.93156780979E+02 -0.27542966980E+02  0.21894319449E+03  0.23952645634E+03  0.00000000000E+00 0. -1.
         11    1    4    4    0    0 -0.78242260642E+02  0.64481277614E+02  0.25765454082E+03  0.27688544367E+03  0.00000000000E+00 0.  1.
</event>
<event>
 8    1  0.6443238E-009  0.1429693E+03  0.7561462E-02  0.1209388E+00
          1   -1    0    0  501    0  0.00000000000E+00  0.00000000000E+00  0.17676413062E+03  0.17676413062E+03  0.00000000000E+00 0. -1.
         -1   -1    0    0    0  501 -0.00000000000E+00 -0.00000000000E+00 -0.17090016987E+03  0.17090016987E+03  0.00000000000E+00 0.  1.
         25    2    1    2    0    0 -0.53265757265E+02  0.10661072504E+03 -0.59556955832E+02  0.18275356616E+03  0.12509495340E+03 0.  0.
         23    2    1    2    0    0  0.53265757265E+02 -0.10661072504E+03  0.65420916584E+02  0.16491073434E+03  0.93341129106E+02 0.  0.
          5    1    3    3  502    0 -0.74688575914E+02  0.84904246128E+02  0.28221703281E+01  0.11319254140E+03  0.41800000000E+01 0.  1.
         -5    1    3    3    0  502  0.21422818649E+02  0.21706478907E+02 -0.62379126161E+02  0.69561024762E+02  0.41800000000E+01 0.  1.
        -11    1    4    4    0    0 -0.96029741272E+01 -0.67015504033E+02  0.28253312978E+01  0.67758965384E+02  0.00000000000E+00 0.  1.
         11    1    4    4    0    0  0.62868731393E+02 -0.39595221002E+02  0.62595585286E+02  0.97151768952E+02  0.00000000000E+00 0. -1.
</event>
<event>
 8    1  0.6443238E-009  0.1591660E+03  0.7561462E-02  0.1189642E+00
         -2   -1    0    0    0  501 -0.00000000000E+00  0.00000000000E+00  0.31581582492E+02  0.31581582492E+02  0.00000000000E+00 0. -1.
          2   -1    0    0  501    0  0.00000000000E+00 -0.00000000000E+00 -0.10760476381E+04  0.10760476381E+04  0.00000000000E+00 0.  1.
         25    2    1    2    0    0 -0.14354927890E+03 -0.24009927832E+01 -0.43494285341E+03  0.47480009734E+03  0.12509071291E+03 0.  0.
         23    2    1    2    0    0  0.14354927890E+03  0.24009927832E+01 -0.60952320219E+03  0.63282912325E+03  0.91334577167E+02 0.  0.
          5    1    3    3  502    0 -0.35060621575E+02  0.21853388590E+02 -0.21714559389E+02  0.46859494956E+02  0.41800000000E+01 0. -1.
         -5    1    3    3    0  502 -0.10848865732E+03 -0.24254381373E+02 -0.41322829402E+03  0.42794060238E+03  0.41800000000E+01 0. -1.
        -11    1    4    4    0    0  0.80402100815E+02 -0.39697723530E+02 -0.40157825689E+03  0.41146749991E+03  0.00000000000E+00 0.  1.
         11    1    4    4    0    0  0.63147178083E+02  0.42098716313E+02 -0.20794494529E+03  0.22136162334E+03  0.00000000000E+00 0. -1.
</event>
<event>
 8    1  0.6443238E-009  0.1725777E+03  0.7561462E-02  0.1175186E+00
         -1   -1    0    0    0  501 -0.00000000000E+00  0.00000000000E+00  0.52009222986E+02  0.52009222986E+02  0.00000000000E+00 0.  1.
          1   -1    0    0  501    0  0.00000000000E+00 -0.00000000000E+00 -0.57641859472E+03  0.57641859472E+03  0.00000000000E+00 0. -1.
         25    2    1    2    0    0 -0.10439748558E+03 -0.84200486483E+02 -0.30188817826E+03  0.35323079934E+03  0.12508784318E+03 0.  0.
         23    2    1    2    0    0  0.10439748558E+03  0.84200486483E+02 -0.22252119348E+03  0.27519701837E+03  0.90714720155E+02 0.  0.
          5    1    3    3  502    0 -0.82042123066E+02  0.13253433239E+02 -0.13080406752E+03  0.15502819076E+03  0.41800000000E+01 0.  1.
         -5    1    3    3    0  502 -0.22355362511E+02 -0.97453919721E+02 -0.17108411074E+03  0.19820260858E+03  0.41800000000E+01 0.  1.
        -11    1    4    4    0    0  0.62300716477E+02  0.99235358186E+02 -0.16400207844E+03  0.20155822316E+03  0.00000000000E+00 0.  1.
         11    1    4    4    0    0  0.42096769100E+02 -0.15034871704E+02 -0.58519115032E+02  0.73638795210E+02  0.00000000000E+00 0. -1.
</event>
<event>
 8    1  0.6443238E-009  0.1007220E+03  0.7561462E-02  0.1278785E+00
         -3   -1    0    0    0  501 -0.00000000000E+00  0.00000000000E+00  0.49707644007E+03  0.49707644007E+03  0.00000000000E+00 0.  1.
          3   -1    0    0  501    0  0.00000000000E+00 -0.00000000000E+00 -0.47827024056E+02  0.47827024056E+02  0.00000000000E+00 0. -1.
         25    2    1    2    0    0 -0.18654768926E+02 -0.85111931819E+02  0.36866367203E+03  0.39893936872E+03  0.12509066913E+03 0.  0.
         23    2    1    2    0    0  0.18654768926E+02  0.85111931819E+02  0.80585743992E+02  0.14596409541E+03  0.84967132893E+02 0.  0.
          5    1    3    3  502    0  0.35629999340E+01 -0.36692064663E+02  0.13043901830E+02  0.39327068956E+02  0.41800000000E+01 0.  1.
         -5    1    3    3    0  502 -0.22217768860E+02 -0.48419867157E+02  0.35561977020E+03  0.35961229977E+03  0.41800000000E+01 0.  1.
        -11    1    4    4    0    0  0.20550712816E+02 -0.46936041294E+01 -0.52467328111E+01  0.21723027463E+02  0.00000000000E+00 0. -1.
         11    1    4    4    0    0 -0.18959438899E+01  0.89805535949E+02  0.85832476803E+02  0.12424106795E+03  0.00000000000E+00 0.  1.
</event>
<event>
 8    1  0.6443238E-009  0.1131352E+03  0.7561462E-02  0.1254872E+00
         -1   -1    0    0    0  501 -0.00000000000E+00  0.00000000000E+00  0.63148707986E+02  0.63148707986E+02  0.00000000000E+00 0.  1.
          1   -1    0    0  501    0  0.00000000000E+00 -0.00000000000E+00 -0.26086281636E+03  0.26086281636E+03  0.00000000000E+00 0. -1.
         25    2    1    2    0    0 -0.44560515296E+02 -0.44652114545E+02 -0.14328393076E+03  0.20039165804E+03  0.12508829258E+03 0.  0.
         23    2    1    2    0    0  0.44560515296E+02  0.44652114545E+02 -0.54430177614E+02  0.12361986630E+03  0.91322375424E+02 0.  0.
          5    1    3    3  502    0  0.48913528385E+01  0.35222034319E+02 -0.98208055587E+01  0.37127316843E+02  0.41800000000E+01 0. -1.
         -5    1    3    3    0  502 -0.49451868134E+02 -0.79874148864E+02 -0.13346312520E+03  0.16326434120E+03  0.41800000000E+01 0. -1.
        -11    1    4    4    0    0 -0.19927829925E+02  0.17263813177E+02 -0.46041242075E+02  0.53056136523E+02  0.00000000000E+00 0. -1.
         11    1    4    4    0    0  0.64488345221E+02  0.27388301368E+02 -0.83889355391E+01  0.70563729781E+02  0.00000000000E+00 0.  1.
</event>
<event>
 8    1  0.6443238E-009  0.1063127E+03  0.7561462E-02  0.1267555E+00
         -1   -1    0    0    0  501 -0.00000000000E+00  0.00000000000E+00  0.13814890424E+03  0.13814890424E+03  0.00000000000E+00 0.  1.
          1   -1    0    0  501    0  0.00000000000E+00 -0.00000000000E+00 -0.11440415930E+03  0.11440415930E+03  0.00000000000E+00 0. -1.
         25    2    1    2    0    0  0.18761611993E+02  0.29519990331E+01 -0.48245735479E+02  0.13541024757E+03  0.12509025450E+03 0.  0.
         23    2    1    2    0    0 -0.18761611993E+02 -0.29519990331E+01  0.71990480425E+02  0.11714281597E+03  0.90438363979E+02 0.  0.
          5    1    3    3  502    0  0.71297500954E+02 -0.51526194783E+01 -0.38175109826E+02  0.81146130777E+02  0.41800000000E+01 0. -1.
         -5    1    3    3    0  502 -0.52535888961E+02  0.81046185115E+01 -0.10070625653E+02  0.54264116792E+02  0.41800000000E+01 0. -1.
        -11    1    4    4    0    0  0.91806633886E+00  0.40231592995E+02  0.14919352843E+02  0.42918655733E+02  0.00000000000E+00 0. -1.
         11    1    4    4    0    0 -0.19679678332E+02 -0.43183592028E+02  0.57071127582E+02  0.74224160239E+02  0.00000000000E+00 0.  1.
</event>
<event>
 8    1  0.6443238E-009  0.1668072E+03  0.7561462E-02  0.1181219E+00
          2   -1    0    0  501    0  0.00000000000E+00  0.00000000000E+00  0.25218428747E+03  0.25218428747E+03  0.00000000000E+00 0. -1.
         -2   -1    0    0    0  501 -0.00000000000E+00 -0.00000000000E+00 -0.14542152707E+03  0.14542152707E+03  0.00000000000E+00 0.  1.
         25    2    1    2    0    0  0.10225158292E+03  0.11334554496E+03  0.14945034233E+02  0.19792605640E+03  0.12509504779E+03 0.  0.
         23    2    1    2    0    0 -0.10225158292E+03 -0.11334554496E+03  0.91817726166E+02  0.19967975815E+03  0.90215919896E+02 0.  0.
          5    1    3    3  502    0  0.58520122830E+02  0.17582746799E+02 -0.45647271194E+02  0.76386540231E+02  0.41800000000E+01 0. -1.
         -5    1    3    3    0  502  0.43731460089E+02  0.95762798164E+02  0.60592305426E+02  0.12153951617E+03  0.41800000000E+01 0. -1.
        -11    1    4    4    0    0 -0.89175070189E+02 -0.12215484162E+03  0.57301219095E+02  0.16173258232E+03  0.00000000000E+00 0.  1.
         11    1    4    4    0    0 -0.13076512729E+02  0.88092966562E+01  0.34516507071E+02  0.37947175826E+02  0.00000000000E+00 0. -1.
</event>
<event>
 8    1  0.6443238E-009  0.1043520E+03  0.7561462E-02  0.1271402E+00
         -1   -1    0    0    0  501 -0.00000000000E+00  0.00000000000E+00  0.39109132647E+02  0.39109132647E+02  0.00000000000E+00 0.  1.
          1   -1    0    0  501    0  0.00000000000E+00 -0.00000000000E+00 -0.43341394640E+03  0.43341394640E+03  0.00000000000E+00 0. -1.
         25    2    1    2    0    0  0.50787621594E+02 -0.49010844648E+02 -0.26374055283E+03  0.30031230306E+03  0.12508778821E+03 0.  0.
         23    2    1    2    0    0 -0.50787621594E+02  0.49010844648E+02 -0.13056426092E+03  0.17221077599E+03  0.87338878726E+02 0.  0.
          5    1    3    3  502    0 -0.19069168047E+02 -0.20563612102E+02 -0.26097828926E+01  0.28474175658E+02  0.41800000000E+01 0.  1.
         -5    1    3    3    0  502  0.69856789640E+02 -0.28447232546E+02 -0.26113076994E+03  0.27183812740E+03  0.41800000000E+01 0.  1.
        -11    1    4    4    0    0 -0.64624744803E+02  0.59185718429E+02 -0.79443107722E+02  0.11828150435E+03  0.00000000000E+00 0.  1.
         11    1    4    4    0    0  0.13837123210E+02 -0.10174873781E+02 -0.51121153198E+02  0.53929271639E+02  0.00000000000E+00 0. -1.
</event>
<event>
 8    1  0.6443238E-009  0.1224874E+03  0.7561462E-02  0.1239049E+00
         -3   -1    0    0    0  501 -0.00000000000E+00  0.00000000000E+00  0.34898315126E+02  0.34898315126E+02  0.00000000000E+00 0.  1.
          3   -1    0    0  501    0  0.00000000000E+00 -0.00000000000E+00 -0.46129177986E+03  0.46129177986E+03  0.00000000000E+00 0. -1.
         25    2    1    2    0    0  0.56906981938E+02  0.14353309052E+02 -0.21757215624E+03  0.25775080855E+03  0.12511360464E+03 0.  0.
         23    2    1    2    0    0 -0.56906981938E+02 -0.14353309052E+02 -0.20882130850E+03  0.23843928644E+03  0.99007738887E+02 0.  0.
          5    1    3    3  502    0  0.91375790983E+02 -0.38769714483E+01 -0.10920090363E+03  0.14250219591E+03  0.41800000000E+01 0. -1.
         -5    1    3    3    0  502 -0.34468809045E+02  0.18230280500E+02 -0.10837125261E+03  0.11524861265E+03  0.41800000000E+01 0. -1.
        -11    1    4    4    0    0  0.27946019184E+02  0.10478714320E+01 -0.39192248881E+02  0.48146758927E+02  0.00000000000E+00 0.  1.
         11    1    4    4    0    0 -0.84853001122E+02 -0.15401180484E+02 -0.16962905962E+03  0.19029252751E+03  0.00000000000E+00 0. -1.
</event>
<event>
 8    1  0.6443238E-009  0.1437854E+03  0.7561462E-02  0.1208324E+00
          1   -1    0    0  501    0  0.00000000000E+00  0.00000000000E+00  0.39194409665E+02  0.39194409665E+02  0.00000000000E+00 0. -1.
         -1   -1    0    0    0  501 -0.00000000000E+00 -0.00000000000E+00 -0.57514953404E+03  0.57514953404E+03  0.00000000000E+00 0.  1.
         25    2    1    2    0    0  0.10231801021E+03  0.66263865063E+01 -0.32975520510E+03  0.36728578841E+03  0.12508985118E+03 0.  0.
         23    2    1    2    0    0 -0.10231801021E+03 -0.66263865063E+01 -0.20619991928E+03  0.24705815530E+03  0.89478719117E+02 0.  0.
          5    1    3    3  502    0  0.66736572537E+01 -0.43672806317E+02 -0.47412958919E+02  0.64940840665E+02  0.41800000000E+01 0. -1.
         -5    1    3    3    0  502  0.95644352960E+02  0.50299192824E+02 -0.28234224618E+03  0.30234494775E+03  0.41800000000E+01 0. -1.
        -11    1    4    4    0    0  0.10559737648E+01  0.26481411028E+02 -0.29273038106E+02  0.39487858521E+02  0.00000000000E+00 0. -1.
         11    1    4    4    0    0 -0.10337398398E+03 -0.33107797534E+02 -0.17692688118E+03  0.20757029678E+03  0.00000000000E+00 0.  1.
</event>
<event>
 8    1  0.6443238E-009  0.2353248E+03  0.7561462E-02  0.1122947E+00
         -2   -1    0    0    0  501 -0.00000000000E+00  0.00000000000E+00  0.24977469827E+03  0.24977469827E+03  0.00000000000E+00 0.  1.
          2   -1    0    0  501    0  0.00000000000E+00 -0.00000000000E+00 -0.23932634997E+03  0.23932634997E+03  0.00000000000E+00 0. -1.
         25    2    1    2    0    0  0.17888393324E+03 -0.12375241972E+03 -0.14900508750E+02  0.25136337938E+03  0.12508956942E+03 0.  0.
         23    2    1    2    0    0 -0.17888393324E+03  0.12375241972E+03  0.25348857043E+02  0.23773766886E+03  0.92533840754E+02 0.  0.
          5    1    3    3  502    0  0.18090500139E+03 -0.83384662776E+02  0.16625576290E+02  0.19993374828E+03  0.41800000000E+01 0. -1.
         -5    1    3    3    0  502 -0.20210681570E+01 -0.40367756941E+02 -0.31526085040E+02  0.51429631098E+02  0.41800000000E+01 0. -1.
        -11    1    4    4    0    0 -0.62276010473E+02  0.89879440715E+02  0.37747075978E+02  0.11567824812E+03  0.00000000000E+00 0.  1.
         11    1    4    4    0    0 -0.11660792276E+03  0.33872979002E+02 -0.12398218935E+02  0.12205942074E+03  0.00000000000E+00 0. -1.
</event>
<event>
 8    1  0.6443238E-009  0.1239582E+03  0.7561462E-02  0.1236707E+00
         -2   -1    0    0    0  501 -0.00000000000E+00  0.00000000000E+00  0.13751730176E+03  0.13751730176E+03  0.00000000000E+00 0.  1.
          2   -1    0    0  501    0  0.00000000000E+00 -0.00000000000E+00 -0.17433674028E+03  0.17433674028E+03  0.00000000000E+00 0. -1.
         25    2    1    2    0    0 -0.78860214510E+02 -0.69902782207E+02  0.10260753025E+02  0.16388381699E+03  0.12508912833E+03 0.  0.
         23    2    1    2    0    0  0.78860214510E+02  0.69902782207E+02 -0.47080191545E+02  0.14797022505E+03  0.92592173932E+02 0.  0.
          5    1    3    3  502    0 -0.27357074464E+02 -0.51003144386E+02  0.64404994227E+02  0.86690287471E+02  0.41800000000E+01 0. -1.
         -5    1    3    3    0  502 -0.51503140046E+02 -0.18899637821E+02 -0.54144241202E+02  0.77193529520E+02  0.41800000000E+01 0. -1.
        -11    1    4    4    0    0  0.81730545242E+02  0.85927102496E+02 -0.53970645497E+02  0.13029266880E+03  0.00000000000E+00 0. -1.
         11    1    4    4    0    0 -0.28703307327E+01 -0.16024320289E+02  0.68904539525E+01  0.17677556248E+02  0.00000000000E+00 0.  1.
</event>
<event>
 8    1  0.6443238E-009  0.8403154E+02  0.7561462E-02  0.1317985E+00
          1   -1    0    0  501    0  0.00000000000E+00  0.00000000000E+00  0.35527358246E+03  0.35527358246E+03  0.00000000000E+00 0. -1.
         -1   -1    0    0    0  501 -0.00000000000E+00 -0.00000000000E+00 -0.48121303566E+02  0.48121303566E+02  0.00000000000E+00 0.  1.
         25    2    1    2    0    0  0.99309762401E+01  0.36447760010E+02  0.26300795293E+03  0.29367838975E+03  0.12508696896E+03 0.  0.
         23    2    1    2    0    0 -0.99309762401E+01 -0.36447760010E+02  0.44144325964E+02  0.10971649627E+03  0.93069460841E+02 0.  0.
          5    1    3    3  502    0 -0.56922522274E+02  0.24028189645E+02  0.11109589054E+03  0.12719000250E+03  0.41800000000E+01 0. -1.
         -5    1    3    3    0  502  0.66853498514E+02  0.12419570365E+02  0.15191206239E+03  0.16648838726E+03  0.41800000000E+01 0. -1.
        -11    1    4    4    0    0 -0.82129841491E+00 -0.10071615581E+02 -0.29382976696E+02  0.31072033905E+02  0.00000000000E+00 0.  1.
         11    1    4    4    0    0 -0.91096778252E+01 -0.26376144429E+02  0.73527302660E+02  0.78644462370E+02  0.00000000000E+00 0. -1.
</event>
<event>
 8    1  0.6443238E-009  0.1314243E+03  0.7561462E-02  0.1225358E+00
         -1   -1    0    0    0  501 -0.00000000000E+00  0.00000000000E+00  0.45882949284E+03  0.45882949284E+03  0.00000000000E+00 0.  1.
          1   -1    0    0  501    0  0.00000000000E+00 -0.00000000000E+00 -0.53656763234E+02  0.53656763234E+02  0.00000000000E+00 0. -1.
         25    2    1    2    0    0  0.67141691168E+02  0.80764251873E+02  0.28618455653E+03  0.32951447566E+03  0.12508924094E+03 0.  0.
         23    2    1    2    0    0 -0.67141691168E+02 -0.80764251873E+02  0.11898817308E+03  0.18297178042E+03  0.91047328479E+02 0.  0.
          5    1    3    3  502    0  0.10827433529E+02 -0.11509646438E+02 -0.64128785711E+01  0.17558550325E+02  0.41800000000E+01 0.  1.
         -5    1    3    3    0  502  0.56314257639E+02  0.92273898310E+02  0.29259743510E+03  0.31195592533E+03  0.41800000000E+01 0.  1.
        -11    1    4    4    0    0 -0.85622146776E+01 -0.79261613785E+02  0.59580086688E+02  0.99526386802E+02  0.00000000000E+00 0.  1.
         11    1    4    4    0    0 -0.58579476490E+02 -0.15026380872E+01  0.59408086389E+02  0.83445393615E+02  0.00000000000E+00 0. -1.
</event>
<event>
 8    1  0.6443238E-009  0.2009049E+03  0.7561462E-02  0.1148978E+00
         -2   -1    0    0    0  501 -0.00000000000E+00  0.00000000000E+00  0.16557553909E+03  0.16557553909E+03  0.00000000000E+00 0.  1.
          2   -1    0    0  501    0  0.00000000000E+00 -0.00000000000E+00 -0.27068165337E+03  0.27068165337E+03  0.00000000000E+00 0. -1.
         25    2    1    2    0    0 -0.99778671673E+02  0.13900842743E+03 -0.11487454871E+03  0.24109005580E+03  0.12509647015E+03 0.  0.
         23    2    1    2    0    0  0.99778671673E+02 -0.13900842743E+03  0.97684344254E+01  0.19516713666E+03  0.93357713682E+02 0.  0.
          5    1    3    3  502    0 -0.10083370396E+03  0.39653416860E+02 -0.36298564382E+02  0.11434547432E+03  0.41800000000E+01 0.  1.
         -5    1    3    3    0  502  0.10550322836E+01  0.99355010575E+02 -0.78575984328E+02  0.12674458147E+03  0.41800000000E+01 0.  1.
        -11    1    4    4    0    0  0.14209463817E+02 -0.98030640094E+02 -0.48437421429E+01  0.99173469725E+02  0.00000000000E+00 0.  1.
         11    1    4    4    0    0  0.85569207856E+02 -0.40977787340E+02  0.14612176568E+02  0.95993666940E+02  0.00000000000E+00 0. -1.
</event>
<event>
 8    1  0.6443238E-009  0.1351436E+03  0.7561462E-02  0.1220017E+00
          1   -1    0    0  501    0  0.00000000000E+00  0.00000000000E+00  0.78570772006E+03  0.78570772006E+03  0.00000000000E+00 0. -1.
         -1   -1    0    0    0  501 -0.00000000000E+00 -0.00000000000E+00 -0.42030341324E+02  0.42030341324E+02  0.00000000000E+00 0.  1.
         25    2    1    2    0    0  0.33311422249E+02  0.11327828296E+03  0.20297293949E+03  0.26605429029E+03  0.12508097767E+03 0.  0.
         23    2    1    2    0    0 -0.33311422249E+02 -0.11327828296E+03  0.54070443925E+03  0.56168377109E+03  0.95842307170E+02 0.  0.
          5    1    3    3  502    0 -0.67997216476E+01  0.10690922832E+03  0.19768692744E+03  0.22488533299E+03  0.41800000000E+01 0.  1.
         -5    1    3    3    0  502  0.40111143896E+02  0.63690546350E+01  0.52860120474E+01  0.41168957298E+02  0.41800000000E+01 0.  1.
        -11    1    4    4    0    0 -0.99759058326E+01 -0.85024228353E+02  0.49847076981E+03  0.50576847120E+03  0.00000000000E+00 0. -1.
         11    1    4    4    0    0 -0.23335516416E+02 -0.28254054603E+02  0.42233669440E+02  0.55915299895E+02  0.00000000000E+00 0.  1.
</event>
<event>
 8    1  0.6443238E-009  0.1420220E+03  0.7561462E-02  0.1210634E+00
          2   -1    0    0  501    0  0.00000000000E+00  0.00000000000E+00  0.14311403592E+03  0.14311403592E+03  0.00000000000E+00 0. -1.
         -2   -1    0    0    0  501 -0.00000000000E+00 -0.00000000000E+00 -0.15243082416E+03  0.15243082416E+03  0.00000000000E+00 0.  1.
         25    2    1    2    0    0 -0.24858458343E+02  0.97331205058E+02 -0.95762737222E+01  0.16072058625E+03  0.12509234748E+03 0.  0.
         23    2    1    2    0    0  0.24858458343E+02 -0.97331205058E+02  0.25948548756E+00  0.13482427383E+03  0.89923362098E+02 0.  0.
          5    1    3    3  502    0 -0.74655418637E+02  0.43888707077E+02  0.15376876330E+01  0.86714975776E+02  0.41800000000E+01 0.  1.
         -5    1    3    3    0  502  0.49796960293E+02  0.53442497981E+02 -0.11113961355E+02  0.74005610476E+02  0.41800000000E+01 0.  1.
        -11    1    4    4    0    0  0.41210918213E+02 -0.21268242562E+02  0.25635944266E+02  0.52989428757E+02  0.00000000000E+00 0. -1.
         11    1    4    4    0    0 -0.16352459870E+02 -0.76062962496E+02 -0.25376458778E+02  0.81834845069E+02  0.00000000000E+00 0.  1.
</event>
<event>
 8    1  0.6443238E-009  0.1569738E+03  0.7561462E-02  0.1192156E+00
          2   -1    0    0  501    0  0.00000000000E+00  0.00000000000E+00  0.81626110469E+03  0.81626110469E+03  0.00000000000E+00 0. -1.
         -2   -1    0    0    0  501 -0.00000000000E+00 -0.00000000000E+00 -0.41674456258E+02  0.41674456258E+02  0.00000000000E+00 0.  1.
         25    2    1    2    0    0 -0.14085111447E+03  0.94957390453E+01  0.29967538907E+03  0.35409351887E+03  0.12509067025E+03 0.  0.
         23    2    1    2    0    0  0.14085111447E+03 -0.94957390453E+01  0.47491125936E+03  0.50384204208E+03  0.91579984658E+02 0.  0.
          5    1    3    3  502    0 -0.13999832856E+03  0.12361375821E+02  0.31119189179E+03  0.34148235903E+03  0.41800000000E+01 0.  1.
         -5    1    3    3    0  502 -0.85278590777E+00 -0.28656367756E+01 -0.11516502712E+02  0.12611159846E+02  0.41800000000E+01 0.  1.
        -11    1    4    4    0    0  0.15146153213E+02 -0.36599371548E+02  0.10574878442E+03  0.11292353768E+03  0.00000000000E+00 0.  1.
         11    1    4    4    0    0  0.12570496126E+03  0.27103632503E+02  0.36916247494E+03  0.39091850440E+03  0.00000000000E+00 0. -1.
</event>
<event>
 8    1  0.6443238E-009  0.1623113E+03  0.7561462E-02  0.1186112E+00
          2   -1    0    0  501    0  0.00000000000E+00  0.00000000000E+00  0.67766657708E+03  0.67766657708E+03  0.00000000000E+00 0. -1.
         -2   -1    0    0    0  501 -0.00000000000E+00 -0.00000000000E+00 -0.39959030514E+02  0.39959030514E+02  0.00000000000E+00 0.  1.
         25    2    1    2    0    0 -0.10439564552E+03 -0.63650384868E+02  0.36954060735E+03  0.40884832411E+03  0.12508744682E+03 0.  0.
         23    2    1    2    0    0  0.10439564552E+03  0.63650384868E+02  0.26816693922E+03  0.30877728349E+03  0.92087356405E+02 0.  0.
          5    1    3    3  502    0  0.10246257898E+02 -0.58501938430E+02  0.14185880114E+03  0.15384685392E+03  0.41800000000E+01 0.  1.
         -5    1    3    3    0  502 -0.11464190342E+03 -0.51484464388E+01  0.22768180621E+03  0.25500147019E+03  0.41800000000E+01 0.  1.
        -11    1    4    4    0    0  0.16116093259E+02  0.59748516797E+02  0.14036043132E+03  0.15339708081E+03  0.00000000000E+00 0.  1.
         11    1    4    4    0    0  0.88279552259E+02  0.39018680712E+01  0.12780650790E+03  0.15538020268E+03  0.00000000000E+00 0. -1.
</event>
<event>
 8    1  0.6443238E-009  0.1102964E+03  0.7561462E-02  0.1260022E+00
          2   -1    0    0  501    0  0.00000000000E+00  0.00000000000E+00  0.86806398589E+02  0.86806398589E+02  0.00000000000E+00 0. -1.
         -2   -1    0    0    0  501 -0.00000000000E+00 -0.00000000000E+00 -0.18118382081E+03  0.18118382081E+03  0.00000000000E+00 0.  1.
         25    2    1    2    0    0 -0.36641643633E+02 -0.17064982333E+01  0.58307680869E+00  0.13036492779E+03  0.12509657164E+03 0.  0.
         23    2    1    2    0    0  0.36641643633E+02  0.17064982333E+01 -0.94960499027E+02  0.13762529160E+03  0.92615885943E+02 0.  0.
          5    1    3    3  502    0 -0.68902660796E+02  0.37886810027E+02 -0.44914154855E+01  0.78870984854E+02  0.41800000000E+01 0.  1.
         -5    1    3    3    0  502  0.32261017162E+02 -0.39593308260E+02  0.50744922942E+01  0.51493942939E+02  0.41800000000E+01 0.  1.
        -11    1    4    4    0    0  0.32630167564E+02 -0.38347989358E+02 -0.80306298836E+02  0.94786063089E+02  0.00000000000E+00 0.  1.
         11    1    4    4    0    0  0.40114760689E+01  0.40054487592E+02 -0.14654200191E+02  0.42839228515E+02  0.00000000000E+00 0. -1.
</event>
<event>
 8    1  0.6443238E-009  0.1579688E+03  0.7561462E-02  0.1191009E+00
          1   -1    0    0  501    0  0.00000000000E+00  0.00000000000E+00  0.11089238782E+04  0.11089238782E+04  0.00000000000E+00 0. -1.
         -1   -1    0    0    0  501 -0.00000000000E+00 -0.00000000000E+00 -0.37408486298E+02  0.37408486298E+02  0.00000000000E+00 0.  1.
         25    2    1    2    0    0 -0.12678603899E+03  0.39022019385E+02  0.87254347496E+03  0.89139025696E+03  0.12508819621E+03 0.  0.
         23    2    1    2    0    0  0.12678603899E+03 -0.39022019385E+02  0.19897191697E+03  0.25494210757E+03  0.88364227981E+02 0.  0.
          5    1    3    3  502    0 -0.10004562241E+03  0.82400948975E+02  0.67451785611E+03  0.68687033243E+03  0.41800000000E+01 0. -1.
         -5    1    3    3    0  502 -0.26740416584E+02 -0.43378929590E+02  0.19802561885E+03  0.20451992453E+03  0.41800000000E+01 0. -1.
        -11    1    4    4    0    0  0.97409902411E+01 -0.11160999342E+02 -0.70153879257E+01  0.16391170335E+02  0.00000000000E+00 0.  1.
         11    1    4    4    0    0  0.11704504875E+03 -0.27861020043E+02  0.20598730490E+03  0.23855093723E+03  0.00000000000E+00 0. -1.
</event>
<event>
 8    1  0.6443238E-009  0.8874957E+02  0.7561462E-02  0.1305908E+00
         -2   -1    0    0    0  501 -0.00000000000E+00  0.00000000000E+00  0.49882936293E+02  0.49882936293E+02  0.00000000000E+00 0. -1.
          2   -1    0    0  501    0  0.00000000000E+00 -0.00000000000E+00 -0.56126343473E+03  0.56126343473E+03  0.00000000000E+00 0.  1.
         25    2    1    2    0    0 -0.49096894494E+02 -0.35077906552E+02 -0.68321885814E+02  0.15477761806E+03  0.12508903386E+03 0.  0.
         23    2    1    2    0    0  0.49096894494E+02  0.35077906552E+02 -0.44305861262E+03  0.45636875297E+03  0.91271791310E+02 0.  0.
          5    1    3    3  502    0 -0.11811295627E+02  0.90401381361E+01  0.33919674288E+02  0.37272610664E+02  0.41800000000E+01 0. -1.
         -5    1    3    3    0  502 -0.37285598867E+02 -0.44118044688E+02 -0.10224156010E+03  0.11750500739E+03  0.41800000000E+01 0. -1.
        -11    1    4    4    0    0  0.34884394545E+02 -0.24665705620E+02 -0.25451798791E+03  0.25807891077E+03  0.00000000000E+00 0.  1.
         11    1    4    4    0    0  0.14212499949E+02  0.59743612172E+02 -0.18854062471E+03  0.19828984219E+03  0.00000000000E+00 0. -1.
</event>
<event>
 8    1  0.6443238E-009  0.1282996E+03  0.7561462E-02  0.1230001E+00
          2   -1    0    0  501    0  0.00000000000E+00  0.00000000000E+00  0.29676250166E+03  0.29676250166E+03  0.00000000000E+00 0. -1.
         -2   -1    0    0    0  501 -0.00000000000E+00 -0.00000000000E+00 -0.80300156945E+02  0.80300156945E+02  0.00000000000E+00 0.  1.
         25    2    1    2    0    0 -0.41947479778E+02  0.87865869600E+02  0.17904130474E+03  0.23912722003E+03  0.12508411752E+03 0.  0.
         23    2    1    2    0    0  0.41947479778E+02 -0.87865869600E+02  0.37421039980E+02  0.13793543858E+03  0.90254356583E+02 0.  0.
          5    1    3    3  502    0 -0.81840846278E+02  0.85311441380E+02  0.13547214890E+03  0.17985033132E+03  0.41800000000E+01 0.  1.
         -5    1    3    3    0  502  0.39893366500E+02  0.25544282203E+01  0.43569155840E+02  0.59276888708E+02  0.41800000000E+01 0.  1.
        -11    1    4    4    0    0  0.28862009573E+02 -0.71851803720E+02  0.66625557729E+02  0.10215019450E+03  0.00000000000E+00 0. -1.
         11    1    4    4    0    0  0.13085470205E+02 -0.16014065880E+02 -0.29204517749E+02  0.35785244074E+02  0.00000000000E+00 0.  1.
</event>
<event>
 8    1  0.6443238E-009  0.1155587E+03  0.7561462E-02  0.1250609E+00
         -2   -1    0    0    0  501 -0.00000000000E+00  0.00000000000E+00  0.93522469345E+03  0.93522469345E+03  0.00000000000E+00 0. -1.
          2   -1    0    0  501    0  0.00000000000E+00 -0.00000000000E+00 -0.17186823476E+02  0.17186823476E+02  0.00000000000E+00 0.  1.
         25    2    1    2    0    0 -0.34472346830E+02 -0.54968325440E+02  0.45750712096E+03  0.47871739045E+03  0.12509082574E+03 0.  0.
         23    2    1    2    0    0  0.34472346830E+02  0.54968325440E+02  0.46053074901E+03  0.47369412648E+03  0.89931613906E+02 0.  0.
          5    1    3    3  502    0 -0.26874600673E+02  0.28607868564E+02  0.27473487703E+03  0.27755608327E+03  0.41800000000E+01 0. -1.
         -5    1    3    3    0  502 -0.75977461576E+01 -0.83576194004E+02  0.18277224394E+03  0.20116130717E+03  0.41800000000E+01 0. -1.
        -11    1    4    4    0    0 -0.19265339905E+02  0.50082502182E+02  0.28679624978E+03  0.29177302691E+03  0.00000000000E+00 0. -1.
         11    1    4    4    0    0  0.53737686736E+02  0.48858232581E+01  0.17373449924E+03  0.18192109957E+03  0.00000000000E+00 0.  1.
</event>
<event>
 8    1  0.6443238E-009  0.1669153E+03  0.7561462E-02  0.1181103E+00
          1   -1    0    0  501    0  0.00000000000E+00  0.00000000000E+00  0.51712141618E+03  0.51712141618E+03  0.00000000000E+00 0. -1.
         -1   -1    0    0    0  501 -0.00000000000E+00 -0.00000000000E+00 -0.60491684707E+02  0.60491684707E+02  0.00000000000E+00 0.  1.
         25    2    1    2    0    0  0.13838198431E+03 -0.10279268092E+02  0.22566558325E+03  0.29296401958E+03  0.12509086447E+03 0.  0.
         23    2    1    2    0    0 -0.13838198431E+03  0.10279268092E+02  0.23096414822E+03  0.28464908130E+03  0.91790112683E+02 0.  0.
          5    1    3    3  502    0  0.14955724821E+03  0.19074309559E+02  0.20722654365E+03  0.25630355552E+03  0.41800000000E+01 0.  1.
         -5    1    3    3    0  502 -0.11175263905E+02 -0.29353577651E+02  0.18439039600E+02  0.36660464067E+02  0.41800000000E+01 0.  1.
        -11    1    4    4    0    0 -0.86987194109E+02  0.35641858378E+02  0.19635450727E+03  0.21769751154E+03  0.00000000000E+00 0. -1.
         11    1    4    4    0    0 -0.51394790201E+02 -0.25362590287E+02  0.34609640955E+02  0.66951569756E+02  0.00000000000E+00 0.  1.
</event>
<event>
 8    1  0.6443238E-009  0.9911054E+02  0.7561462E-02  0.1282178E+00
         -1   -1    0    0    0  501 -0.00000000000E+00  0.00000000000E+00  0.17542321910E+02  0.17542321910E+02  0.00000000000E+00 0.  1.
          1   -1    0    0  501    0  0.00000000000E+00 -0.00000000000E+00 -0.81156029758E+03  0.81156029758E+03  0.00000000000E+00 0. -1.
         25    2    1    2    0    0  0.18462955375E+02 -0.71153845791E+01 -0.63000416584E+03  0.64260731023E+03  0.12508955500E+03 0.  0.
         23    2    1    2    0    0 -0.18462955375E+02  0.71153845791E+01 -0.16401380983E+03  0.18649530926E+03  0.86535895100E+02 0.  0.
          5    1    3    3  502    0 -0.48975792435E+02  0.20867146392E+02 -0.25263506418E+03  0.25821699033E+03  0.41800000000E+01 0.  1.
         -5    1    3    3    0  502  0.67438747810E+02 -0.27982530971E+02 -0.37736910166E+03  0.38439031990E+03  0.41800000000E+01 0.  1.
        -11    1    4    4    0    0  0.26115251307E+02  0.72745263216E+01 -0.15055523495E+02  0.31009577098E+02  0.00000000000E+00 0.  1.
         11    1    4    4    0    0 -0.44578206683E+02 -0.15914174247E+00 -0.14895828634E+03  0.15548573216E+03  0.00000000000E+00 0. -1.
</event>
<event>
 8    1  0.6443238E-009  0.1089688E+03  0.7561462E-02  0.1262492E+00
          2   -1    0    0  501    0  0.00000000000E+00  0.00000000000E+00  0.14225456609E+03  0.14225456609E+03  0.00000000000E+00 0. -1.
         -2   -1    0    0    0  501 -0.00000000000E+00 -0.00000000000E+00 -0.11188378162E+03  0.11188378162E+03  0.00000000000E+00 0.  1.
         25    2    1    2    0    0 -0.63231371574E+02  0.21006941326E+02  0.23278394875E+02  0.14362814182E+03  0.12509061324E+03 0.  0.
         23    2    1    2    0    0  0.63231371574E+02 -0.21006941326E+02  0.70923895928E+01  0.11051020589E+03  0.87878926266E+02 0.  0.
          5    1    3    3  502    0 -0.80255954177E+02  0.57052408671E+02  0.29922139528E+02  0.10299904053E+03  0.41800000000E+01 0.  1.
         -5    1    3    3    0  502  0.17024582603E+02 -0.36045467345E+02 -0.66437446527E+01  0.40629101294E+02  0.41800000000E+01 0.  1.
        -11    1    4    4    0    0  0.49554850131E+02 -0.34267258867E+02  0.40118606356E+02  0.72383912424E+02  0.00000000000E+00 0. -1.
         11    1    4    4    0    0  0.13676521443E+02  0.13260317542E+02 -0.33026216764E+02  0.38126293470E+02  0.00000000000E+00 0.  1.
</event>
<event>
 8    1  0.6443238E-009  0.1857549E+03  0.7561462E-02  0.1162347E+00
         -1   -1    0    0    0  501 -0.00000000000E+00  0.00000000000E+00  0.82265317051E+03  0.82265317051E+03  0.00000000000E+00 0.  1.
          1   -1    0    0  501    0  0.00000000000E+00 -0.00000000000E+00 -0.50346263388E+02  0.50346263388E+02  0.00000000000E+00 0. -1.
         25    2    1    2    0    0 -0.56552286986E+02  0.16059297767E+03  0.35656058821E+03  0.41445317302E+03  0.12509082267E+03 0.  0.
         23    2    1    2    0    0  0.56552286986E+02 -0.16059297767E+03  0.41574631891E+03  0.45854626089E+03  0.91822688064E+02 0.  0.
          5    1    3    3  502    0  0.57601099741E+01  0.57531960943E+02  0.27778357310E+02  0.64282306522E+02  0.41800000000E+01 0.  1.
         -5    1    3    3    0  502 -0.62312396960E+02  0.10306101673E+03  0.32878223090E+03  0.35017086649E+03  0.41800000000E+01 0.  1.
        -11    1    4    4    0    0  0.69330364642E+02 -0.60168274645E+02  0.18287081158E+03  0.20461831409E+03  0.00000000000E+00 0. -1.
         11    1    4    4    0    0 -0.12778077656E+02 -0.10042470302E+03  0.23287550734E+03  0.25392794679E+03  0.00000000000E+00 0.  1.
</event>
<event>
 8    1  0.6443238E-009  0.1050256E+03  0.7561462E-02  0.1270069E+00
         -2   -1    0    0    0  501 -0.00000000000E+00  0.00000000000E+00  0.11359978530E+02  0.11359978530E+02  0.00000000000E+00 0.  1.
          2   -1    0    0  501    0  0.00000000000E+00 -0.00000000000E+00 -0.13493579488E+04  0.13493579488E+04  0.00000000000E+00 0. -1.
         25    2    1    2    0    0 -0.84606769805E+01 -0.44514970887E+02 -0.96062277718E+03  0.96979198786E+03  0.12508882439E+03 0.  0.
         23    2    1    2    0    0  0.84606769805E+01  0.44514970887E+02 -0.37737519304E+03  0.39092593943E+03  0.91421486006E+02 0.  0.
          5    1    3    3  502    0 -0.52945434261E+02 -0.38437254568E+02 -0.80778714913E+03  0.81044320730E+03  0.41800000000E+01 0. -1.
         -5    1    3    3    0  502  0.44484757280E+02 -0.60777163193E+01 -0.15283562805E+03  0.15934878056E+03  0.41800000000E+01 0. -1.
        -11    1    4    4    0    0  0.37991967387E+02 -0.83004947086E+01 -0.10659863182E+03  0.11347050764E+03  0.00000000000E+00 0. -1.
         11    1    4    4    0    0 -0.29531290406E+02  0.52815465595E+02 -0.27077656122E+03  0.27745543179E+03  0.00000000000E+00 0.  1.
</event>
<event>
 8    1  0.6443238E-009  0.7193400E+02  0.7561462E-02  0.1353637E+00
          1   -1    0    0  501    0  0.00000000000E+00  0.00000000000E+00  0.55812370811E+03  0.55812370811E+03  0.00000000000E+00 0. -1.
         -1   -1    0    0    0  501 -0.00000000000E+00 -0.00000000000E+00 -0.24974305926E+02  0.24974305926E+02  0.00000000000E+00 0.  1.
         25    2    1    2    0    0  0.14285465370E+02  0.15864038964E+01  0.40829002158E+03  0.42726686529E+03  0.12509852616E+03 0.  0.
         23    2    1    2    0    0 -0.14285465370E+02 -0.15864038964E+01  0.12485938060E+03  0.15583114875E+03  0.92124322517E+02 0.  0.
          5    1    3    3  502    0  0.40525520990E+02 -0.77985731279E+01  0.39304509191E+03  0.39522784855E+03  0.41800000000E+01 0.  1.
         -5    1    3    3    0  502 -0.26240055620E+02  0.93849770243E+01  0.15244929676E+02  0.32039016737E+02  0.41800000000E+01 0.  1.
        -11    1    4    4    0    0 -0.38924050103E+02 -0.19702286982E+02  0.11609023751E+03  0.12401695462E+03  0.00000000000E+00 0. -1.
         11    1    4    4    0    0  0.24638584733E+02  0.18115883086E+02  0.87691430922E+01  0.31814194131E+02  0.00000000000E+00 0.  1.
</event>
<event>
 8    1  0.6443238E-009  0.1157534E+03  0.7561462E-02  0.1250272E+00
         -2   -1    0    0    0  501 -0.00000000000E+00  0.00000000000E+00  0.16507564692E+02  0.16507564692E+02  0.00000000000E+00 0.  1.
          2   -1    0    0  501    0  0.00000000000E+00 -0.00000000000E+00 -0.19948389889E+04  0.19948389889E+04  0.00000000000E+00 0. -1.
         25    2    1    2    0    0  0.13951781763E+02 -0.63044654981E+02 -0.17870878223E+04  0.17926237324E+04  0.12509068996E+03 0.  0.
         23    2    1    2    0    0 -0.13951781763E+02  0.63044654981E+02 -0.19124360187E+03  0.21872282113E+03  0.84239399865E+02 0.  0.
          5    1    3    3  502    0 -0.25879209288E+02 -0.83648257878E+02 -0.86341367357E+03  0.86785218133E+03  0.41800000000E+01 0.  1.
         -5    1    3    3    0  502  0.39830991052E+02  0.20603602896E+02 -0.92367414874E+03  0.92477155111E+03  0.41800000000E+01 0.  1.
        -11    1    4    4    0    0 -0.13942007932E+02 -0.15164261279E+02 -0.13762145997E+02  0.24773596181E+02  0.00000000000E+00 0.  1.
         11    1    4    4    0    0 -0.97738310386E-02  0.78208916260E+02 -0.17748145587E+03  0.19394922495E+03  0.00000000000E+00 0. -1.
</event>
<event>
 8    1  0.6443238E-009  0.1053572E+03  0.7561462E-02  0.1269418E+00
         -2   -1    0    0    0  501 -0.00000000000E+00  0.00000000000E+00  0.34649348819E+02  0.34649348819E+02  0.00000000000E+00 0.  1.
          2   -1    0    0  501    0  0.00000000000E+00 -0.00000000000E+00 -0.50617940615E+03  0.50617940615E+03  0.00000000000E+00 0. -1.
         25    2    1    2    0    0 -0.34922739926E+01  0.36517922088E+01 -0.41658877209E+03  0.43499165336E+03  0.12508397938E+03 0.  0.
         23    2    1    2    0    0  0.34922739926E+01 -0.36517922088E+01 -0.54941285240E+02  0.10583710161E+03  0.90318412791E+02 0.  0.
          5    1    3    3  502    0 -0.40753452786E+02 -0.46750624148E+02 -0.21967402853E+03  0.22829939987E+03  0.41800000000E+01 0.  1.
         -5    1    3    3    0  502  0.37261178793E+02  0.50402416357E+02 -0.19691474356E+03  0.20669225349E+03  0.41800000000E+01 0.  1.
        -11    1    4    4    0    0 -0.40284652392E+02  0.64742894318E+01 -0.94196650355E+01  0.41874810225E+02  0.00000000000E+00 0.  1.
         11    1    4    4    0    0  0.43776926384E+02 -0.10126081641E+02 -0.45521620205E+02  0.63962291384E+02  0.00000000000E+00 0. -1.
</event>
<event>
 8    1  0.6443238E-009  0.2163119E+03  0.7561462E-02  0.1136663E+00
         -1   -1    0    0    0  501 -0.00000000000E+00  0.00000000000E+00  0.63010785706E+02  0.63010785706E+02  0.00000000000E+00 0.  1.
          1   -1    0    0  501    0  0.00000000000E+00 -0.00000000000E+00 -0.89371320314E+03  0.89371320314E+03  0.00000000000E+00 0. -1.
         25    2    1    2    0    0 -0.44132925404E+02  0.19223757491E+03 -0.58310866483E+03  0.62814523623E+03  0.12509085690E+03 0.  0.
         23    2    1    2    0    0  0.44132925404E+02 -0.19223757491E+03 -0.24759375260E+03  0.32857875262E+03  0.88081383003E+02 0.  0.
          5    1    3    3  502    0  0.36616966147E+01  0.16034348179E+03 -0.51244065224E+03  0.53696958447E+03  0.41800000000E+01 0.  1.
         -5    1    3    3    0  502 -0.47794622019E+02  0.31894093128E+02 -0.70668012593E+02  0.91175651762E+02  0.41800000000E+01 0.  1.
        -11    1    4    4    0    0 -0.22983385204E+02 -0.85098860714E+02 -0.12064078140E+03  0.14941301893E+03  0.00000000000E+00 0. -1.
         11    1    4    4    0    0  0.67116310608E+02 -0.10713871420E+03 -0.12695297121E+03  0.17916573369E+03  0.00000000000E+00 0.  1.
</event>
<event>
 8    1  0.6443238E-009  0.1201662E+03  0.7561462E-02  0.1242823E+00
         -1   -1    0    0    0  501 -0.00000000000E+00  0.00000000000E+00  0.36557855879E+02  0.36557855879E+02  0.00000000000E+00 0.  1.
          1   -1    0    0  501    0  0.00000000000E+00 -0.00000000000E+00 -0.60692563354E+03  0.60692563354E+03  0.00000000000E+00 0. -1.
         25    2    1    2    0    0 -0.63828382840E+02  0.25001010288E+02 -0.14588629260E+03  0.20403293685E+03  0.12509003149E+03 0.  0.
         23    2    1    2    0    0  0.63828382840E+02 -0.25001010288E+02 -0.42448148507E+03  0.43945055257E+03  0.90736674078E+02 0.  0.
          5    1    3    3  502    0 -0.10073729553E+02  0.68304854360E+02 -0.48041262249E+02  0.84216794256E+02  0.41800000000E+01 0.  1.
         -5    1    3    3    0  502 -0.53754653286E+02 -0.43303844073E+02 -0.97845030348E+02  0.11981614259E+03  0.41800000000E+01 0.  1.
        -11    1    4    4    0    0  0.50310922120E+02 -0.51664711264E+02 -0.37310030642E+03  0.38000561828E+03  0.00000000000E+00 0. -1.
         11    1    4    4    0    0  0.13517460719E+02  0.26663700976E+02 -0.51381178645E+02  0.59444934292E+02  0.00000000000E+00 0.  1.
</event>
<event>
 8    1  0.6443238E-009  0.7770387E+02  0.7561462E-02  0.1335697E+00
         -1   -1    0    0    0  501 -0.00000000000E+00  0.00000000000E+00  0.35176092239E+03  0.35176092239E+03  0.00000000000E+00 0.  1.
          1   -1    0    0  501    0  0.00000000000E+00 -0.00000000000E+00 -0.34167168977E+02  0.34167168977E+02  0.00000000000E+00 0. -1.
         25    2    1    2    0    0 -0.57401585569E+01 -0.11130826746E+02  0.18846866763E+03  0.22654992028E+03  0.12509029929E+03 0.  0.
         23    2    1    2    0    0  0.57401585569E+01  0.11130826746E+02  0.12912508578E+03  0.15937817109E+03  0.92581147735E+02 0.  0.
          5    1    3    3  502    0 -0.40783534756E+02  0.99831913572E+01  0.17958540496E+03  0.18447588159E+03  0.41800000000E+01 0.  1.
         -5    1    3    3    0  502  0.35043376199E+02 -0.21114018103E+02  0.88832626768E+01  0.42074038690E+02  0.41800000000E+01 0.  1.
        -11    1    4    4    0    0  0.26142773219E+02  0.33051412626E+02  0.12132146370E+03  0.12843184193E+03  0.00000000000E+00 0.  1.
         11    1    4    4    0    0 -0.20402614662E+02 -0.21920585880E+02  0.78036220824E+01  0.30946329152E+02  0.00000000000E+00 0. -1.
</event>
<event>
 8    1  0.6443238E-009  0.1068259E+03  0.7561462E-02  0.1266563E+00
         -1   -1    0    0    0  501 -0.00000000000E+00  0.00000000000E+00  0.23030928108E+02  0.23030928108E+02  0.00000000000E+00 0.  1.
          1   -1    0    0  501    0  0.00000000000E+00 -0.00000000000E+00 -0.76787613458E+03  0.76787613458E+03  0.00000000000E+00 0. -1.
         25    2    1    2    0    0 -0.26055166816E+02 -0.70714555840E+02 -0.39007912208E+03  0.41652237966E+03  0.12509896541E+03 0.  0.
         23    2    1    2    0    0  0.26055166816E+02  0.70714555840E+02 -0.35476608440E+03  0.37438468303E+03  0.92873549129E+02 0.  0.
          5    1    3    3  502    0 -0.12022344926E+02  0.85060632204E+01 -0.27838561213E+03  0.27880622541E+03  0.41800000000E+01 0.  1.
         -5    1    3    3    0  502 -0.14032821890E+02 -0.79220619061E+02 -0.11169350995E+03  0.13771615424E+03  0.41800000000E+01 0.  1.
        -11    1    4    4    0    0 -0.31387671777E+02  0.73158979337E+01 -0.12864616854E+03  0.13262181186E+03  0.00000000000E+00 0.  1.
         11    1    4    4    0    0  0.57442838592E+02  0.63398657906E+02 -0.22611991586E+03  0.24176287117E+03  0.00000000000E+00 0. -1.
</event>
<event>
 8    1  0.6443238E-009  0.1171765E+03  0.7561462E-02  0.1247829E+00
         -1   -1    0    0    0  501 -0.00000000000E+00  0.00000000000E+00  0.60532825215E+03  0.60532825215E+03  0.00000000000E+00 0.  1.
          1   -1    0    0  501    0  0.00000000000E+00 -0.00000000000E+00 -0.33940406710E+02  0.33940406710E+02  0.00000000000E+00 0. -1.
         25    2    1    2    0    0  0.93416906466E+02 -0.24693045129E+01  0.29711563264E+03  0.33564478860E+03  0.12508760562E+03 0.  0.
         23    2    1    2    0    0 -0.93416906466E+02  0.24693045129E+01  0.27427221280E+03  0.30362387026E+03  0.90715996362E+02 0.  0.
          5    1    3    3  502    0  0.32665404335E+02 -0.25212525555E+02  0.25463639814E+03  0.25799199163E+03  0.41800000000E+01 0. -1.
         -5    1    3    3    0  502  0.60751502131E+02  0.22743221042E+02  0.42479234494E+02  0.77652796973E+02  0.41800000000E+01 0. -1.
        -11    1    4    4    0    0 -0.17443409335E+02 -0.37987053251E+02  0.64281959909E+02  0.76677631116E+02  0.00000000000E+00 0. -1.
         11    1    4    4    0    0 -0.75973497131E+02  0.40456357764E+02  0.20999025289E+03  0.22694623914E+03  0.00000000000E+00 0.  1.
</event>
<event>
 8    1  0.6443238E-009  0.1115120E+03  0.7561462E-02  0.1257795E+00
         -1   -1    0    0    0  501 -0.00000000000E+00  0.00000000000E+00  0.26861491708E+02  0.26861491708E+02  0.00000000000E+00 0.  1.
          1   -1    0    0  501    0  0.00000000000E+00 -0.00000000000E+00 -0.54471136355E+03  0.54471136355E+03  0.00000000000E+00 0. -1.
         25    2    1    2    0    0  0.31377293041E+02 -0.18243847483E+02 -0.19700765210E+03  0.23616771378E+03  0.12508317854E+03 0.  0.
         23    2    1    2    0    0 -0.31377293041E+02  0.18243847483E+02 -0.32084221974E+03  0.33540514148E+03  0.90771727280E+02 0.  0.
          5    1    3    3  502    0  0.79883852574E+02 -0.15390944242E+02 -0.12163644810E+03  0.14639401959E+03  0.41800000000E+01 0. -1.
         -5    1    3    3    0  502 -0.48506559533E+02 -0.28529032419E+01 -0.75371204002E+02  0.89773694183E+02  0.41800000000E+01 0. -1.
        -11    1    4    4    0    0 -0.21803359407E+02 -0.33610516182E+02 -0.88366921316E+02  0.97024564221E+02  0.00000000000E+00 0.  1.
         11    1    4    4    0    0 -0.95739336339E+01  0.51854363666E+02 -0.23247529842E+03  0.23838057726E+03  0.00000000000E+00 0. -1.
</event>
<event>
 8    1  0.6443238E-009  0.1640383E+03  0.7561462E-02  0.1184212E+00
          1   -1    0    0  501    0  0.00000000000E+00  0.00000000000E+00  0.33951269918E+02  0.33951269918E+02  0.00000000000E+00 0. -1.
         -1   -1    0    0    0  501 -0.00000000000E+00 -0.00000000000E+00 -0.96303320424E+03  0.96303320424E+03  0.00000000000E+00 0.  1.
         25    2    1    2    0    0 -0.66659164604E+01  0.14444999434E+03 -0.50162162018E+03  0.53682609980E+03  0.12509107195E+03 0.  0.
         23    2    1    2    0    0  0.66659164604E+01 -0.14444999434E+03 -0.42746031414E+03  0.46015837436E+03  0.90073159272E+02 0.  0.
          5    1    3    3  502    0  0.18498043410E+02  0.12832259519E+03 -0.48566196991E+03  0.50268666927E+03  0.41800000000E+01 0. -1.
         -5    1    3    3    0  502 -0.25163959870E+02  0.16127399158E+02 -0.15959650272E+02  0.34139430528E+02  0.41800000000E+01 0. -1.
        -11    1    4    4    0    0 -0.28978047206E+01 -0.15437254218E+03 -0.36716524986E+03  0.39830842291E+03  0.00000000000E+00 0.  1.
         11    1    4    4    0    0  0.95637211810E+01  0.99225478404E+01 -0.60295064282E+02  0.61849951457E+02  0.00000000000E+00 0. -1.
</event>
<event>
 8    1  0.6443238E-009  0.1081766E+03  0.7561462E-02  0.1263984E+00
          2   -1    0    0  501    0  0.00000000000E+00  0.00000000000E+00  0.23399567146E+03  0.23399567146E+03  0.00000000000E+00 0. -1.
         -2   -1    0    0    0  501 -0.00000000000E+00 -0.00000000000E+00 -0.10051951922E+03  0.10051951922E+03  0.00000000000E+00 0.  1.
         25    2    1    2    0    0  0.67760853489E+02  0.43729785112E+01 -0.19962832621E+02  0.14372187172E+03  0.12508719166E+03 0.  0.
         23    2    1    2    0    0 -0.67760853489E+02 -0.43729785112E+01  0.15343898486E+03  0.19079331896E+03  0.90818017361E+02 0.  0.
          5    1    3    3  502    0  0.47552082402E+02 -0.34548418718E+02  0.38597140026E+02  0.70441503355E+02  0.41800000000E+01 0. -1.
         -5    1    3    3    0  502  0.20208771087E+02  0.38921397230E+02 -0.58559972647E+02  0.73280368364E+02  0.41800000000E+01 0. -1.
        -11    1    4    4    0    0  0.64308748546E+01 -0.33170999414E+02  0.47468754909E+02  0.58266234185E+02  0.00000000000E+00 0.  1.
         11    1    4    4    0    0 -0.74191728343E+02  0.28798020902E+02  0.10597022995E+03  0.13252708478E+03  0.00000000000E+00 0. -1.
</event>
<event>
 8    1  0.6443238E-009  0.5507127E+02  0.7561462E-02  0.1419762E+00
         -1   -1    0    0    0  501 -0.00000000000E+00  0.00000000000E+00  0.97492566301E+02  0.97492566301E+02  0.00000000000E+00 0.  1.
          1   -1    0    0  501    0  0.00000000000E+00 -0.00000000000E+00 -0.13658856850E+03  0.13658856850E+03  0.00000000000E+00 0. -1.
         25    2    1    2    0    0 -0.37768040938E+01  0.33828104812E+02 -0.35641330430E+02  0.13444884404E+03  0.12509029660E+03 0.  0.
         23    2    1    2    0    0  0.37768040938E+01 -0.33828104812E+02 -0.34546717725E+01  0.99632290768E+02  0.93573787367E+02 0.  0.
          5    1    3    3  502    0 -0.14705060675E+02 -0.51071467155E+01  0.42999255644E+02  0.45920911827E+02  0.41800000000E+01 0.  1.
         -5    1    3    3    0  502  0.10928256581E+02  0.38935251528E+02 -0.78640586074E+02  0.88527932211E+02  0.41800000000E+01 0.  1.
        -11    1    4    4    0    0 -0.14931119722E+02 -0.25237802360E+00  0.39359087113E+02  0.42096790485E+02  0.00000000000E+00 0.  1.
         11    1    4    4    0    0  0.18707923816E+02 -0.33575726788E+02 -0.42813758885E+02  0.57535500282E+02  0.00000000000E+00 0. -1.
</event>
<event>
 8    1  0.6443238E-009  0.1043065E+03  0.7561462E-02  0.1271492E+00
          1   -1    0    0  501    0  0.00000000000E+00  0.00000000000E+00  0.18567266176E+03  0.18567266176E+03  0.00000000000E+00 0. -1.
         -1   -1    0    0    0  501 -0.00000000000E+00 -0.00000000000E+00 -0.13433850625E+03  0.13433850625E+03  0.00000000000E+00 0.  1.
         25    2    1    2    0    0 -0.65234819970E+02  0.54853079678E+02 -0.49200910799E+02  0.15916314146E+03  0.12509090250E+03 0.  0.
         23    2    1    2    0    0  0.65234819970E+02 -0.54853079678E+02  0.10053506631E+03  0.16084802656E+03  0.92197321021E+02 0.  0.
          5    1    3    3  502    0 -0.26824401554E+02  0.50194843075E+02  0.34621401608E+02  0.66747169523E+02  0.41800000000E+01 0.  1.
         -5    1    3    3    0  502 -0.38410418416E+02  0.46582366037E+01 -0.83822312407E+02  0.92415971934E+02  0.41800000000E+01 0.  1.
        -11    1    4    4    0    0 -0.53867316181E+01 -0.40129958142E+02  0.45046623844E+01  0.40739690735E+02  0.00000000000E+00 0.  1.
         11    1    4    4    0    0  0.70621551588E+02 -0.14723121537E+02  0.96030403926E+02  0.12010833582E+03  0.00000000000E+00 0. -1.
</event>
<event>
 8    1  0.6443238E-009  0.1034856E+03  0.7561462E-02  0.1273132E+00
          2   -1    0    0  501    0  0.00000000000E+00  0.00000000000E+00  0.69382115373E+03  0.69382115373E+03  0.00000000000E+00 0. -1.
         -2   -1    0    0    0  501 -0.00000000000E+00 -0.00000000000E+00 -0.17010795930E+02  0.17010795930E+02  0.00000000000E+00 0.  1.
         25    2    1    2    0    0  0.58035694549E+01  0.74221093707E+01  0.36119547419E+03  0.38235955108E+03  0.12509151290E+03 0.  0.
         23    2    1    2    0    0 -0.58035694549E+01 -0.74221093707E+01  0.31561488361E+03  0.32847239858E+03  0.90512942430E+02 0.  0.
          5    1    3    3  502    0  0.10269722778E+02  0.61233978775E+02  0.12019961672E+03  0.13535319583E+03  0.41800000000E+01 0.  1.
         -5    1    3    3    0  502 -0.44661533235E+01 -0.53811869405E+02  0.24099585748E+03  0.24700635525E+03  0.41800000000E+01 0.  1.
        -11    1    4    4    0    0  0.20101721446E+01  0.41244344714E+02  0.15968490487E+03  0.16493758094E+03  0.00000000000E+00 0. -1.
         11    1    4    4    0    0 -0.78137415995E+01 -0.48666454085E+02  0.15592997873E+03  0.16353481763E+03  0.00000000000E+00 0.  1.
</event>
<event>
 8    1  0.6443238E-009  0.1505531E+03  0.7561462E-02  0.1199795E+00
         -2   -1    0    0    0  501 -0.00000000000E+00  0.00000000000E+00  0.19163102514E+02  0.19163102514E+02  0.00000000000E+00 0.  1.
          2   -1    0    0  501    0  0.00000000000E+00 -0.00000000000E+00 -0.14482342794E+04  0.14482342794E+04  0.00000000000E+00 0. -1.
         25    2    1    2    0    0  0.53468444553E+02  0.10281351767E+03 -0.98011750709E+03  0.99483558755E+03  0.12505208743E+03 0.  0.
         23    2    1    2    0    0 -0.53468444553E+02 -0.10281351767E+03 -0.44895366978E+03  0.47256179435E+03  0.91245591077E+02 0.  0.
          5    1    3    3  502    0  0.94311059577E+02  0.75027695550E+02 -0.66563752754E+03  0.67647211437E+03  0.41800000000E+01 0. -1.
         -5    1    3    3    0  502 -0.40842615024E+02  0.27785822122E+02 -0.31447997955E+03  0.31836347318E+03  0.41800000000E+01 0. -1.
        -11    1    4    4    0    0  0.84299765124E+01 -0.46516166599E+02 -0.28068902794E+03  0.28464214141E+03  0.00000000000E+00 0. -1.
         11    1    4    4    0    0 -0.61898421065E+02 -0.56297351072E+02 -0.16826464183E+03  0.18791965294E+03  0.00000000000E+00 0.  1.
</event>
<event>
 8    1  0.6443238E-009  0.1049098E+03  0.7561462E-02  0.1270297E+00
         -1   -1    0    0    0  501 -0.00000000000E+00  0.00000000000E+00  0.89212738308E+02  0.89212738308E+02  0.00000000000E+00 0.  1.
          1   -1    0    0  501    0  0.00000000000E+00 -0.00000000000E+00 -0.26798534791E+03  0.26798534791E+03  0.00000000000E+00 0. -1.
         25    2    1    2    0    0  0.31377447427E+02  0.84867082258E+02 -0.23908496479E+02  0.15622496864E+03  0.12509060222E+03 0.  0.
         23    2    1    2    0    0 -0.31377447427E+02 -0.84867082258E+02 -0.15486411313E+03  0.20097311758E+03  0.90666060896E+02 0.  0.
          5    1    3    3  502    0 -0.24852272175E+02  0.32869471372E+02  0.39102554345E+02  0.56960685888E+02  0.41800000000E+01 0.  1.
         -5    1    3    3    0  502  0.56229719602E+02  0.51997610885E+02 -0.63011050824E+02  0.99264282752E+02  0.41800000000E+01 0.  1.
        -11    1    4    4    0    0  0.14311376640E+00 -0.15574796159E+02  0.10598217024E+02  0.18839239927E+02  0.00000000000E+00 0.  1.
         11    1    4    4    0    0 -0.31520561194E+02 -0.69292286099E+02 -0.16546233015E+03  0.18213387766E+03  0.00000000000E+00 0. -1.
</event>
<event>
 8    1  0.6443238E-009  0.1309585E+03  0.7561462E-02  0.1226040E+00
         -2   -1    0    0    0  501 -0.00000000000E+00  0.00000000000E+00  0.44047043204E+02  0.44047043204E+02  0.00000000000E+00 0.  1.
          2   -1    0    0  501    0  0.00000000000E+00 -0.00000000000E+00 -0.51503653371E+03  0.51503653371E+03  0.00000000000E+00 0. -1.
         25    2    1    2    0    0  0.46362610924E+02  0.77814182896E+02 -0.35299402251E+03  0.38530069349E+03  0.12508919108E+03 0.  0.
         23    2    1    2    0    0 -0.46362610924E+02 -0.77814182896E+02 -0.11799546800E+03  0.17378288343E+03  0.89849993613E+02 0.  0.
          5    1    3    3  502    0 -0.28422094015E+02 -0.35990269432E+00 -0.19627675326E+02  0.34794582867E+02  0.41800000000E+01 0. -1.
         -5    1    3    3    0  502  0.74784704938E+02  0.78174085590E+02 -0.33336634718E+03  0.35050611062E+03  0.41800000000E+01 0. -1.
        -11    1    4    4    0    0 -0.11472592983E+02 -0.87866455485E+02 -0.66573961936E+02  0.11083423116E+03  0.00000000000E+00 0.  1.
         11    1    4    4    0    0 -0.34890017941E+02  0.10052272589E+02 -0.51421506064E+02  0.62948652266E+02  0.00000000000E+00 0. -1.
</event>
<event>
 8    1  0.6443238E-009  0.3096641E+03  0.7561462E-02  0.1080507E+00
          3   -1    0    0  501    0  0.00000000000E+00  0.00000000000E+00  0.13819236377E+03  0.13819236377E+03  0.00000000000E+00 0. -1.
         -3   -1    0    0    0  501 -0.00000000000E+00 -0.00000000000E+00 -0.14281779050E+04  0.14281779050E+04  0.00000000000E+00 0.  1.
         25    2    1    2    0    0 -0.29452995693E+03  0.73546952591E+02 -0.11165599159E+03  0.34681312683E+03  0.12512088042E+03 0.  0.
         23    2    1    2    0    0  0.29452995693E+03 -0.73546952591E+02 -0.11783295496E+04  0.12195571419E+04  0.81866019473E+02 0.  0.
          5    1    3    3  502    0 -0.95654368499E+02 -0.22312201434E+01  0.18172545110E+02  0.97480512679E+02  0.41800000000E+01 0.  1.
         -5    1    3    3    0  502 -0.19887558844E+03  0.75778172734E+02 -0.12982853670E+03  0.24933261415E+03  0.41800000000E+01 0.  1.
        -11    1    4    4    0    0  0.18485581855E+03 -0.78667058718E+02 -0.84744550516E+03  0.87093286997E+03  0.00000000000E+00 0. -1.
         11    1    4    4    0    0  0.10967413839E+03  0.51201061272E+01 -0.33088404447E+03  0.34862427197E+03  0.00000000000E+00 0.  1.
</event>
<event>
 8    1  0.6443238E-009  0.1137294E+03  0.7561462E-02  0.1253815E+00
         -1   -1    0    0    0  501 -0.00000000000E+00  0.00000000000E+00  0.63491163302E+02  0.63491163302E+02  0.00000000000E+00 0.  1.
          1   -1    0    0  501    0  0.00000000000E+00 -0.00000000000E+00 -0.32302696873E+03  0.32302696873E+03  0.00000000000E+00 0. -1.
         25    2    1    2    0    0 -0.38576632374E+02  0.82355771727E+02 -0.16255259510E+03  0.22436078226E+03  0.12507511638E+03 0.  0.
         23    2    1    2    0    0  0.38576632374E+02 -0.82355771727E+02 -0.96983210328E+02  0.16215734978E+03  0.92836594616E+02 0.  0.
          5    1    3    3  502    0 -0.49050398638E+02  0.95802112600E+02 -0.17310783626E+03  0.20388178378E+03  0.41800000000E+01 0.  1.
         -5    1    3    3    0  502  0.10473766264E+02 -0.13446340874E+02  0.10555241153E+02  0.20478998473E+02  0.41800000000E+01 0.  1.
        -11    1    4    4    0    0 -0.10815643958E+02 -0.19035270086E+02  0.13387965248E+02  0.25662370797E+02  0.00000000000E+00 0.  1.
         11    1    4    4    0    0  0.49392276332E+02 -0.63320501641E+02 -0.11037117558E+03  0.13649497898E+03  0.00000000000E+00 0. -1.
</event>
<event>
 8    1  0.6443238E-009  0.1006951E+03  0.7561462E-02  0.1278841E+00
          1   -1    0    0  501    0  0.00000000000E+00  0.00000000000E+00  0.16238425709E+03  0.16238425709E+03  0.00000000000E+00 0. -1.
         -1   -1    0    0    0  501 -0.00000000000E+00 -0.00000000000E+00 -0.81499266481E+02  0.81499266481E+02  0.00000000000E+00 0.  1.
         25    2    1    2    0    0  0.28873644972E+02 -0.89358008700E+01  0.20451653193E+02  0.13030111045E+03  0.12508626365E+03 0.  0.
         23    2    1    2    0    0 -0.28873644972E+02  0.89358008700E+01  0.60433337415E+02  0.11358241312E+03  0.91297537688E+02 0.  0.
          5    1    3    3  502    0  0.46947591418E+02 -0.58807149419E+02  0.14656577813E+02  0.76776590416E+02  0.41800000000E+01 0.  1.
         -5    1    3    3    0  502 -0.18073946446E+02  0.49871348549E+02  0.57950753802E+01  0.53524520034E+02  0.41800000000E+01 0.  1.
        -11    1    4    4    0    0 -0.31236964849E+01 -0.27788369190E+02  0.62720617710E+02  0.68671877999E+02  0.00000000000E+00 0. -1.
         11    1    4    4    0    0 -0.25749948487E+02  0.36724170060E+02 -0.22872802949E+01  0.44910535121E+02  0.00000000000E+00 0.  1.
</event>
<event>
 8    1  0.6443238E-009  0.1255388E+03  0.7561462E-02  0.1234230E+00
         -1   -1    0    0    0  501 -0.00000000000E+00  0.00000000000E+00  0.41489982287E+03  0.41489982287E+03  0.00000000000E+00 0.  1.
          1   -1    0    0  501    0  0.00000000000E+00 -0.00000000000E+00 -0.54428272954E+02  0.54428272954E+02  0.00000000000E+00 0. -1.
         25    2    1    2    0    0  0.10069753678E+03  0.18280575217E+02  0.19991423466E+03  0.25707508558E+03  0.12509086722E+03 0.  0.
         23    2    1    2    0    0 -0.10069753678E+03 -0.18280575217E+02  0.16055731526E+03  0.21225301025E+03  0.93800402618E+02 0.  0.
          5    1    3    3  502    0  0.13144746211E+02 -0.38563445211E+02  0.11618266309E+03  0.12319012648E+03  0.41800000000E+01 0. -1.
         -5    1    3    3    0  502  0.87552790570E+02  0.56844020428E+02  0.83731571561E+02  0.13388495909E+03  0.41800000000E+01 0. -1.
        -11    1    4    4    0    0 -0.30303363409E+02  0.65539310725E+01 -0.42833612451E+01  0.31298482870E+02  0.00000000000E+00 0. -1.
         11    1    4    4    0    0 -0.70394173372E+02 -0.24834506290E+02  0.16484067651E+03  0.18095452738E+03  0.00000000000E+00 0.  1.
</event>
<event>
 8    1  0.6443238E-009  0.2554540E+03  0.7561462E-02  0.1109906E+00
         -1   -1    0    0    0  501 -0.00000000000E+00  0.00000000000E+00  0.13030694493E+03  0.13030694493E+03  0.00000000000E+00 0.  1.
          1   -1    0    0  501    0  0.00000000000E+00 -0.00000000000E+00 -0.59347522010E+03  0.59347522010E+03  0.00000000000E+00 0. -1.
         25    2    1    2    0    0  0.51398172908E+01  0.23590533961E+03 -0.10948611737E+03  0.28863701373E+03  0.12508544609E+03 0.  0.
         23    2    1    2    0    0 -0.51398172908E+01 -0.23590533961E+03 -0.35368215780E+03  0.43514515130E+03  0.92641712943E+02 0.  0.
          5    1    3    3  502    0  0.50726825339E+02  0.64551286227E+02 -0.67512885728E+02  0.10637453409E+03  0.41800000000E+01 0. -1.
         -5    1    3    3    0  502 -0.45587008049E+02  0.17135405338E+03 -0.41973231643E+02  0.18226247965E+03  0.41800000000E+01 0. -1.
        -11    1    4    4    0    0 -0.44175467803E+02 -0.89332710866E+02 -0.11314488091E+03  0.15077655409E+03  0.00000000000E+00 0.  1.
         11    1    4    4    0    0  0.39035650512E+02 -0.14657262874E+03 -0.24053727689E+03  0.28436859721E+03  0.00000000000E+00 0. -1.
</event>
<event>
 8    1  0.6443238E-009  0.1181794E+03  0.7561462E-02  0.1246131E+00
         -1   -1    0    0    0  501 -0.00000000000E+00  0.00000000000E+00  0.40032202963E+02  0.40032202963E+02  0.00000000000E+00 0.  1.
          1   -1    0    0  501    0  0.00000000000E+00 -0.00000000000E+00 -0.53329949923E+03  0.53329949923E+03  0.00000000000E+00 0. -1.
         25    2    1    2    0    0 -0.86877767459E+02 -0.43355139311E+02 -0.27178958461E+03  0.31455376405E+03  0.12508827920E+03 0.  0.
         23    2    1    2    0    0  0.86877767459E+02  0.43355139311E+02 -0.22147771165E+03  0.25877793814E+03  0.92120735580E+02 0.  0.
          5    1    3    3  502    0 -0.78924351089E+02 -0.70975952592E+00 -0.25644650439E+03  0.26835021701E+03  0.41800000000E+01 0.  1.
         -5    1    3    3    0  502 -0.79534163697E+01 -0.42645379786E+02 -0.15343080219E+02  0.46203547046E+02  0.41800000000E+01 0.  1.
        -11    1    4    4    0    0  0.17782145183E+02  0.40901589791E+02 -0.26439706676E+02  0.51847881576E+02  0.00000000000E+00 0.  1.
         11    1    4    4    0    0  0.69095622276E+02  0.24535495202E+01 -0.19503800498E+03  0.20693005656E+03  0.00000000000E+00 0. -1.
</event>
<event>
 8    1  0.6443238E-009  0.1529453E+03  0.7561462E-02  0.1196900E+00
         -1   -1    0    0    0  501 -0.00000000000E+00  0.00000000000E+00  0.32541072118E+02  0.32541072118E+02  0.00000000000E+00 0.  1.
          1   -1    0    0  501    0  0.00000000000E+00 -0.00000000000E+00 -0.72255451138E+03  0.72255451138E+03  0.00000000000E+00 0. -1.
         25    2    1    2    0    0  0.50542337268E+02  0.96748817668E+02 -0.38218708780E+03  0.41668799316E+03  0.12508817686E+03 0.  0.
         23    2    1    2    0    0 -0.50542337268E+02 -0.96748817668E+02 -0.30782635147E+03  0.33840759034E+03  0.88587656949E+02 0.  0.
          5    1    3    3  502    0  0.89867369688E+00  0.11336476712E+03 -0.25620127523E+03  0.28019447509E+03  0.41800000000E+01 0. -1.
         -5    1    3    3    0  502  0.49643663571E+02 -0.16615949454E+02 -0.12598581256E+03  0.13649351807E+03  0.41800000000E+01 0. -1.
        -11    1    4    4    0    0 -0.74253706159E+02 -0.56859388432E+02 -0.18992974354E+03  0.21170713359E+03  0.00000000000E+00 0.  1.
         11    1    4    4    0    0  0.23711368892E+02 -0.39889429236E+02 -0.11789660793E+03  0.12670045675E+03  0.00000000000E+00 0. -1.
</event>
<event>
 8    1  0.6443238E-009  0.1650476E+03  0.7561462E-02  0.1183113E+00
         -1   -1    0    0    0  501 -0.00000000000E+00  0.00000000000E+00  0.40364771752E+02  0.40364771752E+02  0.00000000000E+00 0.  1.
          1   -1    0    0  501    0  0.00000000000E+00 -0.00000000000E+00 -0.75696398412E+03  0.75696398412E+03  0.00000000000E+00 0. -1.
         25    2    1    2    0    0  0.11957094594E+03  0.47337472676E+02 -0.49008082478E+03  0.52188616953E+03  0.12509161324E+03 0.  0.
         23    2    1    2    0    0 -0.11957094594E+03 -0.47337472676E+02 -0.22651838759E+03  0.27544258634E+03  0.89554402573E+02 0.  0.
          5    1    3    3  502    0  0.28680984372E+01  0.61492514714E+02 -0.17564610814E+03  0.18616815802E+03  0.41800000000E+01 0.  1.
         -5    1    3    3    0  502  0.11670284750E+03 -0.14155042039E+02 -0.31443471663E+03  0.33571801151E+03  0.41800000000E+01 0.  1.
        -11    1    4    4    0    0 -0.52167994709E+02 -0.62766020337E+02 -0.84463684248E+02  0.11745291370E+03  0.00000000000E+00 0.  1.
         11    1    4    4    0    0 -0.67402951229E+02  0.15428547661E+02 -0.14205470334E+03  0.15798967263E+03  0.00000000000E+00 0. -1.
</event>
<event>
 8    1  0.6443238E-009  0.9817745E+02  0.7561462E-02  0.1284176E+00
         -1   -1    0    0    0  501 -0.00000000000E+00  0.00000000000E+00  0.17536763906E+03  0.17536763906E+03  0.00000000000E+00 0.  1.
          1   -1    0    0  501    0  0.00000000000E+00 -0.00000000000E+00 -0.14134747917E+03  0.14134747917E+03  0.00000000000E+00 0. -1.
         25    2    1    2    0    0  0.63681809984E+02 -0.25219702345E+02  0.10974280558E+03  0.17995133710E+03  0.12509034351E+03 0.  0.
         23    2    1    2    0    0 -0.63681809984E+02  0.25219702345E+02 -0.75722645693E+02  0.13676378113E+03  0.90989045764E+02 0.  0.
          5    1    3    3  502    0  0.76072265658E+02 -0.42499668556E+02  0.12572318583E+03  0.15302615229E+03  0.41800000000E+01 0.  1.
         -5    1    3    3    0  502 -0.12390455674E+02  0.17279966211E+02 -0.15980380251E+02  0.26925184810E+02  0.41800000000E+01 0.  1.
        -11    1    4    4    0    0 -0.40528629404E+02 -0.13169632582E+02 -0.81097018934E+02  0.91611874251E+02  0.00000000000E+00 0. -1.
         11    1    4    4    0    0 -0.23153180581E+02  0.38389334927E+02  0.53743732412E+01  0.45151906880E+02  0.00000000000E+00 0.  1.
</event>
<event>
 8    1  0.6443238E-009  0.8845321E+02  0.7561462E-02  0.1306641E+00
          2   -1    0    0  501    0  0.00000000000E+00  0.00000000000E+00  0.36852411593E+03  0.36852411593E+03  0.00000000000E+00 0. -1.
         -2   -1    0    0    0  501 -0.00000000000E+00 -0.00000000000E+00 -0.33569901351E+02  0.33569901351E+02  0.00000000000E+00 0.  1.
         25    2    1    2    0    0 -0.35639097933E+02 -0.32530308901E+01  0.22504823550E+03  0.25994966432E+03  0.12508553939E+03 0.  0.
         23    2    1    2    0    0  0.35639097933E+02  0.32530308901E+01  0.10990597908E+03  0.14214435296E+03  0.82734305644E+02 0.  0.
          5    1    3    3  502    0 -0.60765365549E+02  0.11884864897E+02  0.22159282179E+03  0.23011851454E+03  0.41800000000E+01 0. -1.
         -5    1    3    3    0  502  0.25126267615E+02 -0.15137895787E+02  0.34554137073E+01  0.29831149777E+02  0.41800000000E+01 0. -1.
        -11    1    4    4    0    0  0.25570132581E+01  0.37508958119E+02  0.72199652897E+02  0.81401782133E+02  0.00000000000E+00 0. -1.
         11    1    4    4    0    0  0.33082084675E+02 -0.34255927229E+02  0.37706326179E+02  0.60742570827E+02  0.00000000000E+00 0.  1.
</event>
<event>
 8    1  0.6443238E-009  0.1335133E+03  0.7561462E-02  0.1222334E+00
          2   -1    0    0  501    0  0.00000000000E+00  0.00000000000E+00  0.61727435309E+03  0.61727435309E+03  0.00000000000E+00 0.  1.
         -2   -1    0    0    0  501 -0.00000000000E+00 -0.00000000000E+00 -0.38525182858E+02  0.38525182858E+02  0.00000000000E+00 0. -1.
         25    2    1    2    0    0  0.76675622091E+02 -0.75408721815E+02  0.29735501474E+03  0.34004974786E+03  0.12509276509E+03 0.  0.
         23    2    1    2    0    0 -0.76675622091E+02  0.75408721815E+02  0.28139415549E+03  0.31574978809E+03  0.94602492493E+02 0.  0.
          5    1    3    3  502    0  0.32609702795E+02  0.29179158072E+02  0.13453748162E+03  0.14153664664E+03  0.41800000000E+01 0.  1.
         -5    1    3    3    0  502  0.44065919297E+02 -0.10458787989E+03  0.16281753312E+03  0.19851310122E+03  0.41800000000E+01 0.  1.
        -11    1    4    4    0    0 -0.24180816312E+02  0.37993955436E+02  0.22693780679E+03  0.23136339529E+03  0.00000000000E+00 0.  1.
         11    1    4    4    0    0 -0.52494805779E+02  0.37414766379E+02  0.54456348703E+02  0.84386392807E+02  0.00000000000E+00 0. -1.
</event>
<event>
 8    1  0.6443238E-009  0.1198769E+03  0.7561462E-02  0.1243300E+00
          1   -1    0    0  501    0  0.00000000000E+00  0.00000000000E+00  0.54473117144E+03  0.54473117144E+03  0.00000000000E+00 0. -1.
         -1   -1    0    0    0  501 -0.00000000000E+00 -0.00000000000E+00 -0.36880935876E+02  0.36880935876E+02  0.00000000000E+00 0.  1.
         25    2    1    2    0    0 -0.28446913467E+02 -0.55030449337E+02  0.40522598208E+03  0.42859414300E+03  0.12508903078E+03 0.  0.
         23    2    1    2    0    0  0.28446913467E+02  0.55030449337E+02  0.10262425348E+03  0.15301796432E+03  0.95106165733E+02 0.  0.
          5    1    3    3  502    0 -0.62719412699E+02 -0.75210131228E+02  0.31510991114E+03  0.33000305615E+03  0.41800000000E+01 0. -1.
         -5    1    3    3    0  502  0.34272499231E+02  0.20179681891E+02  0.90116070932E+02  0.98591086843E+02  0.41800000000E+01 0. -1.
        -11    1    4    4    0    0 -0.28207282361E+02  0.12255243751E+02  0.32971982922E+01  0.30930782308E+02  0.00000000000E+00 0. -1.
         11    1    4    4    0    0  0.56654195828E+02  0.42775205586E+02  0.99327055193E+02  0.12208718201E+03  0.00000000000E+00 0.  1.
</event>
<event>
 8    1  0.6443238E-009  0.1143244E+03  0.7561462E-02  0.1252765E+00
          1   -1    0    0  501    0  0.00000000000E+00  0.00000000000E+00  0.85157772123E+03  0.85157772123E+03  0.00000000000E+00 0. -1.
         -1   -1    0    0    0  501 -0.00000000000E+00 -0.00000000000E+00 -0.17230396622E+02  0.17230396622E+02  0.00000000000E+00 0.  1.
         25    2    1    2    0    0 -0.39105725140E+01  0.52294760388E+02  0.51370740704E+03  0.53131175823E+03  0.12508736886E+03 0.  0.
         23    2    1    2    0    0  0.39105725140E+01 -0.52294760388E+02  0.32063991756E+03  0.33749635961E+03  0.91344411303E+02 0.  0.
          5    1    3    3  502    0  0.54858279496E+02  0.12520080503E+02  0.32078301709E+03  0.32570753706E+03  0.41800000000E+01 0. -1.
         -5    1    3    3    0  502 -0.58768852010E+02  0.39774679885E+02  0.19292438995E+03  0.20560422118E+03  0.41800000000E+01 0. -1.
        -11    1    4    4    0    0 -0.41310596126E+02 -0.23476434497E+02  0.10435674167E+03  0.11466489376E+03  0.00000000000E+00 0.  1.
         11    1    4    4    0    0  0.45221168640E+02 -0.28818325891E+02  0.21628317589E+03  0.22283146585E+03  0.00000000000E+00 0. -1.
</event>
<event>
 8    1  0.6443238E-009  0.1041409E+03  0.7561462E-02  0.1271821E+00
          3   -1    0    0  501    0  0.00000000000E+00  0.00000000000E+00  0.95506123630E+03  0.95506123630E+03  0.00000000000E+00 0. -1.
         -3   -1    0    0    0  501 -0.00000000000E+00 -0.00000000000E+00 -0.20466979884E+02  0.20466979884E+02  0.00000000000E+00 0.  1.
         25    2    1    2    0    0  0.57674012513E+02  0.32574253102E+02  0.71336497686E+03  0.72727183539E+03  0.12508940262E+03 0.  0.
         23    2    1    2    0    0 -0.57674012513E+02 -0.32574253102E+02  0.22122927956E+03  0.24825638080E+03  0.91112363543E+02 0.  0.
          5    1    3    3  502    0  0.18285924252E+01  0.58206304164E+02  0.54274405758E+03  0.54587535394E+03  0.41800000000E+01 0.  1.
         -5    1    3    3    0  502  0.55845420087E+02 -0.25632051062E+02  0.17062091928E+03  0.18139648145E+03  0.41800000000E+01 0.  1.
        -11    1    4    4    0    0 -0.47218534082E+02 -0.49502634494E+02  0.21751018282E+03  0.22801486884E+03  0.00000000000E+00 0. -1.
         11    1    4    4    0    0 -0.10455478431E+02  0.16928381392E+02  0.37190967350E+01  0.20241511957E+02  0.00000000000E+00 0.  1.
</event>
<event>
 8    1  0.6443238E-009  0.1857087E+03  0.7561462E-02  0.1162390E+00
         -1   -1    0    0    0  501 -0.00000000000E+00  0.00000000000E+00  0.14427109591E+03  0.14427109591E+03  0.00000000000E+00 0. -1.
          1   -1    0    0  501    0  0.00000000000E+00 -0.00000000000E+00 -0.26605070898E+03  0.26605070898E+03  0.00000000000E+00 0.  1.
         25    2    1    2    0    0  0.45289802503E+02 -0.14705363034E+03 -0.11895722970E+03  0.23124414651E+03  0.12508835434E+03 0.  0.
         23    2    1    2    0    0 -0.45289802503E+02  0.14705363034E+03 -0.28223833694E+01  0.17907765838E+03  0.91569129496E+02 0.  0.
          5    1    3    3  502    0  0.71690206207E+02 -0.38840088260E+02 -0.76753092941E+02  0.11205600295E+03  0.41800000000E+01 0.  1.
         -5    1    3    3    0  502 -0.26400403705E+02 -0.10821354208E+03 -0.42204136764E+02  0.11918814356E+03  0.41800000000E+01 0.  1.
        -11    1    4    4    0    0  0.35873575570E+00  0.12934560537E+03  0.52559174624E+01  0.12945284465E+03  0.00000000000E+00 0.  1.
         11    1    4    4    0    0 -0.45648538258E+02  0.17708024969E+02 -0.80783008318E+01  0.49624813730E+02  0.00000000000E+00 0. -1.
</event>
<event>
 8    1  0.6443238E-009  0.1083111E+03  0.7561462E-02  0.1263730E+00
          2   -1    0    0  501    0  0.00000000000E+00  0.00000000000E+00  0.13868093992E+03  0.13868093992E+03  0.00000000000E+00 0.  1.
         -2   -1    0    0    0  501 -0.00000000000E+00 -0.00000000000E+00 -0.88618496869E+02  0.88618496869E+02  0.00000000000E+00 0. -1.
         25    2    1    2    0    0 -0.68133411573E+01 -0.75576755787E+01  0.47419882111E+02  0.13416503347E+03  0.12509224960E+03 0.  0.
         23    2    1    2    0    0  0.68133411573E+01  0.75576755787E+01  0.26425609384E+01  0.93134403316E+02  0.92539147796E+02 0.  0.
          5    1    3    3  502    0 -0.56976294922E+02  0.27809711993E+02  0.29748254805E+02  0.70157746030E+02  0.41800000000E+01 0. -1.
         -5    1    3    3    0  502  0.50162953764E+02 -0.35367387572E+02  0.17671627307E+02  0.64007287442E+02  0.41800000000E+01 0. -1.
        -11    1    4    4    0    0  0.12765457599E+02 -0.40846765092E+02 -0.71603035016E+01  0.43389919018E+02  0.00000000000E+00 0.  1.
         11    1    4    4    0    0 -0.59521164414E+01  0.48404440671E+02  0.98028644400E+01  0.49744484297E+02  0.00000000000E+00 0. -1.
</event>
<event>
 8    1  0.6443238E-009  0.1474511E+03  0.7561462E-02  0.1203640E+00
          1   -1    0    0  501    0  0.00000000000E+00  0.00000000000E+00  0.20185440670E+03  0.20185440670E+03  0.00000000000E+00 0. -1.
         -1   -1    0    0    0  501 -0.00000000000E+00 -0.00000000000E+00 -0.13344082588E+03  0.13344082588E+03  0.00000000000E+00 0.  1.
         25    2    1    2    0    0  0.12112492333E+03  0.39882672610E+01  0.59897376980E+02  0.18418010434E+03  0.12508981469E+03 0.  0.
         23    2    1    2    0    0 -0.12112492333E+03 -0.39882672610E+01  0.85162038397E+01  0.15111512823E+03  0.89867140405E+02 0.  0.
          5    1    3    3  502    0  0.21214885848E+02  0.48767098938E+02  0.51733013347E+02  0.74310688264E+02  0.41800000000E+01 0. -1.
         -5    1    3    3    0  502  0.99910037481E+02 -0.44778831677E+02  0.81643636328E+01  0.10986941608E+03  0.41800000000E+01 0. -1.
        -11    1    4    4    0    0 -0.86462944998E+02 -0.26770059896E+02 -0.29145946527E+02  0.95089237896E+02  0.00000000000E+00 0.  1.
         11    1    4    4    0    0 -0.34661978331E+02  0.22781792635E+02  0.37662150367E+02  0.56025890334E+02  0.00000000000E+00 0. -1.
</event>
<event>
 8    1  0.6443238E-009  0.1526166E+03  0.7561462E-02  0.1197294E+00
          2   -1    0    0  501    0  0.00000000000E+00  0.00000000000E+00  0.15883042755E+03  0.15883042755E+03  0.00000000000E+00 0. -1.
         -2   -1    0    0    0  501 -0.00000000000E+00 -0.00000000000E+00 -0.18465000307E+03  0.18465000307E+03  0.00000000000E+00 0.  1.
         25    2    1    2    0    0  0.59647853625E+02 -0.11718454130E+03 -0.27400833747E+02  0.18354483793E+03  0.12509124141E+03 0.  0.
         23    2    1    2    0    0 -0.59647853625E+02  0.11718454130E+03  0.15812582275E+01  0.15993559269E+03  0.91031918950E+02 0.  0.
          5    1    3    3  502    0 -0.14205817014E+02 -0.93312718487E+02  0.13945178318E+02  0.95503974089E+02  0.41800000000E+01 0. -1.
         -5    1    3    3    0  502  0.73853670639E+02 -0.23871822817E+02 -0.41346012065E+02  0.88040863837E+02  0.41800000000E+01 0. -1.
        -11    1    4    4    0    0 -0.57111170953E+02  0.96111876672E+02  0.37748370277E+02  0.11800050061E+03  0.00000000000E+00 0. -1.
         11    1    4    4    0    0 -0.25366826723E+01  0.21072664633E+02 -0.36167112050E+02  0.41935092080E+02  0.00000000000E+00 0.  1.
</event>
<event>
 8    1  0.6443238E-009  0.1673009E+03  0.7561462E-02  0.1180692E+00
          1   -1    0    0  501    0  0.00000000000E+00  0.00000000000E+00  0.13730742010E+03  0.13730742010E+03  0.00000000000E+00 0.  1.
         -1   -1    0    0    0  501 -0.00000000000E+00 -0.00000000000E+00 -0.25483578519E+03  0.25483578519E+03  0.00000000000E+00 0. -1.
         25    2    1    2    0    0  0.13421879478E+03 -0.22863027757E+02 -0.13277219095E+03  0.22760990727E+03  0.12506163396E+03 0.  0.
         23    2    1    2    0    0 -0.13421879478E+03  0.22863027757E+02  0.15243825868E+02  0.16453329802E+03  0.91112178230E+02 0.  0.
          5    1    3    3  502    0  0.14148316338E+02 -0.55545809127E+02 -0.61374816296E+02  0.84082413394E+02  0.41800000000E+01 0. -1.
         -5    1    3    3    0  502  0.12007047844E+03  0.32682781370E+02 -0.71397374655E+02  0.14352749387E+03  0.41800000000E+01 0. -1.
        -11    1    4    4    0    0 -0.82727646326E+00 -0.14162147729E+02  0.21725426055E+02  0.25946964214E+02  0.00000000000E+00 0.  1.
         11    1    4    4    0    0 -0.13339151831E+03  0.37025175486E+02 -0.64816001869E+01  0.13858633381E+03  0.00000000000E+00 0. -1.
</event>
<event>
 8    1  0.6443238E-009  0.1207836E+03  0.7561462E-02  0.1241810E+00
          3   -1    0    0  501    0  0.00000000000E+00  0.00000000000E+00  0.77310748281E+03  0.77310748281E+03  0.00000000000E+00 0. -1.
         -3   -1    0    0    0  501 -0.00000000000E+00 -0.00000000000E+00 -0.19286177933E+02  0.19286177933E+02  0.00000000000E+00 0.  1.
         25    2    1    2    0    0 -0.34507354662E+02 -0.39258711205E+02  0.37420016066E+03  0.39800099724E+03  0.12508808750E+03 0.  0.
         23    2    1    2    0    0  0.34507354662E+02  0.39258711205E+02  0.37962114422E+03  0.39439266350E+03  0.93281058944E+02 0.  0.
          5    1    3    3  502    0 -0.66986810916E+02 -0.64915479606E+02  0.27543725089E+03  0.29083397997E+03  0.41800000000E+01 0. -1.
         -5    1    3    3    0  502  0.32479456254E+02  0.25656768401E+02  0.98762909774E+02  0.10716701727E+03  0.41800000000E+01 0. -1.
        -11    1    4    4    0    0 -0.31162418341E+02  0.23574998760E+02  0.12444637535E+03  0.13043687063E+03  0.00000000000E+00 0.  1.
         11    1    4    4    0    0  0.65669773003E+02  0.15683712445E+02  0.25517476887E+03  0.26395579287E+03  0.00000000000E+00 0. -1.
</event>
<event>
 8    1  0.6443238E-009  0.1003999E+03  0.7561462E-02  0.1279457E+00
         -1   -1    0    0    0  501 -0.00000000000E+00  0.00000000000E+00  0.40438405297E+02  0.40438405297E+02  0.00000000000E+00 0.  1.
          1   -1    0    0  501    0  0.00000000000E+00 -0.00000000000E+00 -0.39442115434E+03  0.39442115434E+03  0.00000000000E+00 0. -1.
         25    2    1    2    0    0  0.22259173304E+02  0.57371795560E+02 -0.17462993924E+03  0.22345068880E+03  0.12509037103E+03 0.  0.
         23    2    1    2    0    0 -0.22259173304E+02 -0.57371795560E+02 -0.17935280981E+03  0.21140887084E+03  0.93484151395E+02 0.  0.
          5    1    3    3  502    0  0.27885560645E+01 -0.28611530187E+02 -0.11075814288E+03  0.11450429826E+03  0.41800000000E+01 0.  1.
         -5    1    3    3    0  502  0.19470617239E+02  0.85983325747E+02 -0.63871796353E+02  0.10894639054E+03  0.41800000000E+01 0.  1.
        -11    1    4    4    0    0 -0.30001142715E+02 -0.48366092793E+01 -0.14503027238E+03  0.14817975995E+03  0.00000000000E+00 0. -1.
         11    1    4    4    0    0  0.77419694106E+01 -0.52535186281E+02 -0.34322537428E+02  0.63229110886E+02  0.00000000000E+00 0.  1.
</event>
<event>
 8    1  0.6443238E-009  0.8201324E+02  0.7561462E-02  0.1323433E+00
         -1   -1    0    0    0  501 -0.00000000000E+00  0.00000000000E+00  0.33589767967E+02  0.33589767967E+02  0.00000000000E+00 0.  1.
          1   -1    0    0  501    0  0.00000000000E+00 -0.00000000000E+00 -0.57618351909E+03  0.57618351909E+03  0.00000000000E+00 0. -1.
         25    2    1    2    0    0  0.76255006755E+02  0.24727647702E+02 -0.42354184402E+03  0.44884641697E+03  0.12509648187E+03 0.  0.
         23    2    1    2    0    0 -0.76255006755E+02 -0.24727647702E+02 -0.11905190710E+03  0.16092687008E+03  0.72786113472E+02 0.  0.
          5    1    3    3  502    0  0.66110030629E+02  0.24546772510E+02 -0.43023250825E+03  0.43599376572E+03  0.41800000000E+01 0.  1.
         -5    1    3    3    0  502  0.10144976126E+02  0.18087519176E+00  0.66906642284E+01  0.12852651254E+02  0.41800000000E+01 0.  1.
        -11    1    4    4    0    0 -0.33786932924E+02 -0.10877768521E+01 -0.10503641184E+03  0.11034214021E+03  0.00000000000E+00 0. -1.
         11    1    4    4    0    0 -0.42468073831E+02 -0.23639870850E+02 -0.14015495263E+02  0.50584729871E+02  0.00000000000E+00 0.  1.
</event>
<event>
 8    1  0.6443238E-009  0.9273694E+02  0.7561462E-02  0.1296356E+00
         -1   -1    0    0    0  501 -0.00000000000E+00  0.00000000000E+00  0.16922601325E+03  0.16922601325E+03  0.00000000000E+00 0.  1.
          1   -1    0    0  501    0  0.00000000000E+00 -0.00000000000E+00 -0.85253453884E+02  0.85253453884E+02  0.00000000000E+00 0. -1.
         25    2    1    2    0    0  0.30678918279E+02  0.26784271986E+02  0.95047685487E+02  0.16230119659E+03  0.12509605368E+03 0.  0.
         23    2    1    2    0    0 -0.30678918279E+02 -0.26784271986E+02 -0.11075126126E+02  0.92178270541E+02  0.81948653978E+02 0.  0.
          5    1    3    3  502    0  0.72101678561E+02 -0.25108933916E+01  0.82877634148E+02  0.10995968024E+03  0.41800000000E+01 0. -1.
         -5    1    3    3    0  502 -0.41422760282E+02  0.29295165377E+02  0.12170051339E+02  0.52341516347E+02  0.41800000000E+01 0. -1.
        -11    1    4    4    0    0 -0.38743354115E+02 -0.49916564423E+01  0.27060520695E+02  0.47520899638E+02  0.00000000000E+00 0.  1.
         11    1    4    4    0    0  0.80644358360E+01 -0.21792615543E+02 -0.38135646821E+02  0.44657370904E+02  0.00000000000E+00 0. -1.
</event>
<event>
 8    1  0.6443238E-009  0.1525206E+03  0.7561462E-02  0.1197409E+00
          1   -1    0    0  501    0  0.00000000000E+00  0.00000000000E+00  0.94111811506E+02  0.94111811506E+02  0.00000000000E+00 0. -1.
         -1   -1    0    0    0  501 -0.00000000000E+00 -0.00000000000E+00 -0.55829937358E+03  0.55829937358E+03  0.00000000000E+00 0.  1.
         25    2    1    2    0    0  0.89103475793E+02  0.89565411324E+02 -0.46388258894E+03  0.49678854725E+03  0.12510160689E+03 0.  0.
         23    2    1    2    0    0 -0.89103475793E+02 -0.89565411324E+02 -0.30497312795E+00  0.15562263784E+03  0.90867596506E+02 0.  0.
          5    1    3    3  502    0  0.22379609897E+01 -0.26306134349E+02 -0.13173490212E+03  0.13441941084E+03  0.41800000000E+01 0.  1.
         -5    1    3    3    0  502  0.86865514804E+02  0.11587154567E+03 -0.33214768683E+03  0.36236913641E+03  0.41800000000E+01 0.  1.
        -11    1    4    4    0    0 -0.49826460666E+02 -0.77881207740E+02  0.37592572634E+02  0.99806614103E+02  0.00000000000E+00 0. -1.
         11    1    4    4    0    0 -0.39277015128E+02 -0.11684203584E+02 -0.37897545762E+02  0.55816023734E+02  0.00000000000E+00 0.  1.
</event>
<event>
 8    1  0.6443238E-009  0.9646566E+02  0.7561462E-02  0.1287909E+00
          1   -1    0    0  501    0  0.00000000000E+00  0.00000000000E+00  0.31397187405E+03  0.31397187405E+03  0.00000000000E+00 0. -1.
         -1   -1    0    0    0  501 -0.00000000000E+00 -0.00000000000E+00 -0.87895082035E+02  0.87895082035E+02  0.00000000000E+00 0.  1.
         25    2    1    2    0    0 -0.62551752218E+02  0.60505357571E+02  0.12090300469E+02  0.15286060788E+03  0.12508625054E+03 0.  0.
         23    2    1    2    0    0  0.62551752218E+02 -0.60505357571E+02  0.21398649155E+03  0.24900634821E+03  0.92953337132E+02 0.  0.
          5    1    3    3  502    0  0.23644963523E+01  0.59273439742E+01  0.56515247705E+02  0.57027799122E+02  0.41800000000E+01 0. -1.
         -5    1    3    3    0  502 -0.64916248570E+02  0.54578013597E+02 -0.44424947236E+02  0.95832808753E+02  0.41800000000E+01 0. -1.
        -11    1    4    4    0    0  0.31862014387E+02  0.75508734246E+00  0.93657421545E+01  0.33218597860E+02  0.00000000000E+00 0.  1.
         11    1    4    4    0    0  0.30689737831E+02 -0.61260444913E+02  0.20462074939E+03  0.21578775035E+03  0.00000000000E+00 0. -1.
</event>
<event>
 8    1  0.6443238E-009  0.1386763E+03  0.7561462E-02  0.1215121E+00
          1   -1    0    0  501    0  0.00000000000E+00  0.00000000000E+00  0.21277498500E+03  0.21277498500E+03  0.00000000000E+00 0. -1.
         -1   -1    0    0    0  501 -0.00000000000E+00 -0.00000000000E+00 -0.14758221465E+03  0.14758221465E+03  0.00000000000E+00 0.  1.
         25    2    1    2    0    0  0.74010602597E+02 -0.99035158974E+02 -0.31043866425E+02  0.17859617617E+03  0.12508933004E+03 0.  0.
         23    2    1    2    0    0 -0.74010602597E+02  0.99035158974E+02  0.96236636774E+02  0.18176102348E+03  0.92141453150E+02 0.  0.
          5    1    3    3  502    0  0.35930161038E+02 -0.57875049484E+02  0.46664811435E+02  0.82677535349E+02  0.41800000000E+01 0. -1.
         -5    1    3    3    0  502  0.38080441559E+02 -0.41160109489E+02 -0.77708677860E+02  0.95918640823E+02  0.41800000000E+01 0. -1.
        -11    1    4    4    0    0 -0.91914844843E+02  0.59551436072E+02  0.79305783576E+02  0.13521878401E+03  0.00000000000E+00 0.  1.
         11    1    4    4    0    0  0.17904242246E+02  0.39483722901E+02  0.16930853198E+02  0.46542239467E+02  0.00000000000E+00 0. -1.
</event>
<event>
 8    1  0.6443238E-009  0.1172449E+03  0.7561462E-02  0.1247713E+00
         -1   -1    0    0    0  501 -0.00000000000E+00  0.00000000000E+00  0.15300214599E+02  0.15300214599E+02  0.00000000000E+00 0.  1.
          1   -1    0    0  501    0  0.00000000000E+00 -0.00000000000E+00 -0.12233756303E+04  0.12233756303E+04  0.00000000000E+00 0. -1.
         25    2    1    2    0    0 -0.61172431122E+02 -0.53399241949E+02 -0.74244513179E+03  0.75727555120E+03  0.12509173175E+03 0.  0.
         23    2    1    2    0    0  0.61172431122E+02  0.53399241949E+02 -0.46563028395E+03  0.48140029375E+03  0.91329820503E+02 0.  0.
          5    1    3    3  502    0  0.19872955220E+02 -0.42927857664E+02 -0.48066034293E+03  0.48300059314E+03  0.41800000000E+01 0.  1.
         -5    1    3    3    0  502 -0.81045386342E+02 -0.10471384285E+02 -0.26178478887E+03  0.27427495806E+03  0.41800000000E+01 0.  1.
        -11    1    4    4    0    0  0.32118485630E+02 -0.11463040105E+02 -0.55370955258E+02  0.65030309040E+02  0.00000000000E+00 0.  1.
         11    1    4    4    0    0  0.29053945492E+02  0.64862282054E+02 -0.41025932870E+03  0.41636998471E+03  0.00000000000E+00 0. -1.
</event>
<event>
 8    1  0.6443238E-009  0.1687753E+03  0.7561462E-02  0.1179131E+00
          1   -1    0    0  501    0  0.00000000000E+00  0.00000000000E+00  0.13162016244E+04  0.13162016244E+04  0.00000000000E+00 0. -1.
         -1   -1    0    0    0  501 -0.00000000000E+00 -0.00000000000E+00 -0.22591298565E+02  0.22591298565E+02  0.00000000000E+00 0.  1.
         25    2    1    2    0    0 -0.73998457269E+02  0.11088631641E+03  0.64853398680E+03  0.67380757866E+03  0.12509506057E+03 0.  0.
         23    2    1    2    0    0  0.73998457269E+02 -0.11088631641E+03  0.64507633907E+03  0.66498534434E+03  0.91161823781E+02 0.  0.
          5    1    3    3  502    0  0.65685950987E+01  0.96937387106E+02  0.28387950485E+03  0.30007507249E+03  0.41800000000E+01 0. -1.
         -5    1    3    3    0  502 -0.80567052368E+02  0.13948929303E+02  0.36465448195E+03  0.37373250616E+03  0.41800000000E+01 0. -1.
        -11    1    4    4    0    0 -0.83642952757E+01 -0.62184239707E+02  0.19483088072E+03  0.20468491196E+03  0.00000000000E+00 0.  1.
         11    1    4    4    0    0  0.82362752545E+02 -0.48702076703E+02  0.45024545835E+03  0.46030043238E+03  0.00000000000E+00 0. -1.
</event>
<event>
 8    1  0.6443238E-009  0.9804504E+02  0.7561462E-02  0.1284462E+00
         -2   -1    0    0    0  501 -0.00000000000E+00  0.00000000000E+00  0.26413056991E+02  0.26413056991E+02  0.00000000000E+00 0.  1.
          2   -1    0    0  501    0  0.00000000000E+00 -0.00000000000E+00 -0.55202319924E+03  0.55202319924E+03  0.00000000000E+00 0. -1.
         25    2    1    2    0    0 -0.32290723073E+02 -0.13893211645E+02 -0.38737762281E+03  0.40858716639E+03  0.12508532190E+03 0.  0.
         23    2    1    2    0    0  0.32290723073E+02  0.13893211645E+02 -0.13823251944E+03  0.16984908985E+03  0.92221319471E+02 0.  0.
          5    1    3    3  502    0  0.10162859157E+02  0.50951621685E+02 -0.16654710908E+03  0.17451293190E+03  0.41800000000E+01 0. -1.
         -5    1    3    3    0  502 -0.42453582230E+02 -0.64844833329E+02 -0.22083051373E+03  0.23407423448E+03  0.41800000000E+01 0. -1.
        -11    1    4    4    0    0  0.25204688870E+02 -0.19716234260E+02 -0.51579651825E+01  0.32413127576E+02  0.00000000000E+00 0.  1.
         11    1    4    4    0    0  0.70860342028E+01  0.33609445905E+02 -0.13307455426E+03  0.13743596227E+03  0.00000000000E+00 0. -1.
</event>
<event>
 8    1  0.6443238E-009  0.2409290E+03  0.7561462E-02  0.1119175E+00
          2   -1    0    0  501    0  0.00000000000E+00  0.00000000000E+00  0.14728949729E+04  0.14728949729E+04  0.00000000000E+00 0. -1.
         -2   -1    0    0    0  501 -0.00000000000E+00 -0.00000000000E+00 -0.43178796783E+02  0.43178796783E+02  0.00000000000E+00 0.  1.
         25    2    1    2    0    0  0.16176556457E+03  0.15319825780E+03  0.60204443873E+03  0.65402091429E+03  0.12509215027E+03 0.  0.
         23    2    1    2    0    0 -0.16176556457E+03 -0.15319825780E+03  0.82767173735E+03  0.86205285535E+03  0.91960951134E+02 0.  0.
          5    1    3    3  502    0  0.13166675533E+03  0.39094988891E+02  0.31984646893E+03  0.34811462007E+03  0.41800000000E+01 0.  1.
         -5    1    3    3    0  502  0.30098809242E+02  0.11410326891E+03  0.28219796979E+03  0.30590629423E+03  0.41800000000E+01 0.  1.
        -11    1    4    4    0    0 -0.66251089420E+02 -0.90317937477E+02  0.26202392820E+03  0.28496153359E+03  0.00000000000E+00 0.  1.
         11    1    4    4    0    0 -0.95514475151E+02 -0.62880320320E+02  0.56564780915E+03  0.57709132175E+03  0.00000000000E+00 0. -1.
</event>
<event>
 8    1  0.6443238E-009  0.1816473E+03  0.7561462E-02  0.1166218E+00
          1   -1    0    0  501    0  0.00000000000E+00  0.00000000000E+00  0.70889157439E+02  0.70889157439E+02  0.00000000000E+00 0. -1.
         -1   -1    0    0    0  501 -0.00000000000E+00 -0.00000000000E+00 -0.65016182658E+03  0.65016182658E+03  0.00000000000E+00 0.  1.
         25    2    1    2    0    0  0.11340292366E+03  0.14131247855E+03 -0.23668831047E+03  0.32326211493E+03  0.12509036312E+03 0.  0.
         23    2    1    2    0    0 -0.11340292366E+03 -0.14131247855E+03 -0.34258435867E+03  0.39778886909E+03  0.89679997091E+02 0.  0.
          5    1    3    3  502    0  0.81499660368E+02  0.89542940501E+02 -0.57719660868E+02  0.13419822832E+03  0.41800000000E+01 0.  1.
         -5    1    3    3    0  502  0.31903263296E+02  0.51769538046E+02 -0.17896864960E+03  0.18906388661E+03  0.41800000000E+01 0.  1.
        -11    1    4    4    0    0 -0.35173153856E+02 -0.43508103939E+02 -0.35790459463E+02  0.66415832820E+02  0.00000000000E+00 0. -1.
         11    1    4    4    0    0 -0.78229769807E+02 -0.97804374607E+02 -0.30679389921E+03  0.33137303627E+03  0.00000000000E+00 0.  1.
</event>
<event>
 8    1  0.6443238E-009  0.2977885E+03  0.7561462E-02  0.1086351E+00
          2   -1    0    0  501    0  0.00000000000E+00  0.00000000000E+00  0.66525938638E+03  0.66525938638E+03  0.00000000000E+00 0. -1.
         -2   -1    0    0    0  501 -0.00000000000E+00 -0.00000000000E+00 -0.17925746783E+03  0.17925746783E+03  0.00000000000E+00 0.  1.
         25    2    1    2    0    0  0.25651594185E+03 -0.13121239904E+03  0.57135828141E+02  0.31926372646E+03  0.12509077541E+03 0.  0.
         23    2    1    2    0    0 -0.25651594185E+03  0.13121239904E+03  0.42886609041E+03  0.52525312775E+03  0.94591768259E+02 0.  0.
          5    1    3    3  502    0  0.10945225300E+03 -0.11514905544E+03 -0.43975717087E+01  0.15898399823E+03  0.41800000000E+01 0. -1.
         -5    1    3    3    0  502  0.14706368885E+03 -0.16063343598E+02  0.61533399849E+02  0.16027972823E+03  0.41800000000E+01 0. -1.
        -11    1    4    4    0    0 -0.23518175690E+03  0.12549303002E+03  0.42661657367E+03  0.50305134956E+03  0.00000000000E+00 0. -1.
         11    1    4    4    0    0 -0.21334184944E+02  0.57193690198E+01  0.22495167403E+01  0.22201778189E+02  0.00000000000E+00 0.  1.
</event>
<event>
 8    1  0.6443238E-009  0.1114015E+03  0.7561462E-02  0.1257996E+00
          1   -1    0    0  501    0  0.00000000000E+00  0.00000000000E+00  0.13108990050E+03  0.13108990050E+03  0.00000000000E+00 0. -1.
         -1   -1    0    0    0  501 -0.00000000000E+00 -0.00000000000E+00 -0.11682075207E+03  0.11682075207E+03  0.00000000000E+00 0.  1.
         25    2    1    2    0    0  0.34488865999E+02 -0.29428926023E+01  0.58150348764E+02  0.14222477414E+03  0.12509308863E+03 0.  0.
         23    2    1    2    0    0 -0.34488865999E+02  0.29428926023E+01 -0.43881200336E+02  0.10568587844E+03  0.89698398331E+02 0.  0.
          5    1    3    3  502    0  0.80437459323E+02 -0.72299782224E+01  0.50274368338E+02  0.95223116727E+02  0.41800000000E+01 0. -1.
         -5    1    3    3    0  502 -0.45948593324E+02  0.42870856202E+01  0.78759804257E+01  0.47001657410E+02  0.41800000000E+01 0. -1.
        -11    1    4    4    0    0  0.30365971964E+02 -0.27595020460E+01 -0.19349028476E+02  0.36112214108E+02  0.00000000000E+00 0.  1.
         11    1    4    4    0    0 -0.64854837962E+02  0.57023946483E+01 -0.24532171860E+02  0.69573664328E+02  0.00000000000E+00 0. -1.
</event>
<event>
 8    1  0.6443238E-009  0.1635038E+03  0.7561462E-02  0.1184797E+00
         -2   -1    0    0    0  501 -0.00000000000E+00  0.00000000000E+00  0.53614573955E+02  0.53614573955E+02  0.00000000000E+00 0.  1.
          2   -1    0    0  501    0  0.00000000000E+00 -0.00000000000E+00 -0.10068793864E+04  0.10068793864E+04  0.00000000000E+00 0. -1.
         25    2    1    2    0    0 -0.67547663169E+02  0.13091140762E+03 -0.16271297025E+03  0.25263315458E+03  0.12509003421E+03 0.  0.
         23    2    1    2    0    0  0.67547663169E+02 -0.13091140762E+03 -0.79055184215E+03  0.80786080573E+03  0.77242364478E+02 0.  0.
          5    1    3    3  502    0 -0.61535841730E+02  0.37074639464E+02 -0.91798908040E+01  0.72546064703E+02  0.41800000000E+01 0. -1.
         -5    1    3    3    0  502 -0.60118214394E+01  0.93836768155E+02 -0.15353307945E+03  0.18008708987E+03  0.41800000000E+01 0. -1.
        -11    1    4    4    0    0 -0.20538615045E+01 -0.65104283704E+02 -0.22437011025E+03  0.23363375714E+03  0.00000000000E+00 0.  1.
         11    1    4    4    0    0  0.69601524673E+02 -0.65807123914E+02 -0.56618173190E+03  0.57422704859E+03  0.00000000000E+00 0. -1.
</event>
<event>
 8    1  0.6443238E-009  0.1890833E+03  0.7561462E-02  0.1159291E+00
          2   -1    0    0  501    0  0.00000000000E+00  0.00000000000E+00  0.40108503058E+03  0.40108503058E+03  0.00000000000E+00 0.  1.
         -2   -1    0    0    0  501 -0.00000000000E+00 -0.00000000000E+00 -0.10171218619E+03  0.10171218619E+03  0.00000000000E+00 0. -1.
         25    2    1    2    0    0  0.16022471831E+03 -0.57692187296E+02  0.15981441091E+03  0.26493056530E+03  0.12508880711E+03 0.  0.
         23    2    1    2    0    0 -0.16022471831E+03  0.57692187296E+02  0.13955843348E+03  0.23786665147E+03  0.90020212681E+02 0.  0.
          5    1    3    3  502    0  0.57739480317E+01  0.29502811962E+02  0.78981422081E+01  0.31362516479E+02  0.41800000000E+01 0.  1.
         -5    1    3    3    0  502  0.15445077028E+03 -0.87194999259E+02  0.15191626870E+03  0.23356804883E+03  0.41800000000E+01 0.  1.
        -11    1    4    4    0    0 -0.27549969060E+02  0.75287860237E+01 -0.11376627074E+02  0.30742658599E+02  0.00000000000E+00 0.  1.
         11    1    4    4    0    0 -0.13267474925E+03  0.50163401273E+02  0.15093506056E+03  0.20712399287E+03  0.00000000000E+00 0. -1.
</event>
<event>
 8    1  0.6443238E-009  0.9610568E+02  0.7561462E-02  0.1288705E+00
          2   -1    0    0  501    0  0.00000000000E+00  0.00000000000E+00  0.50070012130E+03  0.50070012130E+03  0.00000000000E+00 0. -1.
         -2   -1    0    0    0  501 -0.00000000000E+00 -0.00000000000E+00 -0.36234343280E+02  0.36234343280E+02  0.00000000000E+00 0.  1.
         25    2    1    2    0    0 -0.38861745778E+02 -0.68750662941E+02  0.27295193086E+03  0.31046342788E+03  0.12509154470E+03 0.  0.
         23    2    1    2    0    0  0.38861745778E+02  0.68750662941E+02  0.19151384717E+03  0.22647103670E+03  0.91513320714E+02 0.  0.
          5    1    3    3  502    0  0.38572109420E+01 -0.39093577753E+01 -0.12679537618E+02  0.14436212408E+02  0.41800000000E+01 0.  1.
         -5    1    3    3    0  502 -0.42718956720E+02 -0.64841305166E+02  0.28563146848E+03  0.29602721548E+03  0.41800000000E+01 0.  1.
        -11    1    4    4    0    0 -0.19048519822E+02  0.36729093170E+02  0.27686172311E+02  0.49783496560E+02  0.00000000000E+00 0.  1.
         11    1    4    4    0    0  0.57910265600E+02  0.32021569771E+02  0.16382767486E+03  0.17668754014E+03  0.00000000000E+00 0. -1.
</event>
<event>
 8    1  0.6443238E-009  0.2384056E+03  0.7561462E-02  0.1120860E+00
         -1   -1    0    0    0  501 -0.00000000000E+00  0.00000000000E+00  0.90878886146E+02  0.90878886146E+02  0.00000000000E+00 0.  1.
          1   -1    0    0  501    0  0.00000000000E+00 -0.00000000000E+00 -0.65311938343E+03  0.65311938343E+03  0.00000000000E+00 0. -1.
         25    2    1    2    0    0 -0.19739204326E+03  0.80403668085E+02 -0.22201060708E+03  0.33221241990E+03  0.12509202092E+03 0.  0.
         23    2    1    2    0    0  0.19739204326E+03 -0.80403668085E+02 -0.34022989021E+03  0.41178584968E+03  0.91557846324E+02 0.  0.
          5    1    3    3  502    0 -0.41825206823E+02  0.81285976115E+02 -0.82096537102E+02  0.12293930064E+03  0.41800000000E+01 0. -1.
         -5    1    3    3    0  502 -0.15556683643E+03 -0.88230802993E+00 -0.13991406998E+03  0.20927311925E+03  0.41800000000E+01 0. -1.
        -11    1    4    4    0    0  0.13277205180E+03 -0.95209224028E+02 -0.21435482668E+03  0.26952032540E+03  0.00000000000E+00 0.  1.
         11    1    4    4    0    0  0.64619991455E+02  0.14805555942E+02 -0.12587506352E+03  0.14226552428E+03  0.00000000000E+00 0. -1.
</event>
<event>
 8    1  0.6443238E-009  0.1173267E+03  0.7561462E-02  0.1247573E+00
         -1   -1    0    0    0  501 -0.00000000000E+00  0.00000000000E+00  0.11225925937E+04  0.11225925937E+04  0.00000000000E+00 0.  1.
          1   -1    0    0  501    0  0.00000000000E+00 -0.00000000000E+00 -0.16465891919E+02  0.16465891919E+02  0.00000000000E+00 0. -1.
         25    2    1    2    0    0 -0.17517356188E+02  0.61688970518E+02  0.81713403962E+03  0.82913660283E+03  0.12508829121E+03 0.  0.
         23    2    1    2    0    0  0.17517356188E+02 -0.61688970518E+02  0.28899266217E+03  0.30992188279E+03  0.91773786000E+02 0.  0.
          5    1    3    3  502    0 -0.20301043116E+02 -0.30496395954E+02  0.11033111451E+03  0.11632965979E+03  0.41800000000E+01 0. -1.
         -5    1    3    3    0  502  0.27836869285E+01  0.92185366472E+02  0.70680292510E+03  0.71280694303E+03  0.41800000000E+01 0. -1.
        -11    1    4    4    0    0 -0.23414359734E+02  0.79106689731E+01  0.12143358552E+03  0.12392306733E+03  0.00000000000E+00 0.  1.
         11    1    4    4    0    0  0.40931715922E+02 -0.69599639491E+02  0.16755907665E+03  0.18599881546E+03  0.00000000000E+00 0. -1.
</event>
<event>
 7    1  0.6443238E-009  0.1087342E+03  0.7561462E-02  0.1262932E+00
          2   -1    0    0  501    0  0.00000000000E+00  0.00000000000E+00  0.12491713296E+03  0.12491713296E+03  0.00000000000E+00 0. -1.
         -2   -1    0    0    0  501 -0.00000000000E+00 -0.00000000000E+00 -0.30948755986E+03  0.30948755986E+03  0.00000000000E+00 0.  1.
         23    2    1    2    0    0  0.79111074035E+02 -0.65659837104E+02 -0.22849927691E+03  0.26658504475E+03  0.91026865755E+02 0.  0.
          5    1    1    2  502    0 -0.10946714022E+02  0.76117891790E+01  0.72431825695E+02  0.73767280389E+02  0.41800000000E+01 0. -1.
         -5    1    1    2    0  502 -0.68164360012E+02  0.58048047925E+02 -0.28502975682E+02  0.94052367682E+02  0.41800000000E+01 0. -1.
        -11    1    3    3    0    0  0.31747028788E+02 -0.57672780766E+02 -0.20040104023E+03  0.21093743243E+03  0.00000000000E+00 0.  1.
         11    1    3    3    0    0  0.47364045247E+02 -0.79870563378E+01 -0.28098236686E+02  0.55647612311E+02  0.00000000000E+00 0. -1.
</event>
<event>
 8    1  0.6443238E-009  0.8641239E+02  0.7561462E-02  0.1311780E+00
          1   -1    0    0  501    0  0.00000000000E+00  0.00000000000E+00  0.81523584696E+02  0.81523584696E+02  0.00000000000E+00 0.  1.
         -1   -1    0    0    0  501 -0.00000000000E+00 -0.00000000000E+00 -0.30602081229E+03  0.30602081229E+03  0.00000000000E+00 0. -1.
         25    2    1    2    0    0 -0.35819280809E+02 -0.20865092119E+02  0.97950015622E+01  0.13214291955E+03  0.12508971254E+03 0.  0.
         23    2    1    2    0    0  0.35819280809E+02  0.20865092119E+02 -0.23429222915E+03  0.25540147744E+03  0.92836916626E+02 0.  0.
          5    1    3    3  502    0 -0.49679149070E+02 -0.54862852956E+02  0.40164683763E+02  0.84312660429E+02  0.41800000000E+01 0.  1.
         -5    1    3    3    0  502  0.13859868261E+02  0.33997760837E+02 -0.30369682201E+02  0.47830259117E+02  0.41800000000E+01 0.  1.
        -11    1    4    4    0    0  0.39669752573E+02 -0.85937692451E+00 -0.22939505084E+03  0.23280145435E+03  0.00000000000E+00 0. -1.
         11    1    4    4    0    0 -0.38504717644E+01  0.21724469043E+02 -0.48971783120E+01  0.22600023085E+02  0.00000000000E+00 0.  1.
</event>
<event>
 8    1  0.6443238E-009  0.7898402E+02  0.7561462E-02  0.1331960E+00
          1   -1    0    0  501    0  0.00000000000E+00  0.00000000000E+00  0.20904512459E+02  0.20904512459E+02  0.00000000000E+00 0. -1.
         -1   -1    0    0    0  501 -0.00000000000E+00 -0.00000000000E+00 -0.70366624475E+03  0.70366624475E+03  0.00000000000E+00 0.  1.
         25    2    1    2    0    0  0.50739294891E+02 -0.81080624808E+01 -0.41534485215E+03  0.43680634227E+03  0.12509283639E+03 0.  0.
         23    2    1    2    0    0 -0.50739294891E+02  0.81080624808E+01 -0.26741688014E+03  0.28776441494E+03  0.93039529220E+02 0.  0.
          5    1    3    3  502    0  0.16040328581E+02  0.15191245644E+02 -0.38333940567E+03  0.38399822712E+03  0.41800000000E+01 0. -1.
         -5    1    3    3    0  502  0.34698966310E+02 -0.23299308125E+02 -0.32005446476E+02  0.52808115155E+02  0.41800000000E+01 0. -1.
        -11    1    4    4    0    0 -0.50897871449E+02  0.38043108428E+02 -0.10593898868E+03  0.12353518017E+03  0.00000000000E+00 0. -1.
         11    1    4    4    0    0  0.15857655752E+00 -0.29935045948E+02 -0.16147789146E+03  0.16422923477E+03  0.00000000000E+00 0.  1.
</event>
<event>
 8    1  0.6443238E-009  0.8256560E+02  0.7561462E-02  0.1321924E+00
         -2   -1    0    0    0  501 -0.00000000000E+00  0.00000000000E+00  0.46421508385E+02  0.46421508385E+02  0.00000000000E+00 0. -1.
          2   -1    0    0  501    0  0.00000000000E+00 -0.00000000000E+00 -0.38237155518E+03  0.38237155518E+03  0.00000000000E+00 0.  1.
         25    2    1    2    0    0  0.40299982202E+02  0.15627083371E+02 -0.28863481655E+03  0.31753127021E+03  0.12509099062E+03 0.  0.
         23    2    1    2    0    0 -0.40299982202E+02 -0.15627083371E+02 -0.47315230245E+02  0.11126179336E+03  0.90951423011E+02 0.  0.
          5    1    3    3  502    0 -0.40046964011E+02  0.48522602112E+01 -0.44277198858E+02  0.60043704869E+02  0.41800000000E+01 0. -1.
         -5    1    3    3    0  502  0.80346946213E+02  0.10774823160E+02 -0.24435761769E+03  0.25748756534E+03  0.41800000000E+01 0. -1.
        -11    1    4    4    0    0 -0.93515779805E+01 -0.54441921188E+01  0.27558396241E+02  0.29606695897E+02  0.00000000000E+00 0. -1.
         11    1    4    4    0    0 -0.30948404222E+02 -0.10182891252E+02 -0.74873626486E+02  0.81655097460E+02  0.00000000000E+00 0.  1.
</event>
<event>
 8    1  0.6443238E-009  0.2546824E+03  0.7561462E-02  0.1110381E+00
         -2   -1    0    0    0  501 -0.00000000000E+00  0.00000000000E+00  0.62763372845E+02  0.62763372845E+02  0.00000000000E+00 0.  1.
          2   -1    0    0  501    0  0.00000000000E+00 -0.00000000000E+00 -0.14408280334E+04  0.14408280334E+04  0.00000000000E+00 0. -1.
         25    2    1    2    0    0 -0.20886935792E+03  0.10136226618E+03 -0.31148138908E+03  0.40812827739E+03  0.12508923768E+03 0.  0.
         23    2    1    2    0    0  0.20886935792E+03 -0.10136226618E+03 -0.10665832715E+04  0.10954631289E+04  0.92406027923E+02 0.  0.
          5    1    3    3  502    0 -0.20580512350E+03  0.55025323828E+02 -0.22501338897E+03  0.30989035599E+03  0.41800000000E+01 0.  1.
         -5    1    3    3    0  502 -0.30642344239E+01  0.46336942350E+02 -0.86468000105E+02  0.98237921400E+02  0.41800000000E+01 0.  1.
        -11    1    4    4    0    0 -0.25359929894E+01 -0.24635185825E+02 -0.92920656918E+02  0.96164297549E+02  0.00000000000E+00 0. -1.
         11    1    4    4    0    0  0.21140535091E+03 -0.76727080353E+02 -0.97366261456E+03  0.99929883131E+03  0.00000000000E+00 0.  1.
</event>
<event>
 8    1  0.6443238E-009  0.1081719E+03  0.7561462E-02  0.1263993E+00
          3   -1    0    0  501    0  0.00000000000E+00  0.00000000000E+00  0.15928747905E+03  0.15928747905E+03  0.00000000000E+00 0.  1.
         -3   -1    0    0    0  501 -0.00000000000E+00 -0.00000000000E+00 -0.90503520575E+02  0.90503520575E+02  0.00000000000E+00 0. -1.
         25    2    1    2    0    0  0.41528013783E+01  0.28123007467E+02  0.84658971204E+02  0.15369441339E+03  0.12508669791E+03 0.  0.
         23    2    1    2    0    0 -0.41528013783E+01 -0.28123007467E+02 -0.15875012732E+02  0.96096586234E+02  0.90412325201E+02 0.  0.
          5    1    3    3  502    0 -0.58349820565E+02  0.75626840125E+01  0.22650036338E+02  0.63185380394E+02  0.41800000000E+01 0.  1.
         -5    1    3    3    0  502  0.62502621944E+02  0.20560323455E+02  0.62008934867E+02  0.90509032995E+02  0.41800000000E+01 0.  1.
        -11    1    4    4    0    0 -0.37526117267E+02  0.11851607435E+02  0.56349608142E+01  0.39754532563E+02  0.00000000000E+00 0.  1.
         11    1    4    4    0    0  0.33373315888E+02 -0.39974614902E+02 -0.21509973546E+02  0.56342053671E+02  0.00000000000E+00 0. -1.
</event>
<event>
 8    1  0.6443238E-009  0.1085470E+03  0.7561462E-02  0.1263284E+00
         -1   -1    0    0    0  501 -0.00000000000E+00  0.00000000000E+00  0.13879134304E+03  0.13879134304E+03  0.00000000000E+00 0.  1.
          1   -1    0    0  501    0  0.00000000000E+00 -0.00000000000E+00 -0.33770269289E+03  0.33770269289E+03  0.00000000000E+00 0. -1.
         25    2    1    2    0    0  0.33405930104E+02 -0.23579612197E+02 -0.30347642518E+03  0.33078525666E+03  0.12509592761E+03 0.  0.
         23    2    1    2    0    0 -0.33405930104E+02  0.23579612197E+02  0.10456507534E+03  0.14570877927E+03  0.92872165367E+02 0.  0.
          5    1    3    3  502    0  0.49859305117E+02 -0.59453508806E+02 -0.11925520727E+03  0.14233744018E+03  0.41800000000E+01 0.  1.
         -5    1    3    3    0  502 -0.16453375014E+02  0.35873896609E+02 -0.18422121791E+03  0.18844781648E+03  0.41800000000E+01 0.  1.
        -11    1    4    4    0    0 -0.60475670302E+02  0.35497037233E+02  0.85242590372E+02  0.11037955229E+03  0.00000000000E+00 0. -1.
         11    1    4    4    0    0  0.27069740199E+02 -0.11917425036E+02  0.19322484963E+02  0.35329226981E+02  0.00000000000E+00 0.  1.
</event>
<event>
 8    1  0.6443238E-009  0.1370989E+03  0.7561462E-02  0.1217287E+00
         -1   -1    0    0    0  501 -0.00000000000E+00  0.00000000000E+00  0.15397460899E+03  0.15397460899E+03  0.00000000000E+00 0.  1.
          1   -1    0    0  501    0  0.00000000000E+00 -0.00000000000E+00 -0.13611641773E+03  0.13611641773E+03  0.00000000000E+00 0. -1.
         25    2    1    2    0    0 -0.54390541919E+02 -0.78407603311E+02  0.19792830269E+02  0.15857206459E+03  0.12508900924E+03 0.  0.
         23    2    1    2    0    0  0.54390541919E+02  0.78407603311E+02 -0.19346390066E+01  0.13151896213E+03  0.90484315014E+02 0.  0.
          5    1    3    3  502    0  0.24376321491E+02 -0.73463176029E+02  0.17710498191E+02  0.79512121264E+02  0.41800000000E+01 0.  1.
         -5    1    3    3    0  502 -0.78766863409E+02 -0.49444272818E+01  0.20823320782E+01  0.79059943330E+02  0.41800000000E+01 0.  1.
        -11    1    4    4    0    0  0.20585471562E+02  0.81163499770E+02  0.25894604414E+02  0.87645911896E+02  0.00000000000E+00 0.  1.
         11    1    4    4    0    0  0.33805070357E+02 -0.27558964593E+01 -0.27829243421E+02  0.43873050230E+02  0.00000000000E+00 0. -1.
</event>
<event>
 8    1  0.6443238E-009  0.1409862E+03  0.7561462E-02  0.1212008E+00
         -1   -1    0    0    0  501 -0.00000000000E+00  0.00000000000E+00  0.37658128315E+02  0.37658128315E+02  0.00000000000E+00 0.  1.
          1   -1    0    0  501    0  0.00000000000E+00 -0.00000000000E+00 -0.71228750062E+03  0.71228750062E+03  0.00000000000E+00 0. -1.
         25    2    1    2    0    0 -0.51193210560E+02 -0.92830096726E+02 -0.49854214374E+03  0.52481560766E+03  0.12509588841E+03 0.  0.
         23    2    1    2    0    0  0.51193210560E+02  0.92830096726E+02 -0.17608722857E+03  0.22513002128E+03  0.91862085481E+02 0.  0.
          5    1    3    3  502    0 -0.65397529671E+02 -0.21047401645E+02 -0.11255669735E+03  0.13193298497E+03  0.41800000000E+01 0. -1.
         -5    1    3    3    0  502  0.14204319110E+02 -0.71782695081E+02 -0.38598544639E+03  0.39288262270E+03  0.41800000000E+01 0. -1.
        -11    1    4    4    0    0  0.62571582934E+02  0.19350785561E+02 -0.91222871416E+02  0.11229990277E+03  0.00000000000E+00 0.  1.
         11    1    4    4    0    0 -0.11378372374E+02  0.73479311164E+02 -0.84864357152E+02  0.11283011851E+03  0.00000000000E+00 0. -1.
</event>
<event>
 8    1  0.6443238E-009  0.1082232E+03  0.7561462E-02  0.1263896E+00
         -2   -1    0    0    0  501 -0.00000000000E+00  0.00000000000E+00  0.22943355280E+02  0.22943355280E+02  0.00000000000E+00 0.  1.
          2   -1    0    0  501    0  0.00000000000E+00 -0.00000000000E+00 -0.55374316915E+03  0.55374316915E+03  0.00000000000E+00 0. -1.
         25    2    1    2    0    0 -0.31687358358E+02  0.97720363602E+00 -0.27986739586E+03  0.30818646978E+03  0.12509235502E+03 0.  0.
         23    2    1    2    0    0  0.31687358358E+02 -0.97720363602E+00 -0.25093241801E+03  0.26850005465E+03  0.90111915587E+02 0.  0.
          5    1    3    3  502    0  0.25131313823E+02 -0.43868923452E+02 -0.16245210883E+03  0.17018879352E+03  0.41800000000E+01 0.  1.
         -5    1    3    3    0  502 -0.56818672182E+02  0.44846127088E+02 -0.11741528703E+03  0.13799767626E+03  0.41800000000E+01 0.  1.
        -11    1    4    4    0    0  0.34999973665E+02 -0.40512363638E+02 -0.11416950395E+03  0.12609887151E+03  0.00000000000E+00 0. -1.
         11    1    4    4    0    0 -0.33126153064E+01  0.39535160002E+02 -0.13676291407E+03  0.14240118314E+03  0.00000000000E+00 0.  1.
</event>
<event>
 8    1  0.6443238E-009  0.1073648E+03  0.7561462E-02  0.1265529E+00
         -2   -1    0    0    0  501 -0.00000000000E+00  0.00000000000E+00  0.20817775846E+02  0.20817775846E+02  0.00000000000E+00 0.  1.
          2   -1    0    0  501    0  0.00000000000E+00 -0.00000000000E+00 -0.62015802850E+03  0.62015802850E+03  0.00000000000E+00 0. -1.
         25    2    1    2    0    0 -0.63830812080E+00 -0.37311726858E+02 -0.32941755781E+03  0.35433892587E+03  0.12509026578E+03 0.  0.
         23    2    1    2    0    0  0.63830812080E+00  0.37311726858E+02 -0.26992269484E+03  0.28663687847E+03  0.88937430331E+02 0.  0.
          5    1    3    3  502    0 -0.29769150716E+01  0.45423968338E+02 -0.89268347995E+02  0.10029211971E+03  0.41800000000E+01 0.  1.
         -5    1    3    3    0  502  0.23386069508E+01 -0.82735695197E+02 -0.24014920982E+03  0.25404680616E+03  0.41800000000E+01 0.  1.
        -11    1    4    4    0    0  0.38021666025E+02  0.29069884020E+02 -0.82791072853E+02  0.95629843608E+02  0.00000000000E+00 0.  1.
         11    1    4    4    0    0 -0.37383357904E+02  0.82418428381E+01 -0.18713162198E+03  0.19100703486E+03  0.00000000000E+00 0. -1.
</event>
<event>
 8    1  0.6443238E-009  0.8830358E+02  0.7561462E-02  0.1307013E+00
         -2   -1    0    0    0  501 -0.00000000000E+00  0.00000000000E+00  0.20733046296E+02  0.20733046296E+02  0.00000000000E+00 0.  1.
          2   -1    0    0  501    0  0.00000000000E+00 -0.00000000000E+00 -0.11698533988E+04  0.11698533988E+04  0.00000000000E+00 0. -1.
         25    2    1    2    0    0  0.93976900163E+01 -0.27837111434E+02 -0.10293338125E+04  0.10373242635E+04  0.12510119390E+03 0.  0.
         23    2    1    2    0    0 -0.93976900163E+01  0.27837111434E+02 -0.11978654002E+03  0.15326218162E+03  0.90979447106E+02 0.  0.
          5    1    3    3  502    0 -0.47849673274E+02 -0.45190917047E+02 -0.43464928734E+03  0.43962402755E+03  0.41800000000E+01 0.  1.
         -5    1    3    3    0  502  0.57247363290E+02  0.17353805613E+02 -0.59468452518E+03  0.59770023596E+03  0.41800000000E+01 0.  1.
        -11    1    4    4    0    0  0.80217909683E+01  0.31826518104E+02 -0.12903249744E+03  0.13314151036E+03  0.00000000000E+00 0. -1.
         11    1    4    4    0    0 -0.17419480985E+02 -0.39894066702E+01  0.92459574241E+01  0.20120671262E+02  0.00000000000E+00 0.  1.
</event>
<event>
 8    1  0.6443238E-009  0.1127512E+03  0.7561462E-02  0.1255558E+00
          2   -1    0    0  501    0  0.00000000000E+00  0.00000000000E+00  0.50349715268E+03  0.50349715268E+03  0.00000000000E+00 0. -1.
         -2   -1    0    0    0  501 -0.00000000000E+00 -0.00000000000E+00 -0.30493372763E+02  0.30493372763E+02  0.00000000000E+00 0.  1.
         25    2    1    2    0    0  0.23537969766E+02 -0.44287106028E+02  0.30707901072E+03  0.33535118396E+03  0.12509002350E+03 0.  0.
         23    2    1    2    0    0 -0.23537969766E+02  0.44287106028E+02  0.16592476920E+03  0.19863934149E+03  0.97011211570E+02 0.  0.
          5    1    3    3  502    0  0.47230456668E+02 -0.70034430694E+02  0.13206790009E+03  0.15682774039E+03  0.41800000000E+01 0.  1.
         -5    1    3    3    0  502 -0.23692486902E+02  0.25747324666E+02  0.17501111062E+03  0.17852344357E+03  0.41800000000E+01 0.  1.
        -11    1    4    4    0    0  0.16225999295E+02 -0.22631653341E+02  0.23969590382E+02  0.36742564542E+02  0.00000000000E+00 0.  1.
         11    1    4    4    0    0 -0.39763969061E+02  0.66918759370E+02  0.14195517882E+03  0.16189677694E+03  0.00000000000E+00 0. -1.
</event>
<event>
 8    1  0.6443238E-009  0.6781376E+02  0.7561462E-02  0.1367689E+00
          1   -1    0    0  501    0  0.00000000000E+00  0.00000000000E+00  0.88242660589E+02  0.88242660589E+02  0.00000000000E+00 0. -1.
         -1   -1    0    0    0  501 -0.00000000000E+00 -0.00000000000E+00 -0.14251416016E+03  0.14251416016E+03  0.00000000000E+00 0.  1.
         25    2    1    2    0    0  0.13933472540E+02  0.86640117351E+01 -0.13690147227E+02  0.12690276540E+03  0.12509070700E+03 0.  0.
         23    2    1    2    0    0 -0.13933472540E+02 -0.86640117351E+01 -0.40581352346E+02  0.10385405535E+03  0.94178616989E+02 0.  0.
          5    1    3    3  502    0 -0.21955892596E+02  0.36681700218E+02  0.38383297890E+02  0.57605193408E+02  0.41800000000E+01 0. -1.
         -5    1    3    3    0  502  0.35889365136E+02 -0.28017688483E+02 -0.52073445118E+02  0.69297571994E+02  0.41800000000E+01 0. -1.
        -11    1    4    4    0    0  0.12007456868E+02  0.94764789623E+01  0.25980227163E+02  0.30148878543E+02  0.00000000000E+00 0. -1.
         11    1    4    4    0    0 -0.25940929408E+02 -0.18140490697E+02 -0.66561579509E+02  0.73705176806E+02  0.00000000000E+00 0.  1.
</event>
<event>
 8    1  0.6443238E-009  0.1350298E+03  0.7561462E-02  0.1220178E+00
          1   -1    0    0  501    0  0.00000000000E+00  0.00000000000E+00  0.67501093114E+03  0.67501093114E+03  0.00000000000E+00 0. -1.
         -1   -1    0    0    0  501 -0.00000000000E+00 -0.00000000000E+00 -0.39979722598E+02  0.39979722598E+02  0.00000000000E+00 0.  1.
         25    2    1    2    0    0  0.36906509649E+02  0.10234871765E+03  0.46483909163E+03  0.49351866926E+03  0.12509174770E+03 0.  0.
         23    2    1    2    0    0 -0.36906509649E+02 -0.10234871765E+03  0.17019211692E+03  0.22147198448E+03  0.90813725782E+02 0.  0.
          5    1    3    3  502    0 -0.18473089595E+02  0.10398332929E+03  0.24616424235E+03  0.26789567824E+03  0.41800000000E+01 0.  1.
         -5    1    3    3    0  502  0.55379599244E+02 -0.16346116428E+01  0.21867484928E+03  0.22562299102E+03  0.41800000000E+01 0.  1.
        -11    1    4    4    0    0 -0.32810834700E+02 -0.91885763114E+02  0.18116451282E+03  0.20576716220E+03  0.00000000000E+00 0. -1.
         11    1    4    4    0    0 -0.40956749486E+01 -0.10462954538E+02 -0.10972395902E+02  0.15704822278E+02  0.00000000000E+00 0.  1.
</event>
<event>
 8    1  0.6443238E-009  0.2275062E+03  0.7561462E-02  0.1128407E+00
          1   -1    0    0  501    0  0.00000000000E+00  0.00000000000E+00  0.14968698100E+04  0.14968698100E+04  0.00000000000E+00 0. -1.
         -1   -1    0    0    0  501 -0.00000000000E+00 -0.00000000000E+00 -0.36175625124E+02  0.36175625124E+02  0.00000000000E+00 0.  1.
         25    2    1    2    0    0 -0.15854964738E+03  0.12820906643E+03  0.83683184435E+03  0.87034958356E+03  0.12508119961E+03 0.  0.
         23    2    1    2    0    0  0.15854964738E+03 -0.12820906643E+03  0.62386234050E+03  0.66269585153E+03  0.91575195051E+02 0.  0.
          5    1    3    3  502    0 -0.14810741883E+02 -0.20178737368E+02  0.41768821733E+02  0.48873780147E+02  0.41800000000E+01 0. -1.
         -5    1    3    3    0  502 -0.14373890549E+03  0.14838780379E+03  0.79506302262E+03  0.82147580342E+03  0.41800000000E+01 0. -1.
        -11    1    4    4    0    0  0.33736080095E+02  0.11516358711E+02  0.11728414218E+03  0.12258188946E+03  0.00000000000E+00 0. -1.
         11    1    4    4    0    0  0.12481356728E+03 -0.13972542514E+03  0.50657819832E+03  0.54011396207E+03  0.00000000000E+00 0.  1.
</event>
<event>
 7    1  0.6443238E-009  0.2111584E+03  0.7561462E-02  0.1140652E+00
          2   -1    0    0  501    0  0.00000000000E+00  0.00000000000E+00  0.16896054868E+04  0.16896054868E+04  0.00000000000E+00 0. -1.
         -2   -1    0    0    0  501 -0.00000000000E+00 -0.00000000000E+00 -0.30680978940E+02  0.30680978940E+02  0.00000000000E+00 0.  1.
         23    2    1    2    0    0  0.76468694635E+02 -0.18122668945E+03  0.70524216678E+03  0.73793446159E+03  0.92142181240E+02 0.  0.
          5    1    1    2  502    0  0.13794114227E+02  0.23941816413E+02  0.29889476564E+02  0.40918716619E+02  0.41800000000E+01 0.  1.
         -5    1    1    2    0  502 -0.90262808862E+02  0.15728487303E+03  0.92379286452E+03  0.94143328754E+03  0.41800000000E+01 0.  1.
        -11    1    3    3    0    0 -0.16448733736E+02 -0.46447733866E+02  0.23208836708E+03  0.23726138109E+03  0.00000000000E+00 0. -1.
         11    1    3    3    0    0  0.92917428371E+02 -0.13477895558E+03  0.47315379971E+03  0.50067308050E+03  0.00000000000E+00 0.  1.
</event>
<event>
 8    1  0.6443238E-009  0.1115521E+03  0.7561462E-02  0.1257722E+00
         -4   -1    0    0    0  501 -0.00000000000E+00  0.00000000000E+00  0.96253614812E+02  0.96253614812E+02  0.00000000000E+00 0.  1.
          4   -1    0    0  501    0  0.00000000000E+00 -0.00000000000E+00 -0.16769383296E+03  0.16769383296E+03  0.00000000000E+00 0. -1.
         25    2    1    2    0    0  0.23247096943E+02  0.57050280072E+02 -0.12937085130E+02  0.14003303675E+03  0.12508685477E+03 0.  0.
         23    2    1    2    0    0 -0.23247096943E+02 -0.57050280072E+02 -0.58503133018E+02  0.12391441102E+03  0.90205336391E+02 0.  0.
          5    1    3    3  502    0 -0.13533441810E+02  0.76103834137E+02  0.27348709577E+02  0.82099768168E+02  0.41800000000E+01 0. -1.
         -5    1    3    3    0  502  0.36780538753E+02 -0.19053554066E+02 -0.40285794707E+02  0.57933268583E+02  0.41800000000E+01 0. -1.
        -11    1    4    4    0    0 -0.15109262360E+02 -0.79113867420E+02 -0.59870454907E+02  0.10035818451E+03  0.00000000000E+00 0. -1.
         11    1    4    4    0    0 -0.81378345829E+01  0.22063587348E+02  0.13673218883E+01  0.23556226513E+02  0.00000000000E+00 0.  1.
</event>
<event>
 8    1  0.6443238E-009  0.8983694E+02  0.7561462E-02  0.1303247E+00
          2   -1    0    0  501    0  0.00000000000E+00  0.00000000000E+00  0.13979703968E+04  0.13979703968E+04  0.00000000000E+00 0.  1.
         -2   -1    0    0    0  501 -0.00000000000E+00 -0.00000000000E+00 -0.11474587974E+02  0.11474587974E+02  0.00000000000E+00 0. -1.
         25    2    1    2    0    0 -0.24046522126E+02  0.21521907655E+02  0.12623168610E+04  0.12689098568E+04  0.12508772719E+03 0.  0.
         23    2    1    2    0    0  0.24046522126E+02 -0.21521907655E+02  0.12417894781E+03  0.14053512791E+03  0.57343555549E+02 0.  0.
          5    1    3    3  502    0 -0.62330034416E+02 -0.16978433580E+02  0.92139362499E+03  0.92366497442E+03  0.41800000000E+01 0. -1.
         -5    1    3    3    0  502  0.38283512291E+02  0.38500341235E+02  0.34092323602E+03  0.34524488243E+03  0.41800000000E+01 0. -1.
        -11    1    4    4    0    0 -0.99732579861E+01 -0.24381753232E+02  0.27847441064E+02  0.38332958917E+02  0.00000000000E+00 0. -1.
         11    1    4    4    0    0  0.34019780112E+02  0.28598455779E+01  0.96331506743E+02  0.10220216899E+03  0.00000000000E+00 0.  1.
</event>
<event>
 8    1  0.6443238E-009  0.7506626E+02  0.7561462E-02  0.1343666E+00
         -2   -1    0    0    0  501 -0.00000000000E+00  0.00000000000E+00  0.37575367294E+02  0.37575367294E+02  0.00000000000E+00 0.  1.
          2   -1    0    0  501    0  0.00000000000E+00 -0.00000000000E+00 -0.39066263984E+03  0.39066263984E+03  0.00000000000E+00 0. -1.
         25    2    1    2    0    0  0.27285289486E+02 -0.24089065182E+02 -0.27036562890E+03  0.30011591624E+03  0.12508884765E+03 0.  0.
         23    2    1    2    0    0 -0.27285289486E+02  0.24089065182E+02 -0.82721643650E+02  0.12812209090E+03  0.90816461967E+02 0.  0.
          5    1    3    3  502    0  0.28636411078E+02 -0.50979522540E+02 -0.47113126576E+02  0.75206880361E+02  0.41800000000E+01 0. -1.
         -5    1    3    3    0  502 -0.13511215926E+01  0.26890457357E+02 -0.22325250232E+03  0.22490903588E+03  0.41800000000E+01 0. -1.
        -11    1    4    4    0    0  0.83545192729E+01  0.27233629537E+02 -0.87505485552E+02  0.92025423507E+02  0.00000000000E+00 0. -1.
         11    1    4    4    0    0 -0.35639808759E+02 -0.31445643548E+01  0.47838419023E+01  0.36096667390E+02  0.00000000000E+00 0.  1.
</event>
<event>
 8    1  0.6443238E-009  0.9993215E+02  0.7561462E-02  0.1280439E+00
          1   -1    0    0  501    0  0.00000000000E+00  0.00000000000E+00  0.35560207281E+03  0.35560207281E+03  0.00000000000E+00 0. -1.
         -1   -1    0    0    0  501 -0.00000000000E+00 -0.00000000000E+00 -0.36615960040E+02  0.36615960040E+02  0.00000000000E+00 0.  1.
         25    2    1    2    0    0 -0.39628984443E+01 -0.54934524773E+02  0.15208206211E+03  0.20447522220E+03  0.12509059238E+03 0.  0.
         23    2    1    2    0    0  0.39628984443E+01  0.54934524773E+02  0.16690405066E+03  0.18774281065E+03  0.66006774254E+02 0.  0.
          5    1    3    3  502    0  0.50306651517E+02 -0.70293064952E+01  0.21922929715E+02  0.55482047402E+02  0.41800000000E+01 0. -1.
         -5    1    3    3    0  502 -0.54269549961E+02 -0.47905218277E+02  0.13015913239E+03  0.14899317480E+03  0.41800000000E+01 0. -1.
        -11    1    4    4    0    0  0.28513103094E+02  0.30434373786E+02  0.46588948624E+02  0.62528219947E+02  0.00000000000E+00 0.  1.
         11    1    4    4    0    0 -0.24550204649E+02  0.24500150987E+02  0.12031510204E+03  0.12521459070E+03  0.00000000000E+00 0. -1.
</event>
<event>
 8    1  0.6443238E-009  0.1649658E+03  0.7561462E-02  0.1183202E+00
          1   -1    0    0  501    0  0.00000000000E+00  0.00000000000E+00  0.10980486182E+03  0.10980486182E+03  0.00000000000E+00 0. -1.
         -1   -1    0    0    0  501 -0.00000000000E+00 -0.00000000000E+00 -0.48146747659E+03  0.48146747659E+03  0.00000000000E+00 0.  1.
         25    2    1    2    0    0  0.92365566548E+02 -0.87853622215E+02  0.97652895547E+01  0.17886509431E+03  0.12509078408E+03 0.  0.
         23    2    1    2    0    0 -0.92365566548E+02  0.87853622215E+02 -0.38142790432E+03  0.41240724411E+03  0.91339104306E+02 0.  0.
          5    1    3    3  502    0  0.11312810839E+03 -0.37022251765E+02 -0.11880630486E+02  0.11969644027E+03  0.41800000000E+01 0. -1.
         -5    1    3    3    0  502 -0.20762541841E+02 -0.50831370450E+02  0.21645920041E+02  0.59168654032E+02  0.41800000000E+01 0. -1.
        -11    1    4    4    0    0  0.14888342090E+02 -0.30108334979E+01 -0.24885145044E+02  0.29154730189E+02  0.00000000000E+00 0.  1.
         11    1    4    4    0    0 -0.10725390864E+03  0.90864455713E+02 -0.35654275928E+03  0.38325251392E+03  0.00000000000E+00 0. -1.
</event>
<event>
 8    1  0.6443238E-009  0.1349152E+03  0.7561462E-02  0.1220339E+00
         -2   -1    0    0    0  501 -0.00000000000E+00  0.00000000000E+00  0.52811442754E+02  0.52811442754E+02  0.00000000000E+00 0.  1.
          2   -1    0    0  501    0  0.00000000000E+00 -0.00000000000E+00 -0.41247444538E+03  0.41247444538E+03  0.00000000000E+00 0. -1.
         25    2    1    2    0    0  0.58784687616E+02  0.78736461878E+02 -0.16250970754E+03  0.22740148347E+03  0.12508780800E+03 0.  0.
         23    2    1    2    0    0 -0.58784687616E+02 -0.78736461878E+02 -0.19715329508E+03  0.23788440466E+03  0.89802551706E+02 0.  0.
          5    1    3    3  502    0  0.92257119868E+02  0.46309145067E+02 -0.14367253350E+03  0.17696096283E+03  0.41800000000E+01 0. -1.
         -5    1    3    3    0  502 -0.33472432252E+02  0.32427316812E+02 -0.18837174044E+02  0.50440520640E+02  0.41800000000E+01 0. -1.
        -11    1    4    4    0    0 -0.17487151532E+02 -0.76386901088E+02 -0.73282630245E+02  0.10728980857E+03  0.00000000000E+00 0. -1.
         11    1    4    4    0    0 -0.41297536084E+02 -0.23495607903E+01 -0.12387066484E+03  0.13059459610E+03  0.00000000000E+00 0.  1.
</event>
<event>
 8    1  0.6443238E-009  0.9367270E+02  0.7561462E-02  0.1294194E+00
         -1   -1    0    0    0  501 -0.00000000000E+00  0.00000000000E+00  0.76166573274E+02  0.76166573274E+02  0.00000000000E+00 0.  1.
          1   -1    0    0  501    0  0.00000000000E+00 -0.00000000000E+00 -0.30065528827E+03  0.30065528827E+03  0.00000000000E+00 0. -1.
         25    2    1    2    0    0  0.18648558307E+02 -0.46187389528E+02 -0.23618662662E+03  0.27186876507E+03  0.12508980434E+03 0.  0.
         23    2    1    2    0    0 -0.18648558307E+02  0.46187389528E+02  0.11697911622E+02  0.10495309647E+03  0.91636606468E+02 0.  0.
          5    1    3    3  502    0 -0.11677736744E+02 -0.73768729167E+02 -0.21029693156E+03  0.22320498821E+03  0.41800000000E+01 0.  1.
         -5    1    3    3    0  502  0.30326295051E+02  0.27581339639E+02 -0.25889695054E+02  0.48663776855E+02  0.41800000000E+01 0.  1.
        -11    1    4    4    0    0  0.16474296699E+02  0.26128754251E+02  0.43604220435E+02  0.53436338667E+02  0.00000000000E+00 0.  1.
         11    1    4    4    0    0 -0.35122855006E+02  0.20058635277E+02 -0.31906308813E+02  0.51516757807E+02  0.00000000000E+00 0. -1.
</event>
<event>
 8    1  0.6443238E-009  0.1676280E+03  0.7561462E-02  0.1180344E+00
         -2   -1    0    0    0  501 -0.00000000000E+00  0.00000000000E+00  0.56304266402E+02  0.56304266402E+02  0.00000000000E+00 0. -1.
          2   -1    0    0  501    0  0.00000000000E+00 -0.00000000000E+00 -0.62333039510E+03  0.62333039510E+03  0.00000000000E+00 0.  1.
         25    2    1    2    0    0  0.81063536180E+02 -0.12888071878E+03 -0.31203397113E+03  0.36904595825E+03  0.12509269998E+03 0.  0.
         23    2    1    2    0    0 -0.81063536180E+02  0.12888071878E+03 -0.25499215757E+03  0.31058870326E+03  0.90899975773E+02 0.  0.
          5    1    3    3  502    0  0.64053920722E+02 -0.13164067695E+03 -0.16368724494E+03  0.21964325427E+03  0.41800000000E+01 0. -1.
         -5    1    3    3    0  502  0.17009615458E+02  0.27599581680E+01 -0.14834672618E+03  0.14940270398E+03  0.41800000000E+01 0. -1.
        -11    1    4    4    0    0 -0.96773968987E+02  0.11141056721E+03 -0.18434343701E+03  0.23613559310E+03  0.00000000000E+00 0. -1.
         11    1    4    4    0    0  0.15710432806E+02  0.17470151568E+02 -0.70648720565E+02  0.74453110158E+02  0.00000000000E+00 0.  1.
</event>
<event>
 8    1  0.6443238E-009  0.1022538E+03  0.7561462E-02  0.1275627E+00
         -1   -1    0    0    0  501 -0.00000000000E+00  0.00000000000E+00  0.17345732876E+02  0.17345732876E+02  0.00000000000E+00 0.  1.
          1   -1    0    0  501    0  0.00000000000E+00 -0.00000000000E+00 -0.93314631312E+03  0.93314631312E+03  0.00000000000E+00 0. -1.
         25    2    1    2    0    0 -0.44764748033E+02 -0.48877459131E+02 -0.49516111855E+03  0.51499940352E+03  0.12508782365E+03 0.  0.
         23    2    1    2    0    0  0.44764748033E+02  0.48877459131E+02 -0.42063946170E+03  0.43549264248E+03  0.91232648971E+02 0.  0.
          5    1    3    3  502    0  0.15928827758E+02 -0.12662565500E+01 -0.29689985198E+01  0.16781487169E+02  0.41800000000E+01 0.  1.
         -5    1    3    3    0  502 -0.60693575791E+02 -0.47611202581E+02 -0.49219212003E+03  0.49821791635E+03  0.41800000000E+01 0.  1.
        -11    1    4    4    0    0 -0.33410383243E+01  0.61029634325E+02 -0.19048893842E+03  0.20005452873E+03  0.00000000000E+00 0.  1.
         11    1    4    4    0    0  0.48105786358E+02 -0.12152175195E+02 -0.23015052328E+03  0.23543811375E+03  0.00000000000E+00 0. -1.
</event>
<event>
 8    1  0.6443238E-009  0.2631863E+03  0.7561462E-02  0.1105244E+00
          1   -1    0    0  501    0  0.00000000000E+00  0.00000000000E+00  0.11444083875E+04  0.11444083875E+04  0.00000000000E+00 0. -1.
         -1   -1    0    0    0  501 -0.00000000000E+00 -0.00000000000E+00 -0.12066658753E+03  0.12066658753E+03  0.00000000000E+00 0.  1.
         25    2    1    2    0    0 -0.22651661287E+03 -0.11465441185E+03  0.95792189546E+02  0.29879650985E+03  0.12509116938E+03 0.  0.
         23    2    1    2    0    0  0.22651661287E+03  0.11465441185E+03  0.92794961040E+03  0.96627846515E+03  0.90267284780E+02 0.  0.
          5    1    3    3  502    0 -0.13166289119E+03 -0.87763715984E+02  0.11826494603E+03  0.19758961668E+03  0.41800000000E+01 0.  1.
         -5    1    3    3    0  502 -0.94853721684E+02 -0.26890695865E+02 -0.22472756487E+02  0.10120689317E+03  0.41800000000E+01 0.  1.
        -11    1    4    4    0    0  0.17070386473E+03  0.12635251054E+03  0.72412624459E+03  0.75462811004E+03  0.00000000000E+00 0.  1.
         11    1    4    4    0    0  0.55812748148E+02 -0.11698098690E+02  0.20382336581E+03  0.21165035511E+03  0.00000000000E+00 0. -1.
</event>
<event>
 8    1  0.6443238E-009  0.8814592E+02  0.7561462E-02  0.1307405E+00
         -1   -1    0    0    0  501 -0.00000000000E+00  0.00000000000E+00  0.64408076135E+03  0.64408076135E+03  0.00000000000E+00 0.  1.
          1   -1    0    0  501    0  0.00000000000E+00 -0.00000000000E+00 -0.25336875569E+02  0.25336875569E+02  0.00000000000E+00 0. -1.
         25    2    1    2    0    0  0.59085849265E+02  0.33053159045E+02  0.50834514564E+03  0.52786952644E+03  0.12509117050E+03 0.  0.
         23    2    1    2    0    0 -0.59085849265E+02 -0.33053159045E+02  0.11039874014E+03  0.14154811048E+03  0.57134375383E+02 0.  0.
          5    1    3    3  502    0  0.60325433416E+00  0.28990505477E+02  0.18801786151E+02  0.34810815648E+02  0.41800000000E+01 0. -1.
         -5    1    3    3    0  502  0.58482594931E+02  0.40626535687E+01  0.48954335949E+03  0.49305871079E+03  0.41800000000E+01 0. -1.
        -11    1    4    4    0    0 -0.62452195108E+02 -0.44244291915E+02  0.99817964541E+02  0.12578338557E+03  0.00000000000E+00 0.  1.
         11    1    4    4    0    0  0.33663458425E+01  0.11191132870E+02  0.10580775601E+02  0.15764724912E+02  0.00000000000E+00 0. -1.
</event>
<event>
 8    1  0.6443238E-009  0.1092223E+03  0.7561462E-02  0.1262017E+00
          2   -1    0    0  501    0  0.00000000000E+00  0.00000000000E+00  0.97667383098E+03  0.97667383098E+03  0.00000000000E+00 0. -1.
         -2   -1    0    0    0  501 -0.00000000000E+00 -0.00000000000E+00 -0.14370591617E+02  0.14370591617E+02  0.00000000000E+00 0.  1.
         25    2    1    2    0    0 -0.35204477018E+02 -0.34720913304E+02  0.61392051030E+03  0.62848588559E+03  0.12510482961E+03 0.  0.
         23    2    1    2    0    0  0.35204477018E+02  0.34720913304E+02  0.34838272906E+03  0.36255853701E+03  0.87368586042E+02 0.  0.
          5    1    3    3  502    0  0.12369009657E+02 -0.68663691105E+02  0.23883892328E+03  0.24885577861E+03  0.41800000000E+01 0.  1.
         -5    1    3    3    0  502 -0.47573486674E+02  0.33942777800E+02  0.37508158703E+03  0.37963010698E+03  0.41800000000E+01 0.  1.
        -11    1    4    4    0    0 -0.15888001074E+02 -0.12632853188E+02  0.27377318647E+02  0.34081301825E+02  0.00000000000E+00 0.  1.
         11    1    4    4    0    0  0.51092478092E+02  0.47353766492E+02  0.32100541042E+03  0.32847723519E+03  0.00000000000E+00 0. -1.
</event>
<event>
 8    1  0.6443238E-009  0.9853176E+02  0.7561462E-02  0.1283414E+00
          4   -1    0    0  501    0  0.00000000000E+00  0.00000000000E+00  0.29029980649E+03  0.29029980649E+03  0.00000000000E+00 0. -1.
         -4   -1    0    0    0  501 -0.00000000000E+00 -0.00000000000E+00 -0.59858082320E+02  0.59858082320E+02  0.00000000000E+00 0.  1.
         25    2    1    2    0    0 -0.76526872666E+01 -0.71804650360E+02  0.10128923128E+03  0.17641553584E+03  0.12509381070E+03 0.  0.
         23    2    1    2    0    0  0.76526872666E+01  0.71804650360E+02  0.12915249288E+03  0.17374235296E+03  0.91058043908E+02 0.  0.
          5    1    3    3  502    0  0.32712626996E+02 -0.30824919941E+02 -0.14203633632E+02  0.47323432491E+02  0.41800000000E+01 0. -1.
         -5    1    3    3    0  502 -0.40365314263E+02 -0.40979730419E+02  0.11549286492E+03  0.12909210335E+03  0.41800000000E+01 0. -1.
        -11    1    4    4    0    0 -0.19393105880E+02  0.62827129068E+02  0.33221470584E+02  0.73668221170E+02  0.00000000000E+00 0.  1.
         11    1    4    4    0    0  0.27045793147E+02  0.89775212929E+01  0.95931022298E+02  0.10007413180E+03  0.00000000000E+00 0. -1.
</event>
<event>
 8    1  0.6443238E-009  0.3187664E+03  0.7561462E-02  0.1076218E+00
         -3   -1    0    0    0  501 -0.00000000000E+00  0.00000000000E+00  0.14962299432E+03  0.14962299432E+03  0.00000000000E+00 0.  1.
          3   -1    0    0  501    0  0.00000000000E+00 -0.00000000000E+00 -0.73897999218E+03  0.73897999218E+03  0.00000000000E+00 0. -1.
         25    2    1    2    0    0 -0.28842862624E+03  0.96349073519E+02 -0.40438298078E+03  0.52119844995E+03  0.12509201687E+03 0.  0.
         23    2    1    2    0    0  0.28842862624E+03 -0.96349073519E+02 -0.18497401708E+03  0.36740453655E+03  0.91085070580E+02 0.  0.
          5    1    3    3  502    0 -0.94739011460E+02 -0.16277592452E+02 -0.17985592340E+03  0.20397565024E+03  0.41800000000E+01 0. -1.
         -5    1    3    3    0  502 -0.19368961478E+03  0.11262666597E+03 -0.22452705737E+03  0.31722279971E+03  0.41800000000E+01 0. -1.
        -11    1    4    4    0    0  0.58614831164E+02  0.16922416214E+02 -0.41081676274E+02  0.73551143624E+02  0.00000000000E+00 0. -1.
         11    1    4    4    0    0  0.22981379507E+03 -0.11327148973E+03 -0.14389234081E+03  0.29385339293E+03  0.00000000000E+00 0.  1.
</event>
<event>
 8    1  0.6443238E-009  0.1624746E+03  0.7561462E-02  0.1185931E+00
          1   -1    0    0  501    0  0.00000000000E+00  0.00000000000E+00  0.39012939515E+03  0.39012939515E+03  0.00000000000E+00 0. -1.
         -1   -1    0    0    0  501 -0.00000000000E+00 -0.00000000000E+00 -0.94062885371E+02  0.94062885371E+02  0.00000000000E+00 0.  1.
         25    2    1    2    0    0  0.13310269916E+03 -0.39413894156E+02  0.25560111700E+03  0.31662217246E+03  0.12509150852E+03 0.  0.
         23    2    1    2    0    0 -0.13310269916E+03  0.39413894156E+02  0.40465392775E+02  0.16757010806E+03  0.84690669649E+02 0.  0.
          5    1    3    3  502    0  0.12792914181E+03  0.15601014973E+02  0.15367656096E+03  0.20060711548E+03  0.41800000000E+01 0. -1.
         -5    1    3    3    0  502  0.51735573495E+01 -0.55014909128E+02  0.10192455604E+03  0.11601505698E+03  0.41800000000E+01 0. -1.
        -11    1    4    4    0    0 -0.63031964206E+02  0.71142342145E+01 -0.23196045921E+02  0.67540338957E+02  0.00000000000E+00 0.  1.
         11    1    4    4    0    0 -0.70070734955E+02  0.32299659941E+02  0.63661438696E+02  0.10002976910E+03  0.00000000000E+00 0. -1.
</event>
<event>
 8    1  0.6443238E-009  0.1066938E+03  0.7561462E-02  0.1266818E+00
          2   -1    0    0  501    0  0.00000000000E+00  0.00000000000E+00  0.12349858232E+04  0.12349858232E+04  0.00000000000E+00 0. -1.
         -2   -1    0    0    0  501 -0.00000000000E+00 -0.00000000000E+00 -0.14991890761E+02  0.14991890761E+02  0.00000000000E+00 0.  1.
         25    2    1    2    0    0 -0.23577236987E+02  0.34459967462E+02  0.10050767845E+04  0.10136914263E+04  0.12509032483E+03 0.  0.
         23    2    1    2    0    0  0.23577236987E+02 -0.34459967462E+02  0.21491714785E+03  0.23628628766E+03  0.88873245897E+02 0.  0.
          5    1    3    3  502    0 -0.61037428754E+02  0.48291478522E+02  0.41538491018E+03  0.42263427524E+03  0.41800000000E+01 0. -1.
         -5    1    3    3    0  502  0.37460191767E+02 -0.13831511060E+02  0.58969187437E+03  0.59105715101E+03  0.41800000000E+01 0. -1.
        -11    1    4    4    0    0 -0.26005011523E+02 -0.37482348418E+02  0.74683765078E+02  0.87514866356E+02  0.00000000000E+00 0.  1.
         11    1    4    4    0    0  0.49582248509E+02  0.30223809557E+01  0.14023338277E+03  0.14877142130E+03  0.00000000000E+00 0. -1.
</event>
<event>
 8    1  0.6443238E-009  0.8452429E+02  0.7561462E-02  0.1316681E+00
         -2   -1    0    0    0  501 -0.00000000000E+00  0.00000000000E+00  0.40566318013E+02  0.40566318013E+02  0.00000000000E+00 0.  1.
          2   -1    0    0  501    0  0.00000000000E+00 -0.00000000000E+00 -0.40013202141E+03  0.40013202141E+03  0.00000000000E+00 0. -1.
         25    2    1    2    0    0 -0.54755782609E+01 -0.25982229816E+02 -0.93529196949E+02  0.15842380500E+03  0.12508130590E+03 0.  0.
         23    2    1    2    0    0  0.54755782609E+01  0.25982229816E+02 -0.26603650645E+03  0.28227453442E+03  0.90545192016E+02 0.  0.
          5    1    3    3  502    0 -0.27156933002E+02  0.13060475470E+02 -0.10727920592E+03  0.11150953077E+03  0.41800000000E+01 0. -1.
         -5    1    3    3    0  502  0.21681354741E+02 -0.39042705286E+02  0.13750008975E+02  0.46914274227E+02  0.41800000000E+01 0. -1.
        -11    1    4    4    0    0  0.31219345449E+01  0.59795340943E+02 -0.15431194341E+03  0.16552161537E+03  0.00000000000E+00 0.  1.
         11    1    4    4    0    0  0.23536437160E+01 -0.33813111127E+02 -0.11172456303E+03  0.11675291905E+03  0.00000000000E+00 0. -1.
</event>
<event>
 8    1  0.6443238E-009  0.2847053E+03  0.7561462E-02  0.1093146E+00
         -1   -1    0    0    0  501 -0.00000000000E+00  0.00000000000E+00  0.32372725924E+03  0.32372725924E+03  0.00000000000E+00 0.  1.
          1   -1    0    0  501    0  0.00000000000E+00 -0.00000000000E+00 -0.28162631974E+03  0.28162631974E+03  0.00000000000E+00 0. -1.
         25    2    1    2    0    0  0.22969833213E+03 -0.13700540514E+03  0.10900966407E+03  0.31474120845E+03  0.12508843518E+03 0.  0.
         23    2    1    2    0    0 -0.22969833213E+03  0.13700540514E+03 -0.66908724570E+02  0.29061237052E+03  0.91907386304E+02 0.  0.
          5    1    3    3  502    0  0.22974301471E+03 -0.14935453002E+03  0.11853872011E+03  0.29859258031E+03  0.41800000000E+01 0. -1.
         -5    1    3    3    0  502 -0.44682582478E-01  0.12349124887E+02 -0.95290560396E+01  0.16148628146E+02  0.41800000000E+01 0. -1.
        -11    1    4    4    0    0 -0.15027723667E+03  0.13631864039E+03 -0.55703667465E+02  0.21040180168E+03  0.00000000000E+00 0.  1.
         11    1    4    4    0    0 -0.79421095459E+02  0.68676474406E+00 -0.11205057105E+02  0.80210568845E+02  0.00000000000E+00 0. -1.
</event>
<event>
 8    1  0.6443238E-009  0.1350136E+03  0.7561462E-02  0.1220201E+00
          4   -1    0    0  501    0  0.00000000000E+00  0.00000000000E+00  0.17869527642E+03  0.17869527642E+03  0.00000000000E+00 0. -1.
         -4   -1    0    0    0  501 -0.00000000000E+00 -0.00000000000E+00 -0.15548157078E+03  0.15548157078E+03  0.00000000000E+00 0.  1.
         25    2    1    2    0    0 -0.66593337527E+02  0.10682175665E+03  0.43459370429E+01  0.17751651300E+03  0.12509062682E+03 0.  0.
         23    2    1    2    0    0  0.66593337527E+02 -0.10682175665E+03  0.18867768592E+02  0.15666033421E+03  0.91328567950E+02 0.  0.
          5    1    3    3  502    0 -0.25297649657E+02  0.59345113403E+02  0.63813603431E+02  0.90837558013E+02  0.41800000000E+01 0. -1.
         -5    1    3    3    0  502 -0.41295687871E+02  0.47476643252E+02 -0.59467666388E+02  0.86678954982E+02  0.41800000000E+01 0. -1.
        -11    1    4    4    0    0  0.44058466069E+02 -0.13158281113E+02  0.36520675235E+02  0.58720086119E+02  0.00000000000E+00 0. -1.
         11    1    4    4    0    0  0.22534871458E+02 -0.93663475542E+02 -0.17652906643E+02  0.97940248086E+02  0.00000000000E+00 0.  1.
</event>
<event>
 8    1  0.6443238E-009  0.9949014E+02  0.7561462E-02  0.1281372E+00
         -1   -1    0    0    0  501 -0.00000000000E+00  0.00000000000E+00  0.93692525774E+02  0.93692525774E+02  0.00000000000E+00 0.  1.
          1   -1    0    0  501    0  0.00000000000E+00 -0.00000000000E+00 -0.40162599911E+03  0.40162599911E+03  0.00000000000E+00 0. -1.
         25    2    1    2    0    0 -0.60530209726E+02 -0.48359864155E+02 -0.33944637806E+03  0.36997290173E+03  0.12511403475E+03 0.  0.
         23    2    1    2    0    0  0.60530209726E+02  0.48359864155E+02  0.31512904717E+02  0.12534562315E+03  0.93358873867E+02 0.  0.
          5    1    3    3  502    0 -0.27015122549E+02 -0.18635242094E+02 -0.61468412971E+01  0.33650336583E+02  0.41800000000E+01 0. -1.
         -5    1    3    3    0  502 -0.33515087177E+02 -0.29724622061E+02 -0.33329953676E+03  0.33632256515E+03  0.41800000000E+01 0. -1.
        -11    1    4    4    0    0  0.18035826698E+02 -0.28122651186E+02  0.41163894679E+01  0.33661836204E+02  0.00000000000E+00 0. -1.
         11    1    4    4    0    0  0.42494383028E+02  0.76482515341E+02  0.27396515249E+02  0.91683786950E+02  0.00000000000E+00 0.  1.
</event>
<event>
 8    1  0.6443238E-009  0.8789478E+02  0.7561462E-02  0.1308031E+00
         -1   -1    0    0    0  501 -0.00000000000E+00  0.00000000000E+00  0.55138794144E+02  0.55138794144E+02  0.00000000000E+00 0.  1.
          1   -1    0    0  501    0  0.00000000000E+00 -0.00000000000E+00 -0.23527657379E+03  0.23527657379E+03  0.00000000000E+00 0. -1.
         25    2    1    2    0    0  0.28140478726E+01  0.33608092233E+02 -0.10720676172E+03  0.16816545847E+03  0.12509559918E+03 0.  0.
         23    2    1    2    0    0 -0.28140478726E+01 -0.33608092233E+02 -0.72931017918E+02  0.12224990946E+03  0.92134055916E+02 0.  0.
          5    1    3    3  502    0 -0.43068585065E+02 -0.29661503914E+01  0.27529720769E+01  0.43459778220E+02  0.41800000000E+01 0.  1.
         -5    1    3    3    0  502  0.45882632938E+02  0.36574242625E+02 -0.10995973380E+03  0.12470568025E+03  0.41800000000E+01 0.  1.
        -11    1    4    4    0    0 -0.33959359618E+02 -0.21400038285E+02  0.20011295205E+01  0.40189603924E+02  0.00000000000E+00 0.  1.
         11    1    4    4    0    0  0.31145311745E+02 -0.12208053948E+02 -0.74932147439E+02  0.82060305536E+02  0.00000000000E+00 0. -1.
</event>
<event>
 8    1  0.6443238E-009  0.1793677E+03  0.7561462E-02  0.1168416E+00
         -1   -1    0    0    0  501 -0.00000000000E+00  0.00000000000E+00  0.37183344313E+03  0.37183344313E+03  0.00000000000E+00 0.  1.
          1   -1    0    0  501    0  0.00000000000E+00 -0.00000000000E+00 -0.10734372325E+03  0.10734372325E+03  0.00000000000E+00 0. -1.
         25    2    1    2    0    0 -0.13622688604E+03 -0.74999616294E+02  0.21118532028E+03  0.29056941350E+03  0.12509451482E+03 0.  0.
         23    2    1    2    0    0  0.13622688604E+03  0.74999616294E+02  0.53304399601E+02  0.18860775288E+03  0.92459821034E+02 0.  0.
          5    1    3    3  502    0  0.22268328443E+02 -0.37387798915E+01  0.42723761249E+02  0.48504114279E+02  0.41800000000E+01 0. -1.
         -5    1    3    3    0  502 -0.15849521448E+03 -0.71260836402E+02  0.16846155903E+03  0.24206529922E+03  0.41800000000E+01 0. -1.
        -11    1    4    4    0    0  0.70770019069E+02  0.13335816214E+02 -0.17546690154E+02  0.74122371309E+02  0.00000000000E+00 0.  1.
         11    1    4    4    0    0  0.65456866967E+02  0.61663800080E+02  0.70851089755E+02  0.11448538157E+03  0.00000000000E+00 0. -1.
</event>
<event>
 8    1  0.6443238E-009  0.9976885E+02  0.7561462E-02  0.1280783E+00
         -2   -1    0    0    0  501 -0.00000000000E+00  0.00000000000E+00  0.70383569083E+02  0.70383569083E+02  0.00000000000E+00 0.  1.
          2   -1    0    0  501    0  0.00000000000E+00 -0.00000000000E+00 -0.46686453274E+03  0.46686453274E+03  0.00000000000E+00 0. -1.
         25    2    1    2    0    0 -0.12488234978E+02  0.68473436861E+02 -0.22570808467E+02  0.14492158039E+03  0.12509298742E+03 0.  0.
         23    2    1    2    0    0  0.12488234978E+02 -0.68473436861E+02 -0.37391015519E+03  0.39232652143E+03  0.96263844164E+02 0.  0.
          5    1    3    3  502    0 -0.35429726446E+02  0.76438789180E+02 -0.57563220751E+02  0.10212321377E+03  0.41800000000E+01 0.  1.
         -5    1    3    3    0  502  0.22941491468E+02 -0.79653523187E+01  0.34992412284E+02  0.42798366625E+02  0.41800000000E+01 0.  1.
        -11    1    4    4    0    0  0.29140526604E+02 -0.11743209575E+02 -0.30235934632E+02  0.43603726962E+02  0.00000000000E+00 0.  1.
         11    1    4    4    0    0 -0.16652291626E+02 -0.56730227286E+02 -0.34367422056E+03  0.34872279447E+03  0.00000000000E+00 0. -1.
</event>
<event>
 8    1  0.6443238E-009  0.9274313E+02  0.7561462E-02  0.1296342E+00
          1   -1    0    0  501    0  0.00000000000E+00  0.00000000000E+00  0.22298155783E+03  0.22298155783E+03  0.00000000000E+00 0. -1.
         -1   -1    0    0    0  501 -0.00000000000E+00 -0.00000000000E+00 -0.57346670752E+02  0.57346670752E+02  0.00000000000E+00 0.  1.
         25    2    1    2    0    0  0.16666584114E+02 -0.20538948668E+02  0.12420170304E+03  0.17825082645E+03  0.12509064974E+03 0.  0.
         23    2    1    2    0    0 -0.16666584114E+02  0.20538948668E+02  0.41433184037E+02  0.10207740213E+03  0.89462080504E+02 0.  0.
          5    1    3    3  502    0  0.45977443990E+01  0.37232919205E+02  0.11152649030E+03  0.11774149636E+03  0.41800000000E+01 0.  1.
         -5    1    3    3    0  502  0.12068839715E+02 -0.57771867873E+02  0.12675212734E+02  0.60509330086E+02  0.41800000000E+01 0.  1.
        -11    1    4    4    0    0 -0.47303277802E+02  0.30585012574E+02  0.10311686014E+02  0.57265818369E+02  0.00000000000E+00 0.  1.
         11    1    4    4    0    0  0.30636693688E+02 -0.10046063906E+02  0.31121498023E+02  0.44811583763E+02  0.00000000000E+00 0. -1.
</event>
<event>
 8    1  0.6443238E-009  0.1064397E+03  0.7561462E-02  0.1267309E+00
          2   -1    0    0  501    0  0.00000000000E+00  0.00000000000E+00  0.10711250370E+03  0.10711250370E+03  0.00000000000E+00 0. -1.
         -2   -1    0    0    0  501 -0.00000000000E+00 -0.00000000000E+00 -0.13691997317E+03  0.13691997317E+03  0.00000000000E+00 0.  1.
         25    2    1    2    0    0 -0.27244410892E+02 -0.24773494542E+02 -0.54325973869E+02  0.14126084844E+03  0.12508929574E+03 0.  0.
         23    2    1    2    0    0  0.27244410892E+02  0.24773494542E+02  0.24518504401E+02  0.10277162843E+03  0.92762420172E+02 0.  0.
          5    1    3    3  502    0  0.38245449116E+02  0.21160004420E+02 -0.40968840332E+02  0.60053130170E+02  0.41800000000E+01 0.  1.
         -5    1    3    3    0  502 -0.65489860008E+02 -0.45933498962E+02 -0.13357133537E+02  0.81207718273E+02  0.41800000000E+01 0.  1.
        -11    1    4    4    0    0  0.19573580733E+02  0.54636656539E+02  0.37734886121E+02  0.69225796717E+02  0.00000000000E+00 0. -1.
         11    1    4    4    0    0  0.76708301588E+01 -0.29863161997E+02 -0.13216381721E+02  0.33545831717E+02  0.00000000000E+00 0.  1.
</event>
<event>
 8    1  0.6443238E-009  0.1908057E+03  0.7561462E-02  0.1157737E+00
          4   -1    0    0  501    0  0.00000000000E+00  0.00000000000E+00  0.25937942727E+03  0.25937942727E+03  0.00000000000E+00 0.  1.
         -4   -1    0    0    0  501 -0.00000000000E+00 -0.00000000000E+00 -0.16231619121E+03  0.16231619121E+03  0.00000000000E+00 0. -1.
         25    2    1    2    0    0 -0.14646789243E+03  0.69874151763E+02  0.11281623299E+03  0.23390351762E+03  0.12509241597E+03 0.  0.
         23    2    1    2    0    0  0.14646789243E+03 -0.69874151763E+02 -0.15752996941E+02  0.18779210086E+03  0.93179802735E+02 0.  0.
          5    1    3    3  502    0 -0.25347397238E+02 -0.29468531410E+02 -0.27533575118E+01  0.39191048312E+02  0.41800000000E+01 0.  1.
         -5    1    3    3    0  502 -0.12112049519E+03  0.99342683173E+02  0.11556959051E+03  0.19471246931E+03  0.41800000000E+01 0.  1.
        -11    1    4    4    0    0 -0.77484387804E+01 -0.23544198015E+02 -0.98101091325E+01  0.26657190492E+02  0.00000000000E+00 0.  1.
         11    1    4    4    0    0  0.15421633121E+03 -0.46329953747E+02 -0.59428878080E+01  0.16113491037E+03  0.00000000000E+00 0. -1.
</event>
<event>
 8    1  0.6443238E-009  0.4785591E+02  0.7561462E-02  0.1457262E+00
          4   -1    0    0  501    0  0.00000000000E+00  0.00000000000E+00  0.27487498182E+02  0.27487498182E+02  0.00000000000E+00 0. -1.
         -4   -1    0    0    0  501 -0.00000000000E+00 -0.00000000000E+00 -0.35460921020E+03  0.35460921020E+03  0.00000000000E+00 0.  1.
         25    2    1    2    0    0  0.13453525790E+02 -0.20492780973E+02 -0.18483514006E+03  0.22453033534E+03  0.12509552773E+03 0.  0.
         23    2    1    2    0    0 -0.13453525790E+02  0.20492780973E+02 -0.14228657196E+03  0.15756637305E+03  0.63093121074E+02 0.  0.
          5    1    3    3  502    0  0.84983973490E+01 -0.39545643982E+01 -0.20055055086E+03  0.20081299059E+03  0.41800000000E+01 0.  1.
         -5    1    3    3    0  502  0.49551284412E+01 -0.16538216575E+02  0.15715410803E+02  0.23717344751E+02  0.41800000000E+01 0.  1.
        -11    1    4    4    0    0  0.25389788802E+02  0.11173099154E+02 -0.57584355454E+02  0.63917427304E+02  0.00000000000E+00 0.  1.
         11    1    4    4    0    0 -0.38843314593E+02  0.93196818191E+01 -0.84702216507E+02  0.93648945744E+02  0.00000000000E+00 0. -1.
</event>
<event>
 8    1  0.6443238E-009  0.9420551E+02  0.7561462E-02  0.1292976E+00
         -1   -1    0    0    0  501 -0.00000000000E+00  0.00000000000E+00  0.13388431346E+03  0.13388431346E+03  0.00000000000E+00 0.  1.
          1   -1    0    0  501    0  0.00000000000E+00 -0.00000000000E+00 -0.11599669748E+03  0.11599669748E+03  0.00000000000E+00 0. -1.
         25    2    1    2    0    0  0.17398565658E+02 -0.29716844699E+01  0.70258614833E+02  0.14458470444E+03  0.12512762606E+03 0.  0.
         23    2    1    2    0    0 -0.17398565658E+02  0.29716844699E+01 -0.52370998858E+02  0.10529630650E+03  0.89627281818E+02 0.  0.
          5    1    3    3  502    0  0.53792467539E+02 -0.34299631407E+02  0.59411202829E+01  0.64209528800E+02  0.41800000000E+01 0. -1.
         -5    1    3    3    0  502 -0.36393901881E+02  0.31327946937E+02  0.64317494550E+02  0.80375175636E+02  0.41800000000E+01 0. -1.
        -11    1    4    4    0    0 -0.46798191725E+02  0.26592599486E+01 -0.19317328308E+01  0.46913473586E+02  0.00000000000E+00 0.  1.
         11    1    4    4    0    0  0.29399626067E+02  0.31242452133E+00 -0.50439266027E+02  0.58382832916E+02  0.00000000000E+00 0. -1.
</event>
<event>
 8    1  0.6443238E-009  0.1113249E+03  0.7561462E-02  0.1258136E+00
          2   -1    0    0  501    0  0.00000000000E+00  0.00000000000E+00  0.25206952879E+02  0.25206952879E+02  0.00000000000E+00 0. -1.
         -2   -1    0    0    0  501 -0.00000000000E+00 -0.00000000000E+00 -0.52483270557E+03  0.52483270557E+03  0.00000000000E+00 0.  1.
         25    2    1    2    0    0  0.97419660473E+01 -0.27404323971E+02 -0.22091531426E+03  0.25553249988E+03  0.12508948615E+03 0.  0.
         23    2    1    2    0    0 -0.97419660473E+01  0.27404323971E+02 -0.27871043843E+03  0.29450715857E+03  0.90603835915E+02 0.  0.
          5    1    3    3  502    0  0.27841332809E+02  0.45252770762E+02 -0.86011544695E+02  0.10118503494E+03  0.41800000000E+01 0.  1.
         -5    1    3    3    0  502 -0.18099366762E+02 -0.72657094733E+02 -0.13490376957E+03  0.15434746495E+03  0.41800000000E+01 0.  1.
        -11    1    4    4    0    0 -0.29450824095E+02 -0.24836354639E+02 -0.95511732914E+02  0.10298876966E+03  0.00000000000E+00 0. -1.
         11    1    4    4    0    0  0.19708858048E+02  0.52240678610E+02 -0.18319870552E+03  0.19151838891E+03  0.00000000000E+00 0.  1.
</event>
<event>
 8    1  0.6443238E-009  0.1059252E+03  0.7561462E-02  0.1268307E+00
          2   -1    0    0  501    0  0.00000000000E+00  0.00000000000E+00  0.64229512134E+03  0.64229512134E+03  0.00000000000E+00 0. -1.
         -2   -1    0    0    0  501 -0.00000000000E+00 -0.00000000000E+00 -0.29539684197E+02  0.29539684197E+02  0.00000000000E+00 0.  1.
         25    2    1    2    0    0 -0.23280385152E+02 -0.52978146178E+02  0.48471999401E+03  0.50393463317E+03  0.12509189265E+03 0.  0.
         23    2    1    2    0    0  0.23280385152E+02  0.52978146178E+02  0.12803544314E+03  0.16790017237E+03  0.91916989063E+02 0.  0.
          5    1    3    3  502    0 -0.63008272990E+02 -0.47716043937E+02  0.42220797214E+03  0.42956246048E+03  0.41800000000E+01 0. -1.
         -5    1    3    3    0  502  0.39727887838E+02 -0.52621022415E+01  0.62512021866E+02  0.74372172684E+02  0.41800000000E+01 0. -1.
        -11    1    4    4    0    0 -0.24873308310E+02  0.70192884079E+01  0.27007695388E+01  0.25985496573E+02  0.00000000000E+00 0.  1.
         11    1    4    4    0    0  0.48153693462E+02  0.45958857770E+02  0.12533467360E+03  0.14191467580E+03  0.00000000000E+00 0. -1.
</event>
<event>
 8    1  0.6443238E-009  0.7834974E+02  0.7561462E-02  0.1333801E+00
          2   -1    0    0  501    0  0.00000000000E+00  0.00000000000E+00  0.34292660283E+02  0.34292660283E+02  0.00000000000E+00 0. -1.
         -2   -1    0    0    0  501 -0.00000000000E+00 -0.00000000000E+00 -0.29654140089E+03  0.29654140089E+03  0.00000000000E+00 0.  1.
         25    2    1    2    0    0 -0.24440501957E+00  0.17641259886E+02 -0.19255442573E+03  0.23030075141E+03  0.12509978198E+03 0.  0.
         23    2    1    2    0    0  0.24440501957E+00 -0.17641259886E+02 -0.69694314885E+02  0.10053330976E+03  0.70273572989E+02 0.  0.
          5    1    3    3  502    0 -0.19118091816E+02 -0.48529219780E+02 -0.11615645394E+03  0.12739851176E+03  0.41800000000E+01 0.  1.
         -5    1    3    3    0  502  0.18873686797E+02  0.66170479666E+02 -0.76397971787E+02  0.10290223965E+03  0.41800000000E+01 0.  1.
        -11    1    4    4    0    0  0.15452653328E+02 -0.10106928378E+02  0.86368327958E+01  0.20384537690E+02  0.00000000000E+00 0. -1.
         11    1    4    4    0    0 -0.15208248308E+02 -0.75343315079E+01 -0.78331147681E+02  0.80148772073E+02  0.00000000000E+00 0.  1.
</event>
<event>
 8    1  0.6443238E-009  0.1085456E+03  0.7561462E-02  0.1263287E+00
         -1   -1    0    0    0  501 -0.00000000000E+00  0.00000000000E+00  0.16646384109E+03  0.16646384109E+03  0.00000000000E+00 0.  1.
          1   -1    0    0  501    0  0.00000000000E+00 -0.00000000000E+00 -0.99362435840E+02  0.99362435840E+02  0.00000000000E+00 0. -1.
         25    2    1    2    0    0  0.12640061571E+02  0.70467525152E+01 -0.32582797328E+02  0.13006788053E+03  0.12508631815E+03 0.  0.
         23    2    1    2    0    0 -0.12640061571E+02 -0.70467525152E+01  0.99684202578E+02  0.13575839640E+03  0.91016339581E+02 0.  0.
          5    1    3    3  502    0  0.65502013937E+02  0.24292208144E+02 -0.14738601097E+02  0.71521493054E+02  0.41800000000E+01 0.  1.
         -5    1    3    3    0  502 -0.52861952366E+02 -0.17245455629E+02 -0.17844196232E+02  0.58546387480E+02  0.41800000000E+01 0.  1.
        -11    1    4    4    0    0  0.32990364378E+02  0.19727287052E+02  0.50986148488E+02  0.63852308759E+02  0.00000000000E+00 0. -1.
         11    1    4    4    0    0 -0.45630425949E+02 -0.26774039567E+02  0.48698054091E+02  0.71906087637E+02  0.00000000000E+00 0.  1.
</event>
<event>
 8    1  0.6443238E-009  0.1200973E+03  0.7561462E-02  0.1242937E+00
         -4   -1    0    0    0  501 -0.00000000000E+00  0.00000000000E+00  0.29074856885E+02  0.29074856885E+02  0.00000000000E+00 0.  1.
          4   -1    0    0  501    0  0.00000000000E+00 -0.00000000000E+00 -0.53493815417E+03  0.53493815417E+03  0.00000000000E+00 0. -1.
         25    2    1    2    0    0 -0.34328951820E+02 -0.52831180455E+02 -0.30958607565E+03  0.33979706738E+03  0.12509555627E+03 0.  0.
         23    2    1    2    0    0  0.34328951820E+02  0.52831180455E+02 -0.19627722163E+03  0.22421594368E+03  0.88195414310E+02 0.  0.
          5    1    3    3  502    0  0.44830057024E+02 -0.81262941683E+01 -0.14069833244E+03  0.14795020723E+03  0.41800000000E+01 0. -1.
         -5    1    3    3    0  502 -0.79159008845E+02 -0.44704886286E+02 -0.16888774321E+03  0.19184686014E+03  0.41800000000E+01 0. -1.
        -11    1    4    4    0    0  0.35074681103E+02 -0.13144241945E+02 -0.41174399428E+02  0.55662694141E+02  0.00000000000E+00 0.  1.
         11    1    4    4    0    0 -0.74572928272E+00  0.65975422399E+02 -0.15510282220E+03  0.16855324953E+03  0.00000000000E+00 0. -1.
</event>
<event>
 8    1  0.6443238E-009  0.9365666E+02  0.7561462E-02  0.1294231E+00
         -2   -1    0    0    0  501 -0.00000000000E+00  0.00000000000E+00  0.56079448156E+02  0.56079448156E+02  0.00000000000E+00 0.  1.
          2   -1    0    0  501    0  0.00000000000E+00 -0.00000000000E+00 -0.44581221369E+03  0.44581221369E+03  0.00000000000E+00 0. -1.
         25    2    1    2    0    0  0.98899497408E+01 -0.77961434746E+00 -0.39064265120E+03  0.41030203979E+03  0.12509062322E+03 0.  0.
         23    2    1    2    0    0 -0.98899497408E+01  0.77961434746E+00  0.90988566638E+00  0.91589622052E+02  0.91046208440E+02 0.  0.
          5    1    3    3  502    0  0.30068243869E+02  0.52962552641E+02 -0.13348246523E+03  0.14677933163E+03  0.41800000000E+01 0. -1.
         -5    1    3    3    0  502 -0.20178294129E+02 -0.53742166988E+02 -0.25716018597E+03  0.26352270816E+03  0.41800000000E+01 0. -1.
        -11    1    4    4    0    0 -0.31181466878E+02 -0.21513461535E+02  0.30669670545E+02  0.48741579736E+02  0.00000000000E+00 0.  1.
         11    1    4    4    0    0  0.21291517137E+02  0.22293075882E+02 -0.29759784878E+02  0.42848042316E+02  0.00000000000E+00 0. -1.
</event>
<event>
 8    1  0.6443238E-009  0.8621711E+02  0.7561462E-02  0.1312280E+00
          2   -1    0    0  501    0  0.00000000000E+00  0.00000000000E+00  0.13888027201E+03  0.13888027201E+03  0.00000000000E+00 0. -1.
         -2   -1    0    0    0  501 -0.00000000000E+00 -0.00000000000E+00 -0.10530105437E+03  0.10530105437E+03  0.00000000000E+00 0.  1.
         25    2    1    2    0    0  0.13979512049E+02  0.41211190992E+02 -0.10575216922E+02  0.13286533200E+03  0.12509025627E+03 0.  0.
         23    2    1    2    0    0 -0.13979512049E+02 -0.41211190992E+02  0.44154434564E+02  0.11131599438E+03  0.92454569888E+02 0.  0.
          5    1    3    3  502    0 -0.38943437055E+02  0.31473674442E+02 -0.46148993488E+02  0.68223056751E+02  0.41800000000E+01 0.  1.
         -5    1    3    3    0  502  0.52922949104E+02  0.97375165497E+01  0.35573776566E+02  0.64642275250E+02  0.41800000000E+01 0.  1.
        -11    1    4    4    0    0  0.19990944892E+02 -0.19324484106E+02  0.61382592094E+02  0.67386171993E+02  0.00000000000E+00 0. -1.
         11    1    4    4    0    0 -0.33970456941E+02 -0.21886706886E+02 -0.17228157530E+02  0.43929822387E+02  0.00000000000E+00 0.  1.
</event>
<event>
 8    1  0.6443238E-009  0.8836022E+02  0.7561462E-02  0.1306872E+00
          1   -1    0    0  501    0  0.00000000000E+00  0.00000000000E+00  0.45362426958E+03  0.45362426958E+03  0.00000000000E+00 0. -1.
         -1   -1    0    0    0  501 -0.00000000000E+00 -0.00000000000E+00 -0.26268773849E+02  0.26268773849E+02  0.00000000000E+00 0.  1.
         25    2    1    2    0    0  0.33248897276E+01  0.95974339282E+01  0.23169846996E+03  0.26350525305E+03  0.12509065424E+03 0.  0.
         23    2    1    2    0    0 -0.33248897276E+01 -0.95974339282E+01  0.19565702577E+03  0.21638779037E+03  0.91863150710E+02 0.  0.
          5    1    3    3  502    0 -0.43380219818E+02  0.37246342328E+02  0.58308772758E+02  0.81771137138E+02  0.41800000000E+01 0.  1.
         -5    1    3    3    0  502  0.46705109545E+02 -0.27648908400E+02  0.17338969720E+03  0.18173411592E+03  0.41800000000E+01 0.  1.
        -11    1    4    4    0    0 -0.52105528886E+01  0.27409493650E+02  0.14429558130E+02  0.31410863589E+02  0.00000000000E+00 0.  1.
         11    1    4    4    0    0  0.18856631609E+01 -0.37006927578E+02  0.18122746764E+03  0.18497692678E+03  0.00000000000E+00 0. -1.
</event>
<event>
 8    1  0.6443238E-009  0.1240553E+03  0.7561462E-02  0.1236553E+00
         -1   -1    0    0    0  501 -0.00000000000E+00  0.00000000000E+00  0.41641180906E+02  0.41641180906E+02  0.00000000000E+00 0.  1.
          1   -1    0    0  501    0  0.00000000000E+00 -0.00000000000E+00 -0.56779767585E+03  0.56779767585E+03  0.00000000000E+00 0. -1.
         25    2    1    2    0    0  0.68727540265E+02  0.84399437938E+02 -0.28337463993E+03  0.32832564661E+03  0.12509917568E+03 0.  0.
         23    2    1    2    0    0 -0.68727540265E+02 -0.84399437938E+02 -0.24278185502E+03  0.28111321014E+03  0.90746172784E+02 0.  0.
          5    1    3    3  502    0  0.62932275152E+02  0.26506300921E+02 -0.42617340000E+02  0.80602514309E+02  0.41800000000E+01 0.  1.
         -5    1    3    3    0  502  0.57952651134E+01  0.57893137017E+02 -0.24075729993E+03  0.24772313230E+03  0.41800000000E+01 0.  1.
        -11    1    4    4    0    0 -0.59653668771E+01 -0.48889992206E+02 -0.17623625864E+03  0.18298916853E+03  0.00000000000E+00 0.  1.
         11    1    4    4    0    0 -0.62762173388E+02 -0.35509445732E+02 -0.66545596372E+02  0.98124041606E+02  0.00000000000E+00 0. -1.
</event>
<event>
 8    1  0.6443238E-009  0.1619818E+03  0.7561462E-02  0.1186477E+00
         -1   -1    0    0    0  501 -0.00000000000E+00  0.00000000000E+00  0.37596055280E+02  0.37596055280E+02  0.00000000000E+00 0.  1.
          1   -1    0    0  501    0  0.00000000000E+00 -0.00000000000E+00 -0.70208216620E+03  0.70208216620E+03  0.00000000000E+00 0. -1.
         25    2    1    2    0    0 -0.68415647811E+02 -0.97344412502E+02 -0.33716463915E+03  0.37879380596E+03  0.12509243793E+03 0.  0.
         23    2    1    2    0    0  0.68415647811E+02  0.97344412502E+02 -0.32732147177E+03  0.36088441552E+03  0.94559927952E+02 0.  0.
          5    1    3    3  502    0 -0.91229677186E+02 -0.23069214130E+02 -0.16837435764E+03  0.19293117776E+03  0.41800000000E+01 0. -1.
         -5    1    3    3    0  502  0.22814029376E+02 -0.74275198372E+02 -0.16879028151E+03  0.18586262820E+03  0.41800000000E+01 0. -1.
        -11    1    4    4    0    0 -0.62283139017E+01  0.73259539164E+02 -0.15518800076E+03  0.17172381184E+03  0.00000000000E+00 0.  1.
         11    1    4    4    0    0  0.74643961713E+02  0.24084873338E+02 -0.17213347101E+03  0.18916060368E+03  0.00000000000E+00 0. -1.
</event>
<event>
 8    1  0.6443238E-009  0.1236452E+03  0.7561462E-02  0.1237202E+00
          1   -1    0    0  501    0  0.00000000000E+00  0.00000000000E+00  0.24238400847E+03  0.24238400847E+03  0.00000000000E+00 0. -1.
         -1   -1    0    0    0  501 -0.00000000000E+00 -0.00000000000E+00 -0.10748580776E+03  0.10748580776E+03  0.00000000000E+00 0.  1.
         25    2    1    2    0    0 -0.97957723560E+02  0.61685712016E+02  0.41699791073E+02  0.17546579207E+03  0.12509408036E+03 0.  0.
         23    2    1    2    0    0  0.97957723560E+02 -0.61685712016E+02  0.93198409643E+02  0.17440402416E+03  0.91268709916E+02 0.  0.
          5    1    3    3  502    0 -0.59291560188E+02  0.38972908900E+02 -0.40449720179E+02  0.81780370507E+02  0.41800000000E+01 0. -1.
         -5    1    3    3    0  502 -0.38666163372E+02  0.22712803116E+02  0.82149511252E+02  0.93685421567E+02  0.41800000000E+01 0. -1.
        -11    1    4    4    0    0  0.58434957380E+02 -0.62231745829E+00  0.29782087899E+01  0.58514111551E+02  0.00000000000E+00 0.  1.
         11    1    4    4    0    0  0.39522766179E+02 -0.61063394558E+02  0.90220200853E+02  0.11588991260E+03  0.00000000000E+00 0. -1.
</event>
<event>
 8    1  0.6443238E-009  0.1201570E+03  0.7561462E-02  0.1242838E+00
         -1   -1    0    0    0  501 -0.00000000000E+00  0.00000000000E+00  0.30458874766E+02  0.30458874766E+02  0.00000000000E+00 0.  1.
          1   -1    0    0  501    0  0.00000000000E+00 -0.00000000000E+00 -0.86264203234E+03  0.86264203234E+03  0.00000000000E+00 0. -1.
         25    2    1    2    0    0 -0.44547734647E+02  0.71308667827E+02 -0.68293407524E+03  0.69936757447E+03  0.12508647538E+03 0.  0.
         23    2    1    2    0    0  0.44547734647E+02 -0.71308667827E+02 -0.14924908233E+03  0.19373333264E+03  0.90486953911E+02 0.  0.
          5    1    3    3  502    0  0.15101379900E+02  0.51532467193E+02 -0.10497171071E+03  0.11798380948E+03  0.41800000000E+01 0. -1.
         -5    1    3    3    0  502 -0.59649114547E+02  0.19776200634E+02 -0.57796236453E+03  0.58138376499E+03  0.41800000000E+01 0. -1.
        -11    1    4    4    0    0  0.48134242981E+02  0.37933759379E+01 -0.61050201691E+02  0.77835866892E+02  0.00000000000E+00 0. -1.
         11    1    4    4    0    0 -0.35865083337E+01 -0.75102043765E+02 -0.88198880640E+02  0.11589746574E+03  0.00000000000E+00 0.  1.
</event>
<event>
 8    1  0.6443238E-009  0.2089065E+03  0.7561462E-02  0.1142435E+00
         -3   -1    0    0    0  501 -0.00000000000E+00  0.00000000000E+00  0.64101168706E+02  0.64101168706E+02  0.00000000000E+00 0.  1.
          3   -1    0    0  501    0  0.00000000000E+00 -0.00000000000E+00 -0.75040022279E+03  0.75040022279E+03  0.00000000000E+00 0. -1.
         25    2    1    2    0    0  0.17596884149E+03  0.54765621536E+02 -0.26864495926E+03  0.34897384726E+03  0.12509326704E+03 0.  0.
         23    2    1    2    0    0 -0.17596884149E+03 -0.54765621536E+02 -0.41765409483E+03  0.46552754424E+03  0.91195641571E+02 0.  0.
          5    1    3    3  502    0  0.12184131634E+03  0.92514737984E+02 -0.15723286170E+03  0.21941724706E+03  0.41800000000E+01 0. -1.
         -5    1    3    3    0  502  0.54127525149E+02 -0.37749116448E+02 -0.11141209756E+03  0.12955660019E+03  0.41800000000E+01 0. -1.
        -11    1    4    4    0    0 -0.15085289402E+03 -0.14975492462E+02 -0.36315752402E+03  0.39352795105E+03  0.00000000000E+00 0. -1.
         11    1    4    4    0    0 -0.25115947465E+02 -0.39790129074E+02 -0.54496570811E+02  0.71999593186E+02  0.00000000000E+00 0.  1.
</event>
<event>
 8    1  0.6443238E-009  0.1622660E+03  0.7561462E-02  0.1186162E+00
         -3   -1    0    0    0  501 -0.00000000000E+00  0.00000000000E+00  0.10581227593E+04  0.10581227593E+04  0.00000000000E+00 0.  1.
          3   -1    0    0  501    0  0.00000000000E+00 -0.00000000000E+00 -0.27136947153E+02  0.27136947153E+02  0.00000000000E+00 0. -1.
         25    2    1    2    0    0 -0.11201776261E+03  0.62190246703E+02  0.58392478976E+03  0.61076206926E+03  0.12508612726E+03 0.  0.
         23    2    1    2    0    0  0.11201776261E+03 -0.62190246703E+02  0.44706102234E+03  0.47449763714E+03  0.94174540257E+02 0.  0.
          5    1    3    3  502    0  0.22081797031E+02  0.26520999046E+02  0.18843168482E+03  0.19161143336E+03  0.41800000000E+01 0. -1.
         -5    1    3    3    0  502 -0.13409955964E+03  0.35669247656E+02  0.39549310494E+03  0.41915063590E+03  0.41800000000E+01 0. -1.
        -11    1    4    4    0    0  0.52381114251E+02 -0.73489024372E+02  0.33626914417E+03  0.34816857290E+03  0.00000000000E+00 0. -1.
         11    1    4    4    0    0  0.59636648357E+02  0.11298777669E+02  0.11079187817E+03  0.12632906424E+03  0.00000000000E+00 0.  1.
</event>
<event>
 8    1  0.6443238E-009  0.1341488E+03  0.7561462E-02  0.1221426E+00
         -3   -1    0    0    0  501 -0.00000000000E+00  0.00000000000E+00  0.46116777223E+02  0.46116777223E+02  0.00000000000E+00 0.  1.
          3   -1    0    0  501    0  0.00000000000E+00 -0.00000000000E+00 -0.40596601874E+03  0.40596601874E+03  0.00000000000E+00 0. -1.
         25    2    1    2    0    0  0.73693999513E+02  0.27085620943E+02 -0.16788209547E+03  0.22359292407E+03  0.12507981968E+03 0.  0.
         23    2    1    2    0    0 -0.73693999513E+02 -0.27085620943E+02 -0.19196714605E+03  0.22848987189E+03  0.95873875312E+02 0.  0.
          5    1    3    3  502    0  0.52240112844E+02 -0.45088106870E+02 -0.57553650172E+02  0.89954776523E+02  0.41800000000E+01 0.  1.
         -5    1    3    3    0  502  0.21453886669E+02  0.72173727814E+02 -0.11032844529E+03  0.13363814755E+03  0.41800000000E+01 0.  1.
        -11    1    4    4    0    0  0.23351595272E+02 -0.90616815837E+01 -0.43775989469E+02  0.50435585937E+02  0.00000000000E+00 0.  1.
         11    1    4    4    0    0 -0.97045594785E+02 -0.18023939360E+02 -0.14819115658E+03  0.17805428595E+03  0.00000000000E+00 0. -1.
</event>
<event>
 8    1  0.6443238E-009  0.9209370E+02  0.7561462E-02  0.1297859E+00
         -2   -1    0    0    0  501 -0.00000000000E+00  0.00000000000E+00  0.36432732295E+02  0.36432732295E+02  0.00000000000E+00 0.  1.
          2   -1    0    0  501    0  0.00000000000E+00 -0.00000000000E+00 -0.46918571841E+03  0.46918571841E+03  0.00000000000E+00 0. -1.
         25    2    1    2    0    0 -0.51549993956E+02 -0.44594784510E+02 -0.19213866788E+03  0.23918817174E+03  0.12509043578E+03 0.  0.
         23    2    1    2    0    0  0.51549993956E+02  0.44594784510E+02 -0.24061431823E+03  0.26643027896E+03  0.91889861942E+02 0.  0.
          5    1    3    3  502    0 -0.52326051983E+02 -0.69854006401E+02 -0.19473702235E+03  0.21344221279E+03  0.41800000000E+01 0.  1.
         -5    1    3    3    0  502  0.77605802648E+00  0.25259221891E+02  0.25983544645E+01  0.25745958955E+02  0.41800000000E+01 0.  1.
        -11    1    4    4    0    0  0.35758751472E+02  0.42050619349E+02 -0.24392812840E+03  0.25009573111E+03  0.00000000000E+00 0. -1.
         11    1    4    4    0    0  0.15791242484E+02  0.25441651604E+01  0.33138101729E+01  0.16334547849E+02  0.00000000000E+00 0.  1.
</event>
<event>
 8    1  0.6443238E-009  0.1065254E+03  0.7561462E-02  0.1267143E+00
         -1   -1    0    0    0  501 -0.00000000000E+00  0.00000000000E+00  0.15529590210E+02  0.15529590210E+02  0.00000000000E+00 0.  1.
          1   -1    0    0  501    0  0.00000000000E+00 -0.00000000000E+00 -0.11702050679E+04  0.11702050679E+04  0.00000000000E+00 0. -1.
         25    2    1    2    0    0 -0.15032312774E+02  0.62825178503E+02 -0.85475655417E+03  0.86627329846E+03  0.12509071605E+03 0.  0.
         23    2    1    2    0    0  0.15032312774E+02 -0.62825178503E+02 -0.29991892352E+03  0.31946135965E+03  0.89057431715E+02 0.  0.
          5    1    3    3  502    0 -0.60209437869E+02  0.41521302325E+02 -0.28314483086E+03  0.29246822494E+03  0.41800000000E+01 0.  1.
         -5    1    3    3    0  502  0.45177125095E+02  0.21303876179E+02 -0.57161172331E+03  0.57380507352E+03  0.41800000000E+01 0.  1.
        -11    1    4    4    0    0  0.19077544462E+02 -0.74714544434E+02 -0.29661604499E+03  0.30647560098E+03  0.00000000000E+00 0. -1.
         11    1    4    4    0    0 -0.40452316877E+01  0.11889365930E+02 -0.33028785318E+01  0.12985758670E+02  0.00000000000E+00 0.  1.
</event>
<event>
 8    1  0.6443238E-009  0.1150330E+03  0.7561462E-02  0.1251524E+00
         -2   -1    0    0    0  501 -0.00000000000E+00  0.00000000000E+00  0.55639596062E+02  0.55639596062E+02  0.00000000000E+00 0.  1.
          2   -1    0    0  501    0  0.00000000000E+00 -0.00000000000E+00 -0.24113490308E+03  0.24113490308E+03  0.00000000000E+00 0. -1.
         25    2    1    2    0    0 -0.36164140846E+02 -0.18580251130E+02 -0.11421476247E+03  0.17419842070E+03  0.12508799700E+03 0.  0.
         23    2    1    2    0    0  0.36164140846E+02  0.18580251130E+02 -0.71280544548E+02  0.12257607844E+03  0.91054424161E+02 0.  0.
          5    1    3    3  502    0  0.32801266374E+02  0.31554479867E+02 -0.33022294043E+02  0.56387521486E+02  0.41800000000E+01 0.  1.
         -5    1    3    3    0  502 -0.68965407220E+02 -0.50134730997E+02 -0.81192468428E+02  0.11781089922E+03  0.41800000000E+01 0.  1.
        -11    1    4    4    0    0 -0.15819973078E+02 -0.26051793079E+02 -0.28964306276E+02  0.42046385206E+02  0.00000000000E+00 0. -1.
         11    1    4    4    0    0  0.51984113923E+02  0.44632044210E+02 -0.42316238272E+02  0.80529693233E+02  0.00000000000E+00 0.  1.
</event>
<event>
 8    1  0.6443238E-009  0.1029051E+03  0.7561462E-02  0.1274303E+00
          2   -1    0    0  501    0  0.00000000000E+00  0.00000000000E+00  0.95795430685E+03  0.95795430685E+03  0.00000000000E+00 0. -1.
         -2   -1    0    0    0  501 -0.00000000000E+00 -0.00000000000E+00 -0.13594987645E+02  0.13594987645E+02  0.00000000000E+00 0.  1.
         25    2    1    2    0    0  0.29126362389E+02  0.21775177365E+02  0.56399951272E+03  0.57884796891E+03  0.12508803869E+03 0.  0.
         23    2    1    2    0    0 -0.29126362389E+02 -0.21775177365E+02  0.38035980648E+03  0.39270132559E+03  0.90654538745E+02 0.  0.
          5    1    3    3  502    0  0.47858584604E+02  0.53319732049E+02  0.49864750920E+03  0.50378591562E+03  0.41800000000E+01 0. -1.
         -5    1    3    3    0  502 -0.18732222216E+02 -0.31544554684E+02  0.65352003520E+02  0.75062053285E+02  0.41800000000E+01 0. -1.
        -11    1    4    4    0    0  0.23412957386E+02 -0.35763879595E+02  0.18854373290E+03  0.19332863438E+03  0.00000000000E+00 0.  1.
         11    1    4    4    0    0 -0.52539319775E+02  0.13988702230E+02  0.19181607359E+03  0.19937269121E+03  0.00000000000E+00 0. -1.
</event>
<event>
 8    1  0.6443238E-009  0.1793314E+03  0.7561462E-02  0.1168452E+00
         -2   -1    0    0    0  501 -0.00000000000E+00  0.00000000000E+00  0.16383422234E+03  0.16383422234E+03  0.00000000000E+00 0.  1.
          2   -1    0    0  501    0  0.00000000000E+00 -0.00000000000E+00 -0.28143817760E+03  0.28143817760E+03  0.00000000000E+00 0. -1.
         25    2    1    2    0    0  0.16590848359E+03  0.49303567615E+02  0.53325684589E+01  0.21361744115E+03  0.12509000029E+03 0.  0.
         23    2    1    2    0    0 -0.16590848359E+03 -0.49303567615E+02 -0.12293652372E+03  0.23165495879E+03  0.92704715959E+02 0.  0.
          5    1    3    3  502    0  0.12310905827E+03  0.28408102690E+02 -0.53961441589E+02  0.13744879084E+03  0.41800000000E+01 0.  1.
         -5    1    3    3    0  502  0.42799425322E+02  0.20895464925E+02  0.59294010048E+02  0.76168650309E+02  0.41800000000E+01 0.  1.
        -11    1    4    4    0    0 -0.16969092581E+02 -0.29711734584E+02 -0.59397223851E+02  0.68547556311E+02  0.00000000000E+00 0. -1.
         11    1    4    4    0    0 -0.14893939101E+03 -0.19591833031E+02 -0.63539299870E+02  0.16310740248E+03  0.00000000000E+00 0.  1.
</event>
<event>
 8    1  0.6443238E-009  0.1287481E+03  0.7561462E-02  0.1229325E+00
         -2   -1    0    0    0  501 -0.00000000000E+00  0.00000000000E+00  0.35927691206E+02  0.35927691206E+02  0.00000000000E+00 0. -1.
          2   -1    0    0  501    0  0.00000000000E+00 -0.00000000000E+00 -0.68328648971E+03  0.68328648971E+03  0.00000000000E+00 0.  1.
         25    2    1    2    0    0  0.10895656207E+03 -0.19291890170E+02 -0.40923088736E+03  0.44198724885E+03  0.12505638543E+03 0.  0.
         23    2    1    2    0    0 -0.10895656207E+03  0.19291890170E+02 -0.23812791114E+03  0.27722693206E+03  0.88916592083E+02 0.  0.
          5    1    3    3  502    0  0.60243118409E+02 -0.31485681453E+02 -0.37484819237E+03  0.38098454192E+03  0.41800000000E+01 0.  1.
         -5    1    3    3    0  502  0.48713443665E+02  0.12193791284E+02 -0.34382694981E+02  0.61002706938E+02  0.41800000000E+01 0.  1.
        -11    1    4    4    0    0 -0.27779615605E+02  0.45835334100E+02 -0.65551598241E+02  0.84673472394E+02  0.00000000000E+00 0.  1.
         11    1    4    4    0    0 -0.81176946469E+02 -0.26543443931E+02 -0.17257631290E+03  0.19255345967E+03  0.00000000000E+00 0. -1.
</event>
<event>
 8    1  0.6443238E-009  0.1341773E+03  0.7561462E-02  0.1221386E+00
          2   -1    0    0  501    0  0.00000000000E+00  0.00000000000E+00  0.69393542350E+02  0.69393542350E+02  0.00000000000E+00 0. -1.
         -2   -1    0    0    0  501 -0.00000000000E+00 -0.00000000000E+00 -0.35859397028E+03  0.35859397028E+03  0.00000000000E+00 0.  1.
         25    2    1    2    0    0  0.44734660512E+01  0.91752116707E+02 -0.20492558135E+03  0.25706069873E+03  0.12508895284E+03 0.  0.
         23    2    1    2    0    0 -0.44734660512E+01 -0.91752116707E+02 -0.84274846582E+02  0.17092681390E+03  0.11694128067E+03 0.  0.
          5    1    3    3  502    0  0.96644497741E+01 -0.11844310553E+02 -0.12511978671E+03  0.12611947791E+03  0.41800000000E+01 0. -1.
         -5    1    3    3    0  502 -0.51909837229E+01  0.10359642726E+03 -0.79805794644E+02  0.13094122083E+03  0.41800000000E+01 0. -1.
        -11    1    4    4    0    0 -0.58983650795E+02 -0.65660354590E+02 -0.49004985194E+02  0.10095465219E+03  0.00000000000E+00 0. -1.
         11    1    4    4    0    0  0.54510184744E+02 -0.26091762117E+02 -0.35269861388E+02  0.69972161704E+02  0.00000000000E+00 0.  1.
</event>
<event>
 8    1  0.6443238E-009  0.1729090E+03  0.7561462E-02  0.1174848E+00
         -2   -1    0    0    0  501 -0.00000000000E+00  0.00000000000E+00  0.74239084740E+02  0.74239084740E+02  0.00000000000E+00 0.  1.
          2   -1    0    0  501    0  0.00000000000E+00 -0.00000000000E+00 -0.41583192361E+03  0.41583192361E+03  0.00000000000E+00 0. -1.
         25    2    1    2    0    0  0.13512961892E+03 -0.22019631952E+02 -0.15878922495E+03  0.24414419764E+03  0.12508994036E+03 0.  0.
         23    2    1    2    0    0 -0.13512961892E+03  0.22019631952E+02 -0.18280361391E+03  0.24592681071E+03  0.91202833626E+02 0.  0.
          5    1    3    3  502    0 -0.21171219889E+02  0.73370846815E+01 -0.38332087080E+02  0.44596801041E+02  0.41800000000E+01 0. -1.
         -5    1    3    3    0  502  0.15630083881E+03 -0.29356716634E+02 -0.12045713787E+03  0.19954739660E+03  0.41800000000E+01 0. -1.
        -11    1    4    4    0    0 -0.10856568811E+03  0.54907087036E+02 -0.14432615132E+03  0.18876264142E+03  0.00000000000E+00 0.  1.
         11    1    4    4    0    0 -0.26563930814E+02 -0.32887455084E+02 -0.38477462596E+02  0.57164169285E+02  0.00000000000E+00 0. -1.
</event>
<event>
 8    1  0.6443238E-009  0.5932843E+02  0.7561462E-02  0.1400672E+00
         -2   -1    0    0    0  501 -0.00000000000E+00  0.00000000000E+00  0.55546101022E+03  0.55546101022E+03  0.00000000000E+00 0.  1.
          2   -1    0    0  501    0  0.00000000000E+00 -0.00000000000E+00 -0.37194348919E+02  0.37194348919E+02  0.00000000000E+00 0. -1.
         25    2    1    2    0    0  0.13692182584E+02 -0.52982043120E+02  0.44140978573E+03  0.46204392872E+03  0.12508964935E+03 0.  0.
         23    2    1    2    0    0 -0.13692182584E+02  0.52982043120E+02  0.76856875568E+02  0.13061143041E+03  0.90320505287E+02 0.  0.
          5    1    3    3  502    0  0.16299483949E+02 -0.15924927508E+02  0.41645026882E+03  0.41709420434E+03  0.41800000000E+01 0.  1.
         -5    1    3    3    0  502 -0.26073013643E+01 -0.37057115612E+02  0.24959516912E+02  0.44949724386E+02  0.41800000000E+01 0.  1.
        -11    1    4    4    0    0 -0.17261936492E+02  0.28169033480E+02  0.94400044824E+02  0.10001418580E+03  0.00000000000E+00 0.  1.
         11    1    4    4    0    0  0.35697539075E+01  0.24813009640E+02 -0.17543169255E+02  0.30597244612E+02  0.00000000000E+00 0. -1.
</event>
<event>
 8    1  0.6443238E-009  0.3544981E+03  0.7561462E-02  0.1060784E+00
          2   -1    0    0  501    0  0.00000000000E+00  0.00000000000E+00  0.50081254546E+03  0.50081254546E+03  0.00000000000E+00 0. -1.
         -2   -1    0    0    0  501 -0.00000000000E+00 -0.00000000000E+00 -0.26181275844E+03  0.26181275844E+03  0.00000000000E+00 0.  1.
         25    2    1    2    0    0 -0.80698004170E+02  0.33368145481E+03  0.16014913851E+03  0.39893579398E+03  0.12508613030E+03 0.  0.
         23    2    1    2    0    0  0.80698004170E+02 -0.33368145481E+03  0.78850648516E+02  0.36368950991E+03  0.90538133898E+02 0.  0.
          5    1    3    3  502    0 -0.97328581420E+02  0.21760816278E+03  0.62995572498E+02  0.24660105398E+03  0.41800000000E+01 0.  1.
         -5    1    3    3    0  502  0.16630577249E+02  0.11607329203E+03  0.97153566011E+02  0.15233474000E+03  0.41800000000E+01 0.  1.
        -11    1    4    4    0    0  0.41377292049E+02 -0.29567967946E+03  0.79641727938E+02  0.30900057924E+03  0.00000000000E+00 0. -1.
         11    1    4    4    0    0  0.39320712122E+02 -0.38001775348E+02 -0.79107942164E+00  0.54688930671E+02  0.00000000000E+00 0.  1.
</event>
<event>
 8    1  0.6443238E-009  0.1076572E+03  0.7561462E-02  0.1264971E+00
         -1   -1    0    0    0  501 -0.00000000000E+00  0.00000000000E+00  0.53129944634E+02  0.53129944634E+02  0.00000000000E+00 0.  1.
          1   -1    0    0  501    0  0.00000000000E+00 -0.00000000000E+00 -0.47794035186E+03  0.47794035186E+03  0.00000000000E+00 0. -1.
         25    2    1    2    0    0 -0.86959062925E+02  0.47109627283E+02 -0.33146608398E+03  0.36782905415E+03  0.12508897887E+03 0.  0.
         23    2    1    2    0    0  0.86959062925E+02 -0.47109627283E+02 -0.93344323242E+02  0.16324124235E+03  0.90295874292E+02 0.  0.
          5    1    3    3  502    0 -0.33464652722E+02  0.15657971733E+02 -0.74802449297E+01  0.37927318977E+02  0.41800000000E+01 0. -1.
         -5    1    3    3    0  502 -0.53494410203E+02  0.31451655549E+02 -0.32398583905E+03  0.32990173517E+03  0.41800000000E+01 0. -1.
        -11    1    4    4    0    0  0.93843166460E+02 -0.31689738980E+02 -0.10372317501E+03  0.14341993056E+03  0.00000000000E+00 0. -1.
         11    1    4    4    0    0 -0.68841035345E+01 -0.15419888303E+02  0.10378851772E+02  0.19821311784E+02  0.00000000000E+00 0.  1.
</event>
<event>
 8    1  0.6443238E-009  0.1184005E+03  0.7561462E-02  0.1245759E+00
          2   -1    0    0  501    0  0.00000000000E+00  0.00000000000E+00  0.78853026355E+03  0.78853026355E+03  0.00000000000E+00 0. -1.
         -2   -1    0    0    0  501 -0.00000000000E+00 -0.00000000000E+00 -0.21349490874E+02  0.21349490874E+02  0.00000000000E+00 0.  1.
         25    2    1    2    0    0 -0.10200416733E+02 -0.72965273245E+02  0.42311291348E+03  0.44732500849E+03  0.12508855291E+03 0.  0.
         23    2    1    2    0    0  0.10200416733E+02  0.72965273245E+02  0.34406785919E+03  0.36255474593E+03  0.87380046139E+02 0.  0.
          5    1    3    3  502    0  0.47856475850E+02  0.24484060024E+01  0.17695663449E+03  0.18337764276E+03  0.41800000000E+01 0.  1.
         -5    1    3    3    0  502 -0.58056892583E+02 -0.75413679248E+02  0.24615627899E+03  0.26394736573E+03  0.41800000000E+01 0.  1.
        -11    1    4    4    0    0 -0.10035804449E+02 -0.61520121605E+01  0.34246810050E+01  0.12259407186E+02  0.00000000000E+00 0.  1.
         11    1    4    4    0    0  0.20236221182E+02  0.79117285406E+02  0.34064317819E+03  0.35029533874E+03  0.00000000000E+00 0. -1.
</event>
<event>
 8    1  0.6443238E-009  0.6829321E+02  0.7561462E-02  0.1365995E+00
         -2   -1    0    0    0  501 -0.00000000000E+00  0.00000000000E+00  0.52296519268E+02  0.52296519268E+02  0.00000000000E+00 0.  1.
          2   -1    0    0  501    0  0.00000000000E+00 -0.00000000000E+00 -0.33300043771E+03  0.33300043771E+03  0.00000000000E+00 0. -1.
         25    2    1    2    0    0 -0.35519507349E+02 -0.26041400579E+02 -0.24809140022E+03  0.28131297942E+03  0.12509140490E+03 0.  0.
         23    2    1    2    0    0  0.35519507349E+02  0.26041400579E+02 -0.32612518223E+02  0.10398397756E+03  0.88370251205E+02 0.  0.
          5    1    3    3  502    0  0.18595419009E+02 -0.28892046315E+02 -0.21481222143E+03  0.21758286427E+03  0.41800000000E+01 0. -1.
         -5    1    3    3    0  502 -0.54114926358E+02  0.28506457365E+01 -0.33279178789E+02  0.63730115147E+02  0.41800000000E+01 0. -1.
        -11    1    4    4    0    0  0.74135020158E+01  0.16248733743E+02 -0.60570662233E+02  0.63148923061E+02  0.00000000000E+00 0. -1.
         11    1    4    4    0    0  0.28106005333E+02  0.97926668355E+01  0.27958144010E+02  0.40835054500E+02  0.00000000000E+00 0.  1.
</event>
<event>
 8    1  0.6443238E-009  0.1288397E+03  0.7561462E-02  0.1229188E+00
          1   -1    0    0  501    0  0.00000000000E+00  0.00000000000E+00  0.45003925829E+03  0.45003925829E+03  0.00000000000E+00 0. -1.
         -1   -1    0    0    0  501 -0.00000000000E+00 -0.00000000000E+00 -0.38922539152E+02  0.38922539152E+02  0.00000000000E+00 0.  1.
         25    2    1    2    0    0  0.54630688684E+02  0.51359721861E+02  0.23731612649E+03  0.27854706452E+03  0.12508872885E+03 0.  0.
         23    2    1    2    0    0 -0.54630688684E+02 -0.51359721861E+02  0.17380059265E+03  0.21041473292E+03  0.91898752165E+02 0.  0.
          5    1    3    3  502    0  0.71823426534E+02  0.82354960464E+02  0.19080938607E+03  0.21992416494E+03  0.41800000000E+01 0. -1.
         -5    1    3    3    0  502 -0.17192737850E+02 -0.30995238603E+02  0.46506740422E+02  0.58622899583E+02  0.41800000000E+01 0. -1.
        -11    1    4    4    0    0 -0.31512927087E+02  0.20201665727E+02  0.91868262267E+02  0.99201559885E+02  0.00000000000E+00 0. -1.
         11    1    4    4    0    0 -0.23117761597E+02 -0.71561387588E+02  0.81932330378E+02  0.11121317303E+03  0.00000000000E+00 0.  1.
</event>
<event>
 8    1  0.6443238E-009  0.9279142E+02  0.7561462E-02  0.1296229E+00
          1   -1    0    0  501    0  0.00000000000E+00  0.00000000000E+00  0.11925106506E+03  0.11925106506E+03  0.00000000000E+00 0. -1.
         -1   -1    0    0    0  501 -0.00000000000E+00 -0.00000000000E+00 -0.10665974108E+03  0.10665974108E+03  0.00000000000E+00 0.  1.
         25    2    1    2    0    0 -0.22093581040E+02  0.13029605601E+02  0.29775732703E+02  0.13111627124E+03  0.12508791061E+03 0.  0.
         23    2    1    2    0    0  0.22093581040E+02 -0.13029605601E+02 -0.17184408720E+02  0.94794534901E+02  0.89625905846E+02 0.  0.
          5    1    3    3  502    0  0.51930854247E+02  0.81344446422E+01  0.58402842883E+01  0.53052465853E+02  0.41800000000E+01 0. -1.
         -5    1    3    3    0  502 -0.74024435288E+02  0.48951609584E+01  0.23935448415E+02  0.78063805386E+02  0.41800000000E+01 0. -1.
        -11    1    4    4    0    0  0.23969795537E+02  0.16410502759E+02  0.28316829015E+02  0.40567209718E+02  0.00000000000E+00 0. -1.
         11    1    4    4    0    0 -0.18762144965E+01 -0.29440108359E+02 -0.45501237735E+02  0.54227325182E+02  0.00000000000E+00 0.  1.
</event>
<event>
 8    1  0.6443238E-009  0.1700498E+03  0.7561462E-02  0.1177796E+00
          1   -1    0    0  501    0  0.00000000000E+00  0.00000000000E+00  0.44675754469E+02  0.44675754469E+02  0.00000000000E+00 0. -1.
         -1   -1    0    0    0  501 -0.00000000000E+00 -0.00000000000E+00 -0.78381985522E+03  0.78381985522E+03  0.00000000000E+00 0.  1.
         25    2    1    2    0    0  0.14736190715E+03  0.35781318631E+02 -0.37389592321E+03  0.42242654419E+03  0.12510071701E+03 0.  0.
         23    2    1    2    0    0 -0.14736190715E+03 -0.35781318631E+02 -0.36524817754E+03  0.40606906550E+03  0.92141306256E+02 0.  0.
          5    1    3    3  502    0  0.69548549845E+02 -0.12945479048E+02 -0.28813569732E+03  0.29672249440E+03  0.41800000000E+01 0. -1.
         -5    1    3    3    0  502  0.77813357309E+02  0.48726797680E+02 -0.85760225897E+02  0.12570404979E+03  0.41800000000E+01 0. -1.
        -11    1    4    4    0    0 -0.68043376753E+02 -0.63730941884E+02 -0.19932344755E+03  0.22004856468E+03  0.00000000000E+00 0.  1.
         11    1    4    4    0    0 -0.79318530401E+02  0.27949623252E+02 -0.16592472999E+03  0.18602050082E+03  0.00000000000E+00 0. -1.
</event>
<event>
 8    1  0.6443238E-009  0.1283830E+03  0.7561462E-02  0.1229875E+00
         -1   -1    0    0    0  501 -0.00000000000E+00  0.00000000000E+00  0.43690450456E+03  0.43690450456E+03  0.00000000000E+00 0.  1.
          1   -1    0    0  501    0  0.00000000000E+00 -0.00000000000E+00 -0.66110692662E+02  0.66110692662E+02  0.00000000000E+00 0. -1.
         25    2    1    2    0    0 -0.35588659115E+02  0.11104893633E+03  0.10945057973E+03  0.20303803323E+03  0.12508634865E+03 0.  0.
         23    2    1    2    0    0  0.35588659115E+02 -0.11104893633E+03  0.26134323217E+03  0.29997716399E+03  0.89931056918E+02 0.  0.
          5    1    3    3  502    0 -0.44823788567E+02  0.32931339119E+02  0.11102643404E+03  0.12424969446E+03  0.41800000000E+01 0.  1.
         -5    1    3    3    0  502  0.92351294521E+01  0.78117597210E+02 -0.15758543088E+01  0.78788338774E+02  0.41800000000E+01 0.  1.
        -11    1    4    4    0    0  0.43229639236E+02 -0.97658750936E+02  0.26358367813E+03  0.28439829240E+03  0.00000000000E+00 0.  1.
         11    1    4    4    0    0 -0.76409801206E+01 -0.13390185394E+02 -0.22404459585E+01  0.15578871595E+02  0.00000000000E+00 0. -1.
</event>
<event>
 8    1  0.6443238E-009  0.1030534E+03  0.7561462E-02  0.1274003E+00
         -2   -1    0    0    0  501 -0.00000000000E+00  0.00000000000E+00  0.15482242397E+02  0.15482242397E+02  0.00000000000E+00 0.  1.
          2   -1    0    0  501    0  0.00000000000E+00 -0.00000000000E+00 -0.82097595133E+03  0.82097595133E+03  0.00000000000E+00 0. -1.
         25    2    1    2    0    0 -0.28148167022E+02  0.56643713867E+01 -0.53216460324E+03  0.54742064476E+03  0.12508314420E+03 0.  0.
         23    2    1    2    0    0  0.28148167022E+02 -0.56643713867E+01 -0.27332910569E+03  0.28903754896E+03  0.89495811529E+02 0.  0.
          5    1    3    3  502    0 -0.51732235800E+02  0.53463348781E+02 -0.32981157724E+03  0.33812379799E+03  0.41800000000E+01 0.  1.
         -5    1    3    3    0  502  0.23584068778E+02 -0.47798977394E+02 -0.20235302600E+03  0.20929684678E+03  0.41800000000E+01 0.  1.
        -11    1    4    4    0    0  0.60885875866E+01 -0.38276840486E+02 -0.55591194241E+02  0.67768490418E+02  0.00000000000E+00 0.  1.
         11    1    4    4    0    0  0.22059579436E+02  0.32612469099E+02 -0.21773791145E+03  0.22126905854E+03  0.00000000000E+00 0. -1.
</event>
<event>
 8    1  0.6443238E-009  0.1148854E+03  0.7561462E-02  0.1251781E+00
         -3   -1    0    0    0  501 -0.00000000000E+00  0.00000000000E+00  0.18915526961E+03  0.18915526961E+03  0.00000000000E+00 0.  1.
          3   -1    0    0  501    0  0.00000000000E+00 -0.00000000000E+00 -0.10664763206E+03  0.10664763206E+03  0.00000000000E+00 0. -1.
         25    2    1    2    0    0  0.41084406794E+02  0.19455581861E+02 -0.37701350526E+02  0.13832959024E+03  0.12508891061E+03 0.  0.
         23    2    1    2    0    0 -0.41084406794E+02 -0.19455581861E+02  0.12020898808E+03  0.15747331142E+03  0.91001070597E+02 0.  0.
          5    1    3    3  502    0 -0.25412540442E+02  0.50438726792E+02 -0.30954374201E+02  0.64540747240E+02  0.41800000000E+01 0. -1.
         -5    1    3    3    0  502  0.66496947236E+02 -0.30983144932E+02 -0.67469763249E+01  0.73788842999E+02  0.41800000000E+01 0. -1.
        -11    1    4    4    0    0 -0.66677462242E+02 -0.28500692326E+02  0.10049672780E+03  0.12392645292E+03  0.00000000000E+00 0.  1.
         11    1    4    4    0    0  0.25593055448E+02  0.90451104650E+01  0.19712260273E+02  0.33546858506E+02  0.00000000000E+00 0. -1.
</event>
<event>
 8    1  0.6443238E-009  0.7578707E+02  0.7561462E-02  0.1341451E+00
          1   -1    0    0  501    0  0.00000000000E+00  0.00000000000E+00  0.44766942426E+03  0.44766942426E+03  0.00000000000E+00 0. -1.
         -1   -1    0    0    0  501 -0.00000000000E+00 -0.00000000000E+00 -0.36323322406E+02  0.36323322406E+02  0.00000000000E+00 0.  1.
         25    2    1    2    0    0 -0.52923927935E+02  0.10836489245E+02  0.15671485641E+03  0.20766940110E+03  0.12509461333E+03 0.  0.
         23    2    1    2    0    0  0.52923927935E+02 -0.10836489245E+02  0.25463124544E+03  0.27632334557E+03  0.92731593895E+02 0.  0.
          5    1    3    3  502    0 -0.60934030181E+01  0.27959265512E+02 -0.12282870528E+02  0.31419602109E+02  0.41800000000E+01 0. -1.
         -5    1    3    3    0  502 -0.46830524917E+02 -0.17122776267E+02  0.16899772694E+03  0.17624979899E+03  0.41800000000E+01 0. -1.
        -11    1    4    4    0    0  0.34622123943E+02 -0.30222134777E+02  0.24287752361E+03  0.24718729816E+03  0.00000000000E+00 0. -1.
         11    1    4    4    0    0  0.18301803992E+02  0.19385645532E+02  0.11753721835E+02  0.29136047416E+02  0.00000000000E+00 0.  1.
</event>
<event>
 8    1  0.6443238E-009  0.1400624E+03  0.7561462E-02  0.1213245E+00
          3   -1    0    0  501    0  0.00000000000E+00  0.00000000000E+00  0.15569270160E+03  0.15569270160E+03  0.00000000000E+00 0. -1.
         -3   -1    0    0    0  501 -0.00000000000E+00 -0.00000000000E+00 -0.16028937940E+03  0.16028937940E+03  0.00000000000E+00 0.  1.
         25    2    1    2    0    0 -0.24481229137E+02  0.11284161972E+03  0.50298060939E+01  0.17030450478E+03  0.12508302713E+03 0.  0.
         23    2    1    2    0    0  0.24481229137E+02 -0.11284161972E+03 -0.96264838893E+01  0.14567757622E+03  0.88299067385E+02 0.  0.
          5    1    3    3  502    0  0.31328122942E+02  0.28914860894E+02  0.44697355676E+02  0.61909986852E+02  0.41800000000E+01 0. -1.
         -5    1    3    3    0  502 -0.55809352078E+02  0.83926758825E+02 -0.39667549582E+02  0.10839451793E+03  0.41800000000E+01 0. -1.
        -11    1    4    4    0    0  0.50426507005E+02 -0.79874513230E+02  0.17015431237E+02  0.95980703126E+02  0.00000000000E+00 0. -1.
         11    1    4    4    0    0 -0.25945277868E+02 -0.32967106490E+02 -0.26641915126E+02  0.49696873097E+02  0.00000000000E+00 0.  1.
</event>
<event>
 8    1  0.6443238E-009  0.9712462E+02  0.7561462E-02  0.1286461E+00
         -3   -1    0    0    0  501 -0.00000000000E+00  0.00000000000E+00  0.34399062672E+03  0.34399062672E+03  0.00000000000E+00 0.  1.
          3   -1    0    0  501    0  0.00000000000E+00 -0.00000000000E+00 -0.41868701831E+02  0.41868701831E+02  0.00000000000E+00 0. -1.
         25    2    1    2    0    0  0.39726751080E+02 -0.26942743928E+02  0.15117296012E+03  0.20200842144E+03  0.12510000903E+03 0.  0.
         23    2    1    2    0    0 -0.39726751080E+02  0.26942743928E+02  0.15094896477E+03  0.18385090711E+03  0.93335094572E+02 0.  0.
          5    1    3    3  502    0  0.50694435850E+02  0.18556826196E+02  0.12471152953E+02  0.55563330359E+02  0.41800000000E+01 0.  1.
         -5    1    3    3    0  502 -0.10967684770E+02 -0.45499570124E+02  0.13870180716E+03  0.14644509108E+03  0.41800000000E+01 0.  1.
        -11    1    4    4    0    0  0.23808436368E+02  0.15892817576E+02  0.92456918253E+02  0.96786905239E+02  0.00000000000E+00 0.  1.
         11    1    4    4    0    0 -0.63535187448E+02  0.11049926352E+02  0.58492046519E+02  0.87064001875E+02  0.00000000000E+00 0. -1.
</event>
<event>
 8    1  0.6443238E-009  0.8605966E+02  0.7561462E-02  0.1312684E+00
          2   -1    0    0  501    0  0.00000000000E+00  0.00000000000E+00  0.16973705155E+03  0.16973705155E+03  0.00000000000E+00 0. -1.
         -2   -1    0    0    0  501 -0.00000000000E+00 -0.00000000000E+00 -0.81339092217E+02  0.81339092217E+02  0.00000000000E+00 0.  1.
         25    2    1    2    0    0  0.61895553313E+01  0.28305271173E+02  0.94776199095E+02  0.15955596016E+03  0.12504430230E+03 0.  0.
         23    2    1    2    0    0 -0.61895553313E+01 -0.28305271173E+02 -0.63782397578E+01  0.91520183609E+02  0.86578075135E+02 0.  0.
          5    1    3    3  502    0  0.64644246933E+02  0.45329923173E+01  0.52208329142E+02  0.83322318214E+02  0.41800000000E+01 0.  1.
         -5    1    3    3    0  502 -0.58454691601E+02  0.23772278856E+02  0.42567869954E+02  0.76233641948E+02  0.41800000000E+01 0.  1.
        -11    1    4    4    0    0 -0.19237374965E+02 -0.22655602515E+02  0.36079528150E+02  0.46744895683E+02  0.00000000000E+00 0. -1.
         11    1    4    4    0    0  0.13047819634E+02 -0.56496686580E+01 -0.42457767908E+02  0.44775287926E+02  0.00000000000E+00 0.  1.
</event>
<event>
 8    1  0.6443238E-009  0.1861927E+03  0.7561462E-02  0.1161941E+00
          2   -1    0    0  501    0  0.00000000000E+00  0.00000000000E+00  0.98315148686E+03  0.98315148686E+03  0.00000000000E+00 0.  1.
         -2   -1    0    0    0  501 -0.00000000000E+00 -0.00000000000E+00 -0.40325443109E+02  0.40325443109E+02  0.00000000000E+00 0. -1.
         25    2    1    2    0    0 -0.86699062072E+02  0.12210270996E+03  0.66781851280E+03  0.69574363167E+03  0.12510729728E+03 0.  0.
         23    2    1    2    0    0  0.86699062072E+02 -0.12210270996E+03  0.27500753095E+03  0.32773329830E+03  0.96716976726E+02 0.  0.
          5    1    3    3  502    0 -0.92146352360E+02  0.23384241554E+02  0.36294047008E+03  0.37520798262E+03  0.41800000000E+01 0.  1.
         -5    1    3    3    0  502  0.54472902886E+01  0.98718468409E+02  0.30487804272E+03  0.32053564905E+03  0.41800000000E+01 0.  1.
        -11    1    4    4    0    0 -0.11108068329E+01 -0.81532870986E+02  0.12571093123E+03  0.14984018545E+03  0.00000000000E+00 0.  1.
         11    1    4    4    0    0  0.87809868905E+02 -0.40569838977E+02  0.14929659972E+03  0.17789311285E+03  0.00000000000E+00 0. -1.
</event>
<event>
 8    1  0.6443238E-009  0.8444669E+02  0.7561462E-02  0.1316886E+00
         -1   -1    0    0    0  501 -0.00000000000E+00  0.00000000000E+00  0.47254417823E+02  0.47254417823E+02  0.00000000000E+00 0.  1.
          1   -1    0    0  501    0  0.00000000000E+00 -0.00000000000E+00 -0.31959957311E+03  0.31959957311E+03  0.00000000000E+00 0. -1.
         25    2    1    2    0    0  0.30093306254E+02  0.48280396513E+02 -0.13791919425E+03  0.19467728473E+03  0.12506373287E+03 0.  0.
         23    2    1    2    0    0 -0.30093306254E+02 -0.48280396513E+02 -0.13442596104E+03  0.17217670620E+03  0.91311967391E+02 0.  0.
          5    1    3    3  502    0 -0.11861286871E+02  0.58990623020E+02 -0.13861606471E+03  0.15117033282E+03  0.41800000000E+01 0.  1.
         -5    1    3    3    0  502  0.41954593125E+02 -0.10710226506E+02  0.69687045708E+00  0.43506951910E+02  0.41800000000E+01 0.  1.
        -11    1    4    4    0    0 -0.99143268899E+01 -0.43123094889E+02 -0.91538921322E+01  0.45185052082E+02  0.00000000000E+00 0.  1.
         11    1    4    4    0    0 -0.20178979364E+02 -0.51573016243E+01 -0.12527206891E+03  0.12699165412E+03  0.00000000000E+00 0. -1.
</event>
<event>
 8    1  0.6443238E-009  0.1297448E+03  0.7561462E-02  0.1227835E+00
         -2   -1    0    0    0  501 -0.00000000000E+00  0.00000000000E+00  0.51313968764E+03  0.51313968764E+03  0.00000000000E+00 0.  1.
          2   -1    0    0  501    0  0.00000000000E+00 -0.00000000000E+00 -0.42639169202E+02  0.42639169202E+02  0.00000000000E+00 0. -1.
         25    2    1    2    0    0  0.55217817662E+02  0.50423328817E+02  0.12888141983E+03  0.19455056504E+03  0.12509189623E+03 0.  0.
         23    2    1    2    0    0 -0.55217817662E+02 -0.50423328817E+02  0.34161909860E+03  0.36122829180E+03  0.90502766760E+02 0.  0.
          5    1    3    3  502    0  0.82801283284E+02 -0.25006789896E+01  0.55175314296E+02  0.99619745114E+02  0.41800000000E+01 0.  1.
         -5    1    3    3    0  502 -0.27583465622E+02  0.52924007806E+02  0.73706105537E+02  0.94930819924E+02  0.41800000000E+01 0.  1.
        -11    1    4    4    0    0  0.67427894088E+01  0.21063507470E+02  0.81223864581E+02  0.84181071111E+02  0.00000000000E+00 0. -1.
         11    1    4    4    0    0 -0.61960607071E+02 -0.71486836287E+02  0.26039523402E+03  0.27704722069E+03  0.00000000000E+00 0.  1.
</event>
<event>
 8    1  0.6443238E-009  0.1097353E+03  0.7561462E-02  0.1261061E+00
          1   -1    0    0  501    0  0.00000000000E+00  0.00000000000E+00  0.55333180957E+03  0.55333180957E+03  0.00000000000E+00 0. -1.
         -1   -1    0    0    0  501 -0.00000000000E+00 -0.00000000000E+00 -0.26500775979E+02  0.26500775979E+02  0.00000000000E+00 0.  1.
         25    2    1    2    0    0  0.18123960426E+02 -0.40529338831E+02  0.22047196928E+03  0.25734465988E+03  0.12508908619E+03 0.  0.
         23    2    1    2    0    0 -0.18123960426E+02  0.40529338831E+02  0.30635906431E+03  0.32248792567E+03  0.90396242561E+02 0.  0.
          5    1    3    3  502    0  0.44750757749E+02  0.31962501472E+02  0.99503611081E+02  0.11376586851E+03  0.41800000000E+01 0.  1.
         -5    1    3    3    0  502 -0.26626797323E+02 -0.72491840303E+02  0.12096835820E+03  0.14357879137E+03  0.41800000000E+01 0.  1.
        -11    1    4    4    0    0  0.14618490956E+02 -0.15986831325E+02  0.22587708001E+02  0.31296702804E+02  0.00000000000E+00 0.  1.
         11    1    4    4    0    0 -0.32742451382E+02  0.56516170157E+02  0.28377135631E+03  0.29119122286E+03  0.00000000000E+00 0. -1.
</event>
<event>
 8    1  0.6443238E-009  0.1041594E+03  0.7561462E-02  0.1271785E+00
          2   -1    0    0  501    0  0.00000000000E+00  0.00000000000E+00  0.21468180502E+02  0.21468180502E+02  0.00000000000E+00 0. -1.
         -2   -1    0    0    0  501 -0.00000000000E+00 -0.00000000000E+00 -0.64487655449E+03  0.64487655449E+03  0.00000000000E+00 0.  1.
         25    2    1    2    0    0 -0.60861531283E+01  0.17118285454E+02 -0.23356083945E+03  0.26557049473E+03  0.12508774916E+03 0.  0.
         23    2    1    2    0    0  0.60861531283E+01 -0.17118285454E+02 -0.38984753454E+03  0.40077424026E+03  0.91152698898E+02 0.  0.
          5    1    3    3  502    0  0.42738818468E+02  0.42510840680E+02 -0.17482259992E+03  0.18497078694E+03  0.41800000000E+01 0. -1.
         -5    1    3    3    0  502 -0.48824971596E+02 -0.25392555225E+02 -0.58738239531E+02  0.80599707788E+02  0.41800000000E+01 0. -1.
        -11    1    4    4    0    0 -0.41852897467E+02 -0.15825389590E+02 -0.20271494353E+03  0.20759445154E+03  0.00000000000E+00 0. -1.
         11    1    4    4    0    0  0.47939050595E+02 -0.12928958647E+01 -0.18713259101E+03  0.19317978872E+03  0.00000000000E+00 0.  1.
</event>
<event>
 8    1  0.6443238E-009  0.1074044E+03  0.7561462E-02  0.1265453E+00
         -1   -1    0    0    0  501 -0.00000000000E+00  0.00000000000E+00  0.34868859617E+02  0.34868859617E+02  0.00000000000E+00 0. -1.
          1   -1    0    0  501    0  0.00000000000E+00 -0.00000000000E+00 -0.74635083004E+03  0.74635083004E+03  0.00000000000E+00 0.  1.
         25    2    1    2    0    0 -0.13428547736E+02 -0.22489673401E+02 -0.66335010495E+03  0.67554968626E+03  0.12509158870E+03 0.  0.
         23    2    1    2    0    0  0.13428547736E+02  0.22489673401E+02 -0.48131865475E+02  0.10567000340E+03  0.90351324508E+02 0.  0.
          5    1    3    3  502    0  0.42804640403E+02  0.28645249113E+02 -0.26431699099E+03  0.26932087120E+03  0.41800000000E+01 0.  1.
         -5    1    3    3    0  502 -0.56233188140E+02 -0.51134922514E+02 -0.39903311396E+03  0.40622881506E+03  0.41800000000E+01 0.  1.
        -11    1    4    4    0    0 -0.35301145931E+02  0.10510449782E+02 -0.40784108560E+02  0.54954380806E+02  0.00000000000E+00 0. -1.
         11    1    4    4    0    0  0.48729693668E+02  0.11979223619E+02 -0.73477569151E+01  0.50715622594E+02  0.00000000000E+00 0.  1.
</event>
<event>
 8    1  0.6443238E-009  0.1460242E+03  0.7561462E-02  0.1205445E+00
         -1   -1    0    0    0  501 -0.00000000000E+00  0.00000000000E+00  0.82302914276E+03  0.82302914276E+03  0.00000000000E+00 0.  1.
          1   -1    0    0  501    0  0.00000000000E+00 -0.00000000000E+00 -0.35500440522E+02  0.35500440522E+02  0.00000000000E+00 0. -1.
         25    2    1    2    0    0 -0.13107814157E+03 -0.23654032788E+02  0.41871576346E+03  0.45684896473E+03  0.12508834294E+03 0.  0.
         23    2    1    2    0    0  0.13107814157E+03  0.23654032788E+02  0.36881293878E+03  0.40168061855E+03  0.87082392281E+02 0.  0.
          5    1    3    3  502    0 -0.18006411888E+02 -0.40258255283E+02  0.24430191051E+03  0.24828583098E+03  0.41800000000E+01 0. -1.
         -5    1    3    3    0  502 -0.11307172968E+03  0.16604222495E+02  0.17441385295E+03  0.20856313375E+03  0.41800000000E+01 0. -1.
        -11    1    4    4    0    0  0.87417075512E+02  0.12327105807E+02  0.12092130988E+03  0.14971862213E+03  0.00000000000E+00 0. -1.
         11    1    4    4    0    0  0.43661066058E+02  0.11326926981E+02  0.24789162890E+03  0.25196199643E+03  0.00000000000E+00 0.  1.
</event>
<event>
 8    1  0.6443238E-009  0.1581718E+03  0.7561462E-02  0.1190776E+00
          1   -1    0    0  501    0  0.00000000000E+00  0.00000000000E+00  0.86444001579E+02  0.86444001579E+02  0.00000000000E+00 0. -1.
         -1   -1    0    0    0  501 -0.00000000000E+00 -0.00000000000E+00 -0.37320462889E+03  0.37320462889E+03  0.00000000000E+00 0.  1.
         25    2    1    2    0    0  0.51480483396E+02 -0.13161184670E+03 -0.12516925359E+03  0.22646824362E+03  0.12509438423E+03 0.  0.
         23    2    1    2    0    0 -0.51480483396E+02  0.13161184670E+03 -0.16159137373E+03  0.23318038685E+03  0.91046155244E+02 0.  0.
          5    1    3    3  502    0 -0.16214871028E+02 -0.11948525781E+02  0.18431278800E+02  0.27620169243E+02  0.41800000000E+01 0. -1.
         -5    1    3    3    0  502  0.67695354424E+02 -0.11966332092E+03 -0.14360053239E+03  0.19884807438E+03  0.41800000000E+01 0. -1.
        -11    1    4    4    0    0 -0.41901111592E+02  0.20403883332E+02 -0.87714029281E+02  0.99326595333E+02  0.00000000000E+00 0.  1.
         11    1    4    4    0    0 -0.95793718037E+01  0.11120796337E+03 -0.73877344447E+02  0.13385379151E+03  0.00000000000E+00 0. -1.
</event>
<event>
 8    1  0.6443238E-009  0.1159548E+03  0.7561462E-02  0.1249924E+00
         -1   -1    0    0    0  501 -0.00000000000E+00  0.00000000000E+00  0.65405570890E+02  0.65405570890E+02  0.00000000000E+00 0.  1.
          1   -1    0    0  501    0  0.00000000000E+00 -0.00000000000E+00 -0.21154029619E+03  0.21154029619E+03  0.00000000000E+00 0. -1.
         25    2    1    2    0    0  0.31441721331E+02 -0.25028610043E+02 -0.59904930970E+02  0.14436643518E+03  0.12505220387E+03 0.  0.
         23    2    1    2    0    0 -0.31441721331E+02  0.25028610043E+02 -0.86229794328E+02  0.13257943189E+03  0.92340214265E+02 0.  0.
          5    1    3    3  502    0  0.85931925841E+01  0.50972158520E+02 -0.22433773383E+02  0.56504428952E+02  0.41800000000E+01 0. -1.
         -5    1    3    3    0  502  0.22848528747E+02 -0.76000768563E+02 -0.37471157587E+02  0.87862006231E+02  0.41800000000E+01 0. -1.
        -11    1    4    4    0    0 -0.40261531792E+02  0.55664107941E+02 -0.55750096548E+02  0.88473482582E+02  0.00000000000E+00 0.  1.
         11    1    4    4    0    0  0.88198104611E+01 -0.30635497897E+02 -0.30479697779E+02  0.44105949312E+02  0.00000000000E+00 0. -1.
</event>
<event>
 8    1  0.6443238E-009  0.2463045E+03  0.7561462E-02  0.1115663E+00
         -2   -1    0    0    0  501 -0.00000000000E+00  0.00000000000E+00  0.85715585137E+02  0.85715585137E+02  0.00000000000E+00 0.  1.
          2   -1    0    0  501    0  0.00000000000E+00 -0.00000000000E+00 -0.11192428112E+04  0.11192428112E+04  0.00000000000E+00 0. -1.
         25    2    1    2    0    0 -0.23673024260E+03  0.95539200678E+00 -0.20260790140E+03  0.33576725596E+03  0.12509023916E+03 0.  0.
         23    2    1    2    0    0  0.23673024260E+03 -0.95539200678E+00 -0.83091932462E+03  0.86919114033E+03  0.94995757124E+02 0.  0.
          5    1    3    3  502    0 -0.93277486405E+02 -0.87110898751E+01 -0.16050660162E+03  0.18589355589E+03  0.41800000000E+01 0. -1.
         -5    1    3    3    0  502 -0.14345275619E+03  0.96664818819E+01 -0.42101299779E+02  0.14987370007E+03  0.41800000000E+01 0. -1.
        -11    1    4    4    0    0  0.42719730804E+02  0.37925389862E+02 -0.17681374511E+03  0.18581283878E+03  0.00000000000E+00 0.  1.
         11    1    4    4    0    0  0.19401051179E+03 -0.38880781869E+02 -0.65410557951E+03  0.68337830155E+03  0.00000000000E+00 0. -1.
</event>
<event>
 8    1  0.6443238E-009  0.9804294E+02  0.7561462E-02  0.1284466E+00
         -1   -1    0    0    0  501 -0.00000000000E+00  0.00000000000E+00  0.55415489123E+03  0.55415489123E+03  0.00000000000E+00 0.  1.
          1   -1    0    0  501    0  0.00000000000E+00 -0.00000000000E+00 -0.19094556485E+02  0.19094556485E+02  0.00000000000E+00 0. -1.
         25    2    1    2    0    0 -0.16938491730E+02  0.59921698338E+00  0.34332785021E+03  0.36579820782E+03  0.12508814714E+03 0.  0.
         23    2    1    2    0    0  0.16938491730E+02 -0.59921698338E+00  0.19173248454E+03  0.20745123989E+03  0.77378289867E+02 0.  0.
          5    1    3    3  502    0 -0.80832789698E+01 -0.61589093011E+02  0.14753261309E+03  0.16013088428E+03  0.41800000000E+01 0.  1.
         -5    1    3    3    0  502 -0.88552127600E+01  0.62188309994E+02  0.19579523712E+03  0.20566732354E+03  0.41800000000E+01 0.  1.
        -11    1    4    4    0    0 -0.22331215959E+02 -0.17251817295E+02  0.34684672583E+02  0.44713923093E+02  0.00000000000E+00 0. -1.
         11    1    4    4    0    0  0.39269707689E+02  0.16652600312E+02  0.15704781196E+03  0.16273731680E+03  0.00000000000E+00 0.  1.
</event>
<event>
 8    1  0.6443238E-009  0.1104377E+03  0.7561462E-02  0.1259762E+00
         -3   -1    0    0    0  501 -0.00000000000E+00  0.00000000000E+00  0.23330487640E+02  0.23330487640E+02  0.00000000000E+00 0.  1.
          3   -1    0    0  501    0  0.00000000000E+00 -0.00000000000E+00 -0.53472072284E+03  0.53472072284E+03  0.00000000000E+00 0. -1.
         25    2    1    2    0    0  0.42028432860E+02  0.30526638594E+01 -0.32688409597E+03  0.35253022633E+03  0.12509452567E+03 0.  0.
         23    2    1    2    0    0 -0.42028432860E+02 -0.30526638594E+01 -0.18450613923E+03  0.20552098415E+03  0.80128968468E+02 0.  0.
          5    1    3    3  502    0 -0.43367763921E+02 -0.10507667562E+02 -0.95850789917E+02  0.10581124871E+03  0.41800000000E+01 0.  1.
         -5    1    3    3    0  502  0.85396196781E+02  0.13560331421E+02 -0.23103330605E+03  0.24671897762E+03  0.41800000000E+01 0.  1.
        -11    1    4    4    0    0 -0.64876124327E+02  0.54665735656E+01 -0.11937599283E+03  0.13597581622E+03  0.00000000000E+00 0. -1.
         11    1    4    4    0    0  0.22847691467E+02 -0.85192374250E+01 -0.65130146402E+02  0.69545167927E+02  0.00000000000E+00 0.  1.
</event>
<event>
 8    1  0.6443238E-009  0.1238221E+03  0.7561462E-02  0.1236922E+00
          2   -1    0    0  501    0  0.00000000000E+00  0.00000000000E+00  0.38538731065E+03  0.38538731065E+03  0.00000000000E+00 0. -1.
         -2   -1    0    0    0  501 -0.00000000000E+00 -0.00000000000E+00 -0.41925007691E+02  0.41925007691E+02  0.00000000000E+00 0.  1.
         25    2    1    2    0    0  0.11586501876E+02 -0.64156855860E+02  0.20704859750E+03  0.25053089181E+03  0.12508499849E+03 0.  0.
         23    2    1    2    0    0 -0.11586501876E+02  0.64156855860E+02  0.13641370546E+03  0.17678142653E+03  0.91611268677E+02 0.  0.
          5    1    3    3  502    0 -0.45193472064E+02  0.72174970727E+01  0.43799959537E+02  0.63485833354E+02  0.41800000000E+01 0. -1.
         -5    1    3    3    0  502  0.56779973940E+02 -0.71374352933E+02  0.16324863796E+03  0.18704505846E+03  0.41800000000E+01 0. -1.
        -11    1    4    4    0    0  0.38196322657E+02  0.39076424989E+02  0.84367336481E+02  0.10051752842E+03  0.00000000000E+00 0.  1.
         11    1    4    4    0    0 -0.49782824532E+02  0.25080430871E+02  0.52046368978E+02  0.76263898110E+02  0.00000000000E+00 0. -1.
</event>
<event>
 8    1  0.6443238E-009  0.1288198E+03  0.7561462E-02  0.1229218E+00
         -2   -1    0    0    0  501 -0.00000000000E+00  0.00000000000E+00  0.33211405604E+02  0.33211405604E+02  0.00000000000E+00 0.  1.
          2   -1    0    0  501    0  0.00000000000E+00 -0.00000000000E+00 -0.10684106362E+04  0.10684106362E+04  0.00000000000E+00 0. -1.
         25    2    1    2    0    0 -0.33197683446E+02 -0.10713532300E+03 -0.23392395656E+03  0.28801762025E+03  0.12511462145E+03 0.  0.
         23    2    1    2    0    0  0.33197683446E+02  0.10713532300E+03 -0.80127527405E+03  0.81360442157E+03  0.85615573220E+02 0.  0.
          5    1    3    3  502    0 -0.35827036948E+01 -0.65056891078E+02 -0.22667021291E+03  0.23588576190E+03  0.41800000000E+01 0. -1.
         -5    1    3    3    0  502 -0.29614979752E+02 -0.42078431920E+02 -0.72537436483E+01  0.52131858354E+02  0.41800000000E+01 0. -1.
        -11    1    4    4    0    0  0.28670709363E+02 -0.44796999283E+01 -0.14238314341E+03  0.14531014010E+03  0.00000000000E+00 0.  1.
         11    1    4    4    0    0  0.45269740838E+01  0.11161502293E+03 -0.65889213063E+03  0.66829428147E+03  0.00000000000E+00 0. -1.
</event>
<event>
 8    1  0.6443238E-009  0.1512326E+03  0.7561462E-02  0.1198967E+00
         -1   -1    0    0    0  501 -0.00000000000E+00  0.00000000000E+00  0.11618911727E+03  0.11618911727E+03  0.00000000000E+00 0.  1.
          1   -1    0    0  501    0  0.00000000000E+00 -0.00000000000E+00 -0.29820440938E+03  0.29820440938E+03  0.00000000000E+00 0. -1.
         25    2    1    2    0    0 -0.11398851829E+03 -0.98541505560E+01 -0.20467986188E+03  0.26577156520E+03  0.12510072912E+03 0.  0.
         23    2    1    2    0    0  0.11398851829E+03  0.98541505560E+01  0.22664569761E+02  0.14862196144E+03  0.92110358354E+02 0.  0.
          5    1    3    3  502    0 -0.60540069735E+02 -0.62717088768E+02 -0.14689198104E+03  0.17086035163E+03  0.41800000000E+01 0.  1.
         -5    1    3    3    0  502 -0.53448448555E+02  0.52862938212E+02 -0.57787880841E+02  0.94911213571E+02  0.41800000000E+01 0.  1.
        -11    1    4    4    0    0 -0.32303672390E+01  0.21837222000E+02  0.21458749125E+02  0.30785994400E+02  0.00000000000E+00 0.  1.
         11    1    4    4    0    0  0.11721888553E+03 -0.11983071444E+02  0.12058206355E+01  0.11783596704E+03  0.00000000000E+00 0. -1.
</event>
<event>
 8    1  0.6443238E-009  0.1155612E+03  0.7561462E-02  0.1250605E+00
          2   -1    0    0  501    0  0.00000000000E+00  0.00000000000E+00  0.22664468581E+03  0.22664468581E+03  0.00000000000E+00 0. -1.
         -2   -1    0    0    0  501 -0.00000000000E+00 -0.00000000000E+00 -0.92699133424E+02  0.92699133424E+02  0.00000000000E+00 0.  1.
         25    2    1    2    0    0 -0.57507160020E+02  0.35499827023E+02  0.14734115312E+03  0.20475528092E+03  0.12509196014E+03 0.  0.
         23    2    1    2    0    0  0.57507160020E+02 -0.35499827023E+02 -0.13395600729E+02  0.11458853832E+03  0.91562982816E+02 0.  0.
          5    1    3    3  502    0 -0.65429821104E+01 -0.32649333775E+02  0.10376652591E+03  0.10905848848E+03  0.41800000000E+01 0.  1.
         -5    1    3    3    0  502 -0.50964177909E+02  0.68149160798E+02  0.43574627214E+02  0.95696792445E+02  0.41800000000E+01 0.  1.
        -11    1    4    4    0    0  0.20391163925E+02  0.30472516155E+02 -0.12966450292E+02  0.38890906909E+02  0.00000000000E+00 0. -1.
         11    1    4    4    0    0  0.37115996094E+02 -0.65972343177E+02 -0.42915043670E+00  0.75697631406E+02  0.00000000000E+00 0.  1.
</event>
<event>
 8    1  0.6443238E-009  0.8707649E+02  0.7561462E-02  0.1310090E+00
          2   -1    0    0  501    0  0.00000000000E+00  0.00000000000E+00  0.79739839541E+02  0.79739839541E+02  0.00000000000E+00 0. -1.
         -2   -1    0    0    0  501 -0.00000000000E+00 -0.00000000000E+00 -0.31874740787E+03  0.31874740787E+03  0.00000000000E+00 0.  1.
         25    2    1    2    0    0 -0.36527526063E+02  0.63772308151E+02 -0.23562913359E+03  0.27671181632E+03  0.12508866155E+03 0.  0.
         23    2    1    2    0    0  0.36527526063E+02 -0.63772308151E+02 -0.33784347365E+01  0.12177543109E+03  0.97039550431E+02 0.  0.
          5    1    3    3  502    0 -0.45868858064E+01 -0.69484018907E+01  0.13128541823E+02  0.16098162026E+02  0.41800000000E+01 0. -1.
         -5    1    3    3    0  502 -0.31940640256E+02  0.70720710042E+02 -0.24875767541E+03  0.26061365429E+03  0.41800000000E+01 0. -1.
        -11    1    4    4    0    0 -0.33131010489E+01 -0.41202919578E+02  0.40848955635E+02  0.58114493862E+02  0.00000000000E+00 0. -1.
         11    1    4    4    0    0  0.39840627112E+02 -0.22569388573E+02 -0.44227390372E+02  0.63660937225E+02  0.00000000000E+00 0.  1.
</event>
<event>
 8    1  0.6443238E-009  0.1241810E+03  0.7561462E-02  0.1236355E+00
          1   -1    0    0  501    0  0.00000000000E+00  0.00000000000E+00  0.78510757490E+02  0.78510757490E+02  0.00000000000E+00 0. -1.
         -1   -1    0    0    0  501 -0.00000000000E+00 -0.00000000000E+00 -0.29458587815E+03  0.29458587815E+03  0.00000000000E+00 0.  1.
         25    2    1    2    0    0 -0.90396702713E+01 -0.10316260002E+03 -0.15677537630E+03  0.22572199955E+03  0.12509062629E+03 0.  0.
         23    2    1    2    0    0  0.90396702713E+01  0.10316260002E+03 -0.59299744362E+02  0.14737463609E+03  0.86478818207E+02 0.  0.
          5    1    3    3  502    0 -0.30267094736E+02 -0.41533105860E+01  0.83774780976E+01  0.31953114901E+02  0.41800000000E+01 0.  1.
         -5    1    3    3    0  502  0.21227424465E+02 -0.99009289437E+02 -0.16515285440E+03  0.19376888465E+03  0.41800000000E+01 0.  1.
        -11    1    4    4    0    0  0.31151968734E+02  0.64879437124E+02 -0.71563931726E+02  0.10149474293E+03  0.00000000000E+00 0.  1.
         11    1    4    4    0    0 -0.22112298463E+02  0.38283162899E+02  0.12264187364E+02  0.45879893162E+02  0.00000000000E+00 0. -1.
</event>
<event>
 7    1  0.6443238E-009  0.1736228E+03  0.7561462E-02  0.1174122E+00
         -1   -1    0    0    0  501 -0.00000000000E+00  0.00000000000E+00  0.89943061762E+02  0.89943061762E+02  0.00000000000E+00 0.  1.
          1   -1    0    0  501    0  0.00000000000E+00 -0.00000000000E+00 -0.37003073860E+03  0.37003073860E+03  0.00000000000E+00 0. -1.
         23    2    1    2    0    0  0.79043872695E+01 -0.14576641701E+03 -0.16139092572E+03  0.23428948913E+03  0.86799804990E+02 0.  0.
          5    1    1    2  502    0 -0.14750894881E+02 -0.17432766933E+02  0.84033255314E+00  0.23230773158E+02  0.41800000000E+01 0.  1.
         -5    1    1    2    0  502  0.68465076117E+01  0.16319918394E+03 -0.11953708367E+03  0.20245353807E+03  0.41800000000E+01 0.  1.
        -11    1    3    3    0    0 -0.12672684927E+02 -0.13809204366E+03 -0.16077776144E+03  0.21231933035E+03  0.00000000000E+00 0. -1.
         11    1    3    3    0    0  0.20577072196E+02 -0.76743733437E+01 -0.61316428123E+00  0.21970158780E+02  0.00000000000E+00 0.  1.
</event>
<event>
 8    1  0.6443238E-009  0.9891356E+02  0.7561462E-02  0.1282597E+00
          1   -1    0    0  501    0  0.00000000000E+00  0.00000000000E+00  0.75043890833E+03  0.75043890833E+03  0.00000000000E+00 0. -1.
         -1   -1    0    0    0  501 -0.00000000000E+00 -0.00000000000E+00 -0.29037236475E+02  0.29037236475E+02  0.00000000000E+00 0.  1.
         25    2    1    2    0    0 -0.45628178207E+02  0.58161041851E+02  0.56435374020E+03  0.58275780843E+03  0.12508749646E+03 0.  0.
         23    2    1    2    0    0  0.45628178207E+02 -0.58161041851E+02  0.15704793165E+03  0.19671833638E+03  0.92571127215E+02 0.  0.
          5    1    3    3  502    0 -0.30330813493E+02 -0.22850289372E+01  0.46071099700E+03  0.46173290414E+03  0.41800000000E+01 0. -1.
         -5    1    3    3    0  502 -0.15297364714E+02  0.60446070789E+02  0.10364274320E+03  0.12102490429E+03  0.41800000000E+01 0. -1.
        -11    1    4    4    0    0  0.62050447408E+02 -0.62054342972E+02  0.83061598390E+02  0.12083140582E+03  0.00000000000E+00 0.  1.
         11    1    4    4    0    0 -0.16422269201E+02  0.38933011209E+01  0.73986333265E+02  0.75886930556E+02  0.00000000000E+00 0. -1.
</event>
<event>
 8    1  0.6443238E-009  0.1408795E+03  0.7561462E-02  0.1212150E+00
         -2   -1    0    0    0  501 -0.00000000000E+00  0.00000000000E+00  0.21828703253E+03  0.21828703253E+03  0.00000000000E+00 0. -1.
          2   -1    0    0  501    0  0.00000000000E+00 -0.00000000000E+00 -0.14923864276E+03  0.14923864276E+03  0.00000000000E+00 0.  1.
         25    2    1    2    0    0 -0.87891503621E+02 -0.85682489499E+02  0.11192051981E+03  0.20794772951E+03  0.12509856130E+03 0.  0.
         23    2    1    2    0    0  0.87891503621E+02  0.85682489499E+02 -0.42872130036E+02  0.15957794578E+03  0.92524028385E+02 0.  0.
          5    1    3    3  502    0 -0.36332785275E+02 -0.60904091819E+02  0.12971488395E+03  0.14789456786E+03  0.41800000000E+01 0. -1.
         -5    1    3    3    0  502 -0.51558718346E+02 -0.24778397680E+02 -0.17794364135E+02  0.60053161649E+02  0.41800000000E+01 0. -1.
        -11    1    4    4    0    0  0.33584341924E+02  0.92706324165E+02 -0.32690607284E+02  0.10387996134E+03  0.00000000000E+00 0. -1.
         11    1    4    4    0    0  0.54307161698E+02 -0.70238346658E+01 -0.10181522752E+02  0.55697984440E+02  0.00000000000E+00 0.  1.
</event>
<event>
 8    1  0.6443238E-009  0.1873837E+03  0.7561462E-02  0.1160842E+00
         -1   -1    0    0    0  501 -0.00000000000E+00  0.00000000000E+00  0.26271229970E+03  0.26271229970E+03  0.00000000000E+00 0.  1.
          1   -1    0    0  501    0  0.00000000000E+00 -0.00000000000E+00 -0.17068511698E+03  0.17068511698E+03  0.00000000000E+00 0. -1.
         25    2    1    2    0    0 -0.36383791136E+02 -0.17604739255E+03  0.72526763685E+02  0.23070438205E+03  0.12509162949E+03 0.  0.
         23    2    1    2    0    0  0.36383791136E+02  0.17604739255E+03  0.19500419032E+02  0.20269303462E+03  0.91584579832E+02 0.  0.
          5    1    3    3  502    0  0.19432025025E+02 -0.59235027622E+02  0.79348066358E+02  0.10099495101E+03  0.41800000000E+01 0. -1.
         -5    1    3    3    0  502 -0.55815816161E+02 -0.11681236492E+03 -0.68213026736E+01  0.12970943105E+03  0.41800000000E+01 0. -1.
        -11    1    4    4    0    0  0.17409303657E+02  0.24668358296E+02  0.38526187576E+02  0.48947715820E+02  0.00000000000E+00 0.  1.
         11    1    4    4    0    0  0.18974487478E+02  0.15137903425E+03 -0.19025768544E+02  0.15374531880E+03  0.00000000000E+00 0. -1.
</event>
<event>
 8    1  0.6443238E-009  0.1316120E+03  0.7561462E-02  0.1225083E+00
         -2   -1    0    0    0  501 -0.00000000000E+00  0.00000000000E+00  0.45848845733E+02  0.45848845733E+02  0.00000000000E+00 0.  1.
          2   -1    0    0  501    0  0.00000000000E+00 -0.00000000000E+00 -0.48653398102E+03  0.48653398102E+03  0.00000000000E+00 0. -1.
         25    2    1    2    0    0  0.69725579668E+01  0.97523534680E+02 -0.15713593777E+03  0.22339792673E+03  0.12512183801E+03 0.  0.
         23    2    1    2    0    0 -0.69725579668E+01 -0.97523534680E+02 -0.28354919751E+03  0.30898490002E+03  0.74243280157E+02 0.  0.
          5    1    3    3  502    0  0.40793604912E+02 -0.48187781551E+01 -0.82412608208E+02  0.92177270606E+02  0.41800000000E+01 0. -1.
         -5    1    3    3    0  502 -0.33821046945E+02  0.10234231283E+03 -0.74723329562E+02  0.13122065612E+03  0.41800000000E+01 0. -1.
        -11    1    4    4    0    0 -0.18380942349E+02 -0.27210286969E+01 -0.14732855457E+02  0.23713288864E+02  0.00000000000E+00 0.  1.
         11    1    4    4    0    0  0.11408384383E+02 -0.94802505983E+02 -0.26881634206E+03  0.28527161116E+03  0.00000000000E+00 0. -1.
</event>
<event>
 8    1  0.6443238E-009  0.1718320E+03  0.7561462E-02  0.1175951E+00
          1   -1    0    0  501    0  0.00000000000E+00  0.00000000000E+00  0.27477597795E+03  0.27477597795E+03  0.00000000000E+00 0. -1.
         -1   -1    0    0    0  501 -0.00000000000E+00 -0.00000000000E+00 -0.22156236335E+03  0.22156236335E+03  0.00000000000E+00 0.  1.
         25    2    1    2    0    0 -0.10740349763E+02  0.14790013477E+03 -0.13855031895E+03  0.23839151761E+03  0.12507805487E+03 0.  0.
         23    2    1    2    0    0  0.10740349763E+02 -0.14790013477E+03  0.19176393355E+03  0.25794682369E+03  0.88166618752E+02 0.  0.
          5    1    3    3  502    0  0.24612841125E+02  0.13438503380E+03 -0.14555736038E+03  0.19967360070E+03  0.41800000000E+01 0. -1.
         -5    1    3    3    0  502 -0.35353190888E+02  0.13515100968E+02  0.70070414281E+01  0.38717916908E+02  0.41800000000E+01 0. -1.
        -11    1    4    4    0    0  0.91290096944E+00 -0.15609963941E+03  0.18848701011E+03  0.24473512987E+03  0.00000000000E+00 0.  1.
         11    1    4    4    0    0  0.98274487938E+01  0.81995046470E+01  0.32769234437E+01  0.13211693817E+02  0.00000000000E+00 0. -1.
</event>
<event>
 8    1  0.6443238E-009  0.1244782E+03  0.7561462E-02  0.1235887E+00
         -1   -1    0    0    0  501 -0.00000000000E+00  0.00000000000E+00  0.80248309553E+02  0.80248309553E+02  0.00000000000E+00 0.  1.
          1   -1    0    0  501    0  0.00000000000E+00 -0.00000000000E+00 -0.31285844160E+03  0.31285844160E+03  0.00000000000E+00 0. -1.
         25    2    1    2    0    0  0.56083637019E+02 -0.60666147540E+02 -0.24753022938E+02  0.15194141525E+03  0.12509086987E+03 0.  0.
         23    2    1    2    0    0 -0.56083637019E+02  0.60666147540E+02 -0.20785710911E+03  0.24116533590E+03  0.90168651064E+02 0.  0.
          5    1    3    3  502    0  0.69949683448E+02 -0.91460084655E+02 -0.25050695337E+02  0.11791062309E+03  0.41800000000E+01 0.  1.
         -5    1    3    3    0  502 -0.13866046430E+02  0.30793937114E+02  0.29767239867E+00  0.34030792166E+02  0.41800000000E+01 0.  1.
        -11    1    4    4    0    0  0.64451238100E+01  0.28829182653E+02 -0.14163604617E+03  0.14468390017E+03  0.00000000000E+00 0.  1.
         11    1    4    4    0    0 -0.62528760829E+02  0.31836964888E+02 -0.66221062933E+02  0.96481435728E+02  0.00000000000E+00 0. -1.
</event>
<event>
 8    1  0.6443238E-009  0.1867380E+03  0.7561462E-02  0.1161437E+00
          2   -1    0    0  501    0  0.00000000000E+00  0.00000000000E+00  0.15835799930E+04  0.15835799930E+04  0.00000000000E+00 0. -1.
         -2   -1    0    0    0  501 -0.00000000000E+00 -0.00000000000E+00 -0.24505395893E+02  0.24505395893E+02  0.00000000000E+00 0.  1.
         25    2    1    2    0    0  0.10838837898E+03  0.12262755697E+03  0.76055495386E+03  0.78795617523E+03  0.12508212433E+03 0.  0.
         23    2    1    2    0    0 -0.10838837898E+03 -0.12262755697E+03  0.79851964323E+03  0.82012921364E+03  0.90513800119E+02 0.  0.
          5    1    3    3  502    0  0.54480858276E+02 -0.17604737585E+01  0.38086179820E+03  0.38476544142E+03  0.41800000000E+01 0. -1.
         -5    1    3    3    0  502  0.53907520706E+02  0.12438803073E+03  0.37969315566E+03  0.40319073381E+03  0.41800000000E+01 0. -1.
        -11    1    4    4    0    0 -0.72545692561E+02 -0.21168176387E+02  0.25073519023E+03  0.26187612495E+03  0.00000000000E+00 0. -1.
         11    1    4    4    0    0 -0.35842686421E+02 -0.10145938058E+03  0.54778445300E+03  0.55825308868E+03  0.00000000000E+00 0.  1.
</event>
<event>
 8    1  0.6443238E-009  0.1537917E+03  0.7561462E-02  0.1195890E+00
          1   -1    0    0  501    0  0.00000000000E+00  0.00000000000E+00  0.13097104307E+03  0.13097104307E+03  0.00000000000E+00 0. -1.
         -1   -1    0    0    0  501 -0.00000000000E+00 -0.00000000000E+00 -0.24404444272E+03  0.24404444272E+03  0.00000000000E+00 0.  1.
         25    2    1    2    0    0 -0.41184366005E+02 -0.12739093368E+03 -0.11079015098E+03  0.21411791629E+03  0.12508965799E+03 0.  0.
         23    2    1    2    0    0  0.41184366005E+02  0.12739093368E+03 -0.22832486601E+01  0.16089756950E+03  0.89208814917E+02 0.  0.
          5    1    3    3  502    0 -0.53531149110E+02 -0.15652584057E+02  0.42063852327E+00  0.55930641418E+02  0.41800000000E+01 0. -1.
         -5    1    3    3    0  502  0.12346783104E+02 -0.11173834962E+03 -0.11121078951E+03  0.15818727487E+03  0.41800000000E+01 0. -1.
        -11    1    4    4    0    0  0.50332859557E+01  0.76873242726E+02 -0.41429814794E+02  0.87471475171E+02  0.00000000000E+00 0.  1.
         11    1    4    4    0    0  0.36151080050E+02  0.50517690952E+02  0.39146566134E+02  0.73426094326E+02  0.00000000000E+00 0. -1.
</event>
<event>
 8    1  0.6443238E-009  0.9680452E+02  0.7561462E-02  0.1287163E+00
          1   -1    0    0  501    0  0.00000000000E+00  0.00000000000E+00  0.39307110964E+03  0.39307110964E+03  0.00000000000E+00 0. -1.
         -1   -1    0    0    0  501 -0.00000000000E+00 -0.00000000000E+00 -0.73262173651E+02  0.73262173651E+02  0.00000000000E+00 0.  1.
         25    2    1    2    0    0  0.91622764394E+01 -0.85829354262E+02  0.37034976706E+02  0.15643099162E+03  0.12509372597E+03 0.  0.
         23    2    1    2    0    0 -0.91622764394E+01  0.85829354262E+02  0.28277395928E+03  0.30990229167E+03  0.92885375443E+02 0.  0.
          5    1    3    3  502    0 -0.18073314862E+01 -0.43791290855E+02 -0.45345150091E+02  0.63202837267E+02  0.41800000000E+01 0.  1.
         -5    1    3    3    0  502  0.10969607926E+02 -0.42038063407E+02  0.82380126797E+02  0.93228154353E+02  0.41800000000E+01 0.  1.
        -11    1    4    4    0    0  0.79588225992E+01 -0.75673972881E+01 -0.64421195837E+00  0.11001062127E+02  0.00000000000E+00 0.  1.
         11    1    4    4    0    0 -0.17121099039E+02  0.93396751550E+02  0.28341817124E+03  0.29890122954E+03  0.00000000000E+00 0. -1.
</event>
<event>
 8    1  0.6443238E-009  0.1554459E+03  0.7561462E-02  0.1193936E+00
         -1   -1    0    0    0  501 -0.00000000000E+00  0.00000000000E+00  0.43946355000E+02  0.43946355000E+02  0.00000000000E+00 0.  1.
          1   -1    0    0  501    0  0.00000000000E+00 -0.00000000000E+00 -0.76312507001E+03  0.76312507001E+03  0.00000000000E+00 0. -1.
         25    2    1    2    0    0  0.26666354774E+02 -0.13499687937E+03 -0.47615055475E+03  0.51117734136E+03  0.12509065361E+03 0.  0.
         23    2    1    2    0    0 -0.26666354774E+02  0.13499687937E+03 -0.24302816026E+03  0.29589408365E+03  0.97751573588E+02 0.  0.
          5    1    3    3  502    0 -0.38592565890E+02 -0.74987307315E+02 -0.32598843330E+03  0.33674680911E+03  0.41800000000E+01 0.  1.
         -5    1    3    3    0  502  0.65258920664E+02 -0.60009572056E+02 -0.15016212145E+03  0.17443053225E+03  0.41800000000E+01 0.  1.
        -11    1    4    4    0    0 -0.51584742777E+01  0.37790366715E+02 -0.57446352597E+01  0.38571006049E+02  0.00000000000E+00 0.  1.
         11    1    4    4    0    0 -0.21507880496E+02  0.97206512656E+02 -0.23728352500E+03  0.25732307760E+03  0.00000000000E+00 0. -1.
</event>
<event>
 8    1  0.6443238E-009  0.1145542E+03  0.7561462E-02  0.1252361E+00
          2   -1    0    0  501    0  0.00000000000E+00  0.00000000000E+00  0.54962660430E+03  0.54962660430E+03  0.00000000000E+00 0. -1.
         -2   -1    0    0    0  501 -0.00000000000E+00 -0.00000000000E+00 -0.25773021157E+02  0.25773021157E+02  0.00000000000E+00 0.  1.
         25    2    1    2    0    0  0.46692068062E+02  0.96769633980E+01  0.25689681450E+03  0.28968457836E+03  0.12508952315E+03 0.  0.
         23    2    1    2    0    0 -0.46692068062E+02 -0.96769633980E+01  0.26695676865E+03  0.28571504709E+03  0.89963208977E+02 0.  0.
          5    1    3    3  502    0  0.23873492550E+02 -0.54181412343E+02  0.75877383068E+02  0.96334930068E+02  0.41800000000E+01 0. -1.
         -5    1    3    3    0  502  0.22818575512E+02  0.63858375741E+02  0.18101943143E+03  0.19334964829E+03  0.41800000000E+01 0. -1.
        -11    1    4    4    0    0 -0.86736101475E+01 -0.47439598357E+02  0.12470059526E+03  0.13370110494E+03  0.00000000000E+00 0.  1.
         11    1    4    4    0    0 -0.38018457915E+02  0.37762634959E+02  0.14225617339E+03  0.15201394215E+03  0.00000000000E+00 0. -1.
</event>
<event>
 8    1  0.6443238E-009  0.1310096E+03  0.7561462E-02  0.1225965E+00
          2   -1    0    0  501    0  0.00000000000E+00  0.00000000000E+00  0.71173578600E+02  0.71173578600E+02  0.00000000000E+00 0. -1.
         -2   -1    0    0    0  501 -0.00000000000E+00 -0.00000000000E+00 -0.27127021474E+03  0.27127021474E+03  0.00000000000E+00 0.  1.
         25    2    1    2    0    0 -0.46761152336E+02  0.75907429658E+02 -0.86841749378E+02  0.17645814180E+03  0.12508974029E+03 0.  0.
         23    2    1    2    0    0  0.46761152336E+02 -0.75907429658E+02 -0.11325488676E+03  0.16598565154E+03  0.82316607658E+02 0.  0.
          5    1    3    3  502    0 -0.35090897983E+01 -0.29690540089E+02 -0.46326895051E+02  0.55294624395E+02  0.41800000000E+01 0.  1.
         -5    1    3    3    0  502 -0.43252062538E+02  0.10559796975E+03 -0.40514854328E+02  0.12116351740E+03  0.41800000000E+01 0.  1.
        -11    1    4    4    0    0 -0.18300045569E+02 -0.38415087258E+02 -0.61505954240E+02  0.74790326940E+02  0.00000000000E+00 0.  1.
         11    1    4    4    0    0  0.65061197905E+02 -0.37492342401E+02 -0.51748932518E+02  0.91195324597E+02  0.00000000000E+00 0. -1.
</event>
<event>
 8    1  0.6443238E-009  0.9507717E+02  0.7561462E-02  0.1291002E+00
         -2   -1    0    0    0  501 -0.00000000000E+00  0.00000000000E+00  0.40359779826E+02  0.40359779826E+02  0.00000000000E+00 0.  1.
          2   -1    0    0  501    0  0.00000000000E+00 -0.00000000000E+00 -0.29953444340E+03  0.29953444340E+03  0.00000000000E+00 0. -1.
         25    2    1    2    0    0 -0.15458939998E+02  0.58259756438E+01 -0.13313853083E+03  0.18342822420E+03  0.12508846559E+03 0.  0.
         23    2    1    2    0    0  0.15458939998E+02 -0.58259756438E+01 -0.12603613274E+03  0.15646599902E+03  0.91233663058E+02 0.  0.
          5    1    3    3  502    0 -0.58770786160E+02  0.47855943609E+01 -0.12619268534E+03  0.13935197685E+03  0.41800000000E+01 0.  1.
         -5    1    3    3    0  502  0.43311846162E+02  0.10403812829E+01 -0.69458454933E+01  0.44076247354E+02  0.41800000000E+01 0.  1.
        -11    1    4    4    0    0  0.50850614563E+02  0.33273609116E+01 -0.46736200973E+02  0.69145707123E+02  0.00000000000E+00 0.  1.
         11    1    4    4    0    0 -0.35391674566E+02 -0.91533365554E+01 -0.79299931768E+02  0.87320291898E+02  0.00000000000E+00 0. -1.
</event>
<event>
 8    1  0.6443238E-009  0.1901832E+03  0.7561462E-02  0.1158296E+00
          2   -1    0    0  501    0  0.00000000000E+00  0.00000000000E+00  0.18562371543E+03  0.18562371543E+03  0.00000000000E+00 0. -1.
         -2   -1    0    0    0  501 -0.00000000000E+00 -0.00000000000E+00 -0.19501412963E+03  0.19501412963E+03  0.00000000000E+00 0.  1.
         25    2    1    2    0    0 -0.14861674505E+03 -0.47422051441E+02  0.56398151699E-01  0.19995789189E+03  0.12508943792E+03 0.  0.
         23    2    1    2    0    0  0.14861674505E+03  0.47422051441E+02 -0.94468123592E+01  0.18067995316E+03  0.90665403219E+02 0.  0.
          5    1    3    3  502    0 -0.99996076405E+02 -0.90448448697E+02  0.11466594798E+00  0.13489856455E+03  0.41800000000E+01 0.  1.
         -5    1    3    3    0  502 -0.48620668641E+02  0.43026397256E+02 -0.58267796277E-01  0.65059327349E+02  0.41800000000E+01 0.  1.
        -11    1    4    4    0    0  0.43041619915E+02  0.60262955917E+02 -0.24212151898E+01  0.74094987575E+02  0.00000000000E+00 0.  1.
         11    1    4    4    0    0  0.10557512513E+03 -0.12840904476E+02 -0.70255971694E+01  0.10658496559E+03  0.00000000000E+00 0. -1.
</event>
<event>
 8    1  0.6443238E-009  0.7732012E+02  0.7561462E-02  0.1336833E+00
          2   -1    0    0  501    0  0.00000000000E+00  0.00000000000E+00  0.39919091654E+03  0.39919091654E+03  0.00000000000E+00 0. -1.
         -2   -1    0    0    0  501 -0.00000000000E+00 -0.00000000000E+00 -0.30380165725E+02  0.30380165725E+02  0.00000000000E+00 0.  1.
         25    2    1    2    0    0  0.71949690642E+01 -0.51223036634E+01  0.24502743489E+03  0.27524933136E+03  0.12508295245E+03 0.  0.
         23    2    1    2    0    0 -0.71949690642E+01  0.51223036634E+01  0.12378331593E+03  0.15432175090E+03  0.91732698227E+02 0.  0.
          5    1    3    3  502    0 -0.15643672384E+02  0.24387176000E+02  0.23440701850E+03  0.23622781707E+03  0.41800000000E+01 0.  1.
         -5    1    3    3    0  502  0.22838641448E+02 -0.29509479663E+02  0.10620416389E+02  0.39021514290E+02  0.41800000000E+01 0.  1.
        -11    1    4    4    0    0 -0.26045667069E+02 -0.34918392939E+02  0.84843111750E+02  0.95373080845E+02  0.00000000000E+00 0.  1.
         11    1    4    4    0    0  0.18850698005E+02  0.40040696603E+02  0.38940204177E+02  0.58948670053E+02  0.00000000000E+00 0. -1.
</event>
<event>
 8    1  0.6443238E-009  0.1222973E+03  0.7561462E-02  0.1239355E+00
         -2   -1    0    0    0  501 -0.00000000000E+00  0.00000000000E+00  0.53103143345E+02  0.53103143345E+02  0.00000000000E+00 0.  1.
          2   -1    0    0  501    0  0.00000000000E+00 -0.00000000000E+00 -0.44140477581E+03  0.44140477581E+03  0.00000000000E+00 0. -1.
         25    2    1    2    0    0 -0.10701730458E+03 -0.40582897974E+01 -0.22140248553E+03  0.27592675261E+03  0.12508932414E+03 0.  0.
         23    2    1    2    0    0  0.10701730458E+03  0.40582897974E+01 -0.16689914694E+03  0.21858116654E+03  0.91941437471E+02 0.  0.
          5    1    3    3  502    0 -0.89299474365E+02 -0.35388368394E+02 -0.21950919745E+03  0.23964242718E+03  0.41800000000E+01 0. -1.
         -5    1    3    3    0  502 -0.17717830212E+02  0.31330078596E+02 -0.18932880772E+01  0.36284325431E+02  0.41800000000E+01 0. -1.
        -11    1    4    4    0    0  0.73534518611E+02  0.18378372714E+02 -0.16562222405E+03  0.18214228260E+03  0.00000000000E+00 0. -1.
         11    1    4    4    0    0  0.33482785966E+02 -0.14320082917E+02 -0.12769228821E+01  0.36438883940E+02  0.00000000000E+00 0.  1.
</event>
<event>
 8    1  0.6443238E-009  0.8752970E+02  0.7561462E-02  0.1308947E+00
         -2   -1    0    0    0  501 -0.00000000000E+00  0.00000000000E+00  0.24147858419E+02  0.24147858419E+02  0.00000000000E+00 0.  1.
          2   -1    0    0  501    0  0.00000000000E+00 -0.00000000000E+00 -0.56727395798E+03  0.56727395798E+03  0.00000000000E+00 0. -1.
         25    2    1    2    0    0 -0.38781827025E+02 -0.24799019229E+02 -0.32862568901E+03  0.35462873649E+03  0.12509067033E+03 0.  0.
         23    2    1    2    0    0  0.38781827025E+02  0.24799019229E+02 -0.21450041055E+03  0.23679307991E+03  0.89115178871E+02 0.  0.
          5    1    3    3  502    0 -0.47689640466E+02 -0.35970893799E+02 -0.33360057633E+03  0.33893218191E+03  0.41800000000E+01 0. -1.
         -5    1    3    3    0  502  0.89078134415E+01  0.11171874571E+02  0.49748873184E+01  0.15696554576E+02  0.41800000000E+01 0. -1.
        -11    1    4    4    0    0 -0.26892667707E+02  0.21679555177E+02 -0.75529339027E+02  0.83053595605E+02  0.00000000000E+00 0. -1.
         11    1    4    4    0    0  0.65674494732E+02  0.31194640516E+01 -0.13897107152E+03  0.15373948431E+03  0.00000000000E+00 0.  1.
</event>
<event>
 8    1  0.6443238E-009  0.1289268E+03  0.7561462E-02  0.1229057E+00
         -1   -1    0    0    0  501 -0.00000000000E+00  0.00000000000E+00  0.15490994886E+03  0.15490994886E+03  0.00000000000E+00 0.  1.
          1   -1    0    0  501    0  0.00000000000E+00 -0.00000000000E+00 -0.12948595819E+03  0.12948595819E+03  0.00000000000E+00 0. -1.
         25    2    1    2    0    0 -0.79537019759E+02  0.29567358214E+01 -0.21664418081E+02  0.14984042682E+03  0.12509167318E+03 0.  0.
         23    2    1    2    0    0  0.79537019759E+02 -0.29567358214E+01  0.47088408749E+02  0.13455548024E+03  0.97739343278E+02 0.  0.
          5    1    3    3  502    0 -0.33535148666E+02  0.59229533484E+02 -0.33673878578E+02  0.76053575401E+02  0.41800000000E+01 0. -1.
         -5    1    3    3    0  502 -0.46001871093E+02 -0.56272797663E+02  0.12009460497E+02  0.73786851419E+02  0.41800000000E+01 0. -1.
        -11    1    4    4    0    0 -0.15014761924E+02 -0.15379757237E+02 -0.96805191625E+01  0.23573130033E+02  0.00000000000E+00 0.  1.
         11    1    4    4    0    0  0.94551781683E+02  0.12423021416E+02  0.56768927912E+02  0.11098235020E+03  0.00000000000E+00 0. -1.
</event>
<event>
 8    1  0.6443238E-009  0.1208564E+03  0.7561462E-02  0.1241691E+00
         -1   -1    0    0    0  501 -0.00000000000E+00  0.00000000000E+00  0.34057407633E+03  0.34057407633E+03  0.00000000000E+00 0.  1.
          1   -1    0    0  501    0  0.00000000000E+00 -0.00000000000E+00 -0.54597491977E+02  0.54597491977E+02  0.00000000000E+00 0. -1.
         25    2    1    2    0    0  0.34675792560E+02  0.66600683116E+02  0.11454096665E+03  0.18547858780E+03  0.12507842303E+03 0.  0.
         23    2    1    2    0    0 -0.34675792560E+02 -0.66600683116E+02  0.17143561770E+03  0.20969298051E+03  0.94566978790E+02 0.  0.
          5    1    3    3  502    0 -0.25712882180E+02  0.70444867931E+02  0.28772862123E+02  0.80429980247E+02  0.41800000000E+01 0.  1.
         -5    1    3    3    0  502  0.60388674739E+02 -0.38441848146E+01  0.85768104532E+02  0.10504860755E+03  0.41800000000E+01 0.  1.
        -11    1    4    4    0    0  0.22462226632E+02 -0.32184847445E+02  0.19638580813E+02  0.43887240591E+02  0.00000000000E+00 0. -1.
         11    1    4    4    0    0 -0.57138019192E+02 -0.34415835671E+02  0.15179703689E+03  0.16580573992E+03  0.00000000000E+00 0.  1.
</event>
<event>
 8    1  0.6443238E-009  0.1398306E+03  0.7561462E-02  0.1213557E+00
         -2   -1    0    0    0  501 -0.00000000000E+00  0.00000000000E+00  0.62528171306E+03  0.62528171306E+03  0.00000000000E+00 0. -1.
          2   -1    0    0  501    0  0.00000000000E+00 -0.00000000000E+00 -0.50092346850E+02  0.50092346850E+02  0.00000000000E+00 0.  1.
         25    2    1    2    0    0  0.88289534007E+02  0.10472584389E+03  0.36060351650E+03  0.40549994285E+03  0.12503104954E+03 0.  0.
         23    2    1    2    0    0 -0.88289534007E+02 -0.10472584389E+03  0.21458584972E+03  0.26987411706E+03  0.89567895847E+02 0.  0.
          5    1    3    3  502    0  0.33777426423E+02  0.19437937655E+02  0.25925487608E+03  0.26220089841E+03  0.41800000000E+01 0.  1.
         -5    1    3    3    0  502  0.54512107584E+02  0.85287906238E+02  0.10134864042E+03  0.14329904444E+03  0.41800000000E+01 0.  1.
        -11    1    4    4    0    0 -0.49068375171E+01 -0.18788592038E+02  0.10748149510E+03  0.10922160974E+03  0.00000000000E+00 0. -1.
         11    1    4    4    0    0 -0.83382696490E+02 -0.85937251855E+02  0.10710435461E+03  0.16065250732E+03  0.00000000000E+00 0.  1.
</event>
<event>
 8    1  0.6443238E-009  0.2311921E+03  0.7561462E-02  0.1125803E+00
          2   -1    0    0  501    0  0.00000000000E+00  0.00000000000E+00  0.28024716691E+03  0.28024716691E+03  0.00000000000E+00 0.  1.
         -2   -1    0    0    0  501 -0.00000000000E+00 -0.00000000000E+00 -0.29754888146E+03  0.29754888146E+03  0.00000000000E+00 0. -1.
         25    2    1    2    0    0  0.35154325773E+02 -0.22147501612E+03  0.13644353051E+03  0.29077677188E+03  0.12508910687E+03 0.  0.
         23    2    1    2    0    0 -0.35154325773E+02  0.22147501612E+03 -0.15374524506E+03  0.28701927650E+03  0.91953549755E+02 0.  0.
          5    1    3    3  502    0  0.48464593357E+02 -0.93350999765E+02  0.30733060171E+01  0.10530975062E+03  0.41800000000E+01 0. -1.
         -5    1    3    3    0  502 -0.13310267584E+02 -0.12812401636E+03  0.13337022450E+03  0.18546702126E+03  0.41800000000E+01 0. -1.
        -11    1    4    4    0    0 -0.39184026704E+02  0.11142051030E+03 -0.30997821141E+02  0.12210971697E+03  0.00000000000E+00 0.  1.
         11    1    4    4    0    0  0.40297009302E+01  0.11005450583E+03 -0.12274742392E+03  0.16490955952E+03  0.00000000000E+00 0. -1.
</event>
<event>
 8    1  0.6443238E-009  0.1050155E+03  0.7561462E-02  0.1270089E+00
          2   -1    0    0  501    0  0.00000000000E+00  0.00000000000E+00  0.15593853230E+04  0.15593853230E+04  0.00000000000E+00 0. -1.
         -2   -1    0    0    0  501 -0.00000000000E+00 -0.00000000000E+00 -0.10387453299E+02  0.10387453299E+02  0.00000000000E+00 0.  1.
         25    2    1    2    0    0  0.22150888662E+02 -0.59670942516E+02  0.99467345606E+03  0.10045267660E+04  0.12508979263E+03 0.  0.
         23    2    1    2    0    0 -0.22150888662E+02  0.59670942516E+02  0.55432441367E+03  0.56524601030E+03  0.90422416047E+02 0.  0.
          5    1    3    3  502    0 -0.27389567530E+02 -0.35576452192E+02  0.82187912057E+03  0.82311520068E+03  0.41800000000E+01 0. -1.
         -5    1    3    3    0  502  0.49540456191E+02 -0.24094490325E+02  0.17279433549E+03  0.18141156534E+03  0.41800000000E+01 0. -1.
        -11    1    4    4    0    0  0.34028504208E+02  0.33368552217E+02  0.27684982495E+03  0.28092209765E+03  0.00000000000E+00 0.  1.
         11    1    4    4    0    0 -0.56179392870E+02  0.26302390299E+02  0.27747458872E+03  0.28432391265E+03  0.00000000000E+00 0. -1.
</event>
<event>
 8    1  0.6443238E-009  0.1218653E+03  0.7561462E-02  0.1240051E+00
          2   -1    0    0  501    0  0.00000000000E+00  0.00000000000E+00  0.40220690809E+03  0.40220690809E+03  0.00000000000E+00 0. -1.
         -2   -1    0    0    0  501 -0.00000000000E+00 -0.00000000000E+00 -0.63832063855E+02  0.63832063855E+02  0.00000000000E+00 0.  1.
         25    2    1    2    0    0  0.48064885617E+02 -0.98232487547E+02  0.23655470068E+03  0.28907678670E+03  0.12508959731E+03 0.  0.
         23    2    1    2    0    0 -0.48064885617E+02  0.98232487547E+02  0.10182014355E+03  0.17696218525E+03  0.94807270471E+02 0.  0.
          5    1    3    3  502    0  0.14815631767E+02 -0.88044303393E+02  0.56709038627E+02  0.10585220719E+03  0.41800000000E+01 0. -1.
         -5    1    3    3    0  502  0.33249253850E+02 -0.10188184153E+02  0.17984566205E+03  0.18322457951E+03  0.41800000000E+01 0. -1.
        -11    1    4    4    0    0  0.58798621087E+01  0.38062353411E+02 -0.92458851506E+01  0.39608104194E+02  0.00000000000E+00 0.  1.
         11    1    4    4    0    0 -0.53944747726E+02  0.60170134136E+02  0.11106602871E+03  0.13735408105E+03  0.00000000000E+00 0. -1.
</event>
<event>
 8    1  0.6443238E-009  0.1088167E+03  0.7561462E-02  0.1262777E+00
         -2   -1    0    0    0  501 -0.00000000000E+00  0.00000000000E+00  0.22896908683E+02  0.22896908683E+02  0.00000000000E+00 0. -1.
          2   -1    0    0  501    0  0.00000000000E+00 -0.00000000000E+00 -0.14842526049E+04  0.14842526049E+04  0.00000000000E+00 0.  1.
         25    2    1    2    0    0  0.22234385531E+02  0.53757160173E+02 -0.13311266832E+04  0.13382564163E+04  0.12509112242E+03 0.  0.
         23    2    1    2    0    0 -0.22234385531E+02 -0.53757160173E+02 -0.13022901302E+03  0.16889309727E+03  0.90449335564E+02 0.  0.
          5    1    3    3  502    0  0.61245505206E+01 -0.27189651692E+02 -0.88371226326E+02  0.92756311486E+02  0.41800000000E+01 0. -1.
         -5    1    3    3    0  502  0.16109835010E+02  0.80946811865E+02 -0.12427554569E+04  0.12455001048E+04  0.41800000000E+01 0. -1.
        -11    1    4    4    0    0 -0.51430499718E+02 -0.73071725247E+01 -0.53532092598E+02  0.74593404597E+02  0.00000000000E+00 0.  1.
         11    1    4    4    0    0  0.29196114187E+02 -0.46449987648E+02 -0.76696920419E+02  0.94299692671E+02  0.00000000000E+00 0. -1.
</event>
<event>
 8    1  0.6443238E-009  0.1041201E+03  0.7561462E-02  0.1271863E+00
         -1   -1    0    0    0  501 -0.00000000000E+00  0.00000000000E+00  0.10783067301E+03  0.10783067301E+03  0.00000000000E+00 0.  1.
          1   -1    0    0  501    0  0.00000000000E+00 -0.00000000000E+00 -0.15217432303E+03  0.15217432303E+03  0.00000000000E+00 0. -1.
         25    2    1    2    0    0 -0.12881372832E+02 -0.63774950815E+02 -0.44773616369E+02  0.14789018631E+03  0.12503462067E+03 0.  0.
         23    2    1    2    0    0  0.12881372832E+02  0.63774950815E+02  0.42996634580E+00  0.11211480973E+03  0.91303732526E+02 0.  0.
          5    1    3    3  502    0  0.26584244395E+02  0.23958323108E+02 -0.36429001958E+02  0.51237368003E+02  0.41800000000E+01 0.  1.
         -5    1    3    3    0  502 -0.39465617228E+02 -0.87733273922E+02 -0.83446144113E+01  0.96652818303E+02  0.41800000000E+01 0.  1.
        -11    1    4    4    0    0  0.16694692582E+02  0.55865281688E+01  0.38596464814E+02  0.42421800452E+02  0.00000000000E+00 0.  1.
         11    1    4    4    0    0 -0.38133197500E+01  0.58188422646E+02 -0.38166498468E+02  0.69693009283E+02  0.00000000000E+00 0. -1.
</event>
<event>
 8    1  0.6443238E-009  0.1057711E+03  0.7561462E-02  0.1268608E+00
         -4   -1    0    0    0  501 -0.00000000000E+00  0.00000000000E+00  0.20731073274E+03  0.20731073274E+03  0.00000000000E+00 0.  1.
          4   -1    0    0  501    0  0.00000000000E+00 -0.00000000000E+00 -0.59872388208E+02  0.59872388208E+02  0.00000000000E+00 0. -1.
         25    2    1    2    0    0  0.13460320449E+02 -0.18390254304E+02  0.99177288243E+02  0.16125575092E+03  0.12509157055E+03 0.  0.
         23    2    1    2    0    0 -0.13460320449E+02  0.18390254304E+02  0.48261056291E+02  0.10592737003E+03  0.91499161127E+02 0.  0.
          5    1    3    3  502    0 -0.40539327062E+02 -0.46876420128E+02  0.69600860112E+02  0.93287662266E+02  0.41800000000E+01 0.  1.
         -5    1    3    3    0  502  0.53999647511E+02  0.28486165824E+02  0.29576428131E+02  0.67968088656E+02  0.41800000000E+01 0.  1.
        -11    1    4    4    0    0 -0.49386806737E+02  0.40636230856E+01  0.45295620126E+02  0.67136152070E+02  0.00000000000E+00 0.  1.
         11    1    4    4    0    0  0.35926486287E+02  0.14326631219E+02  0.29654361647E+01  0.38791217958E+02  0.00000000000E+00 0. -1.
</event>
<event>
 8    1  0.6443238E-009  0.1692780E+03  0.7561462E-02  0.1178603E+00
         -1   -1    0    0    0  501 -0.00000000000E+00  0.00000000000E+00  0.30225431362E+03  0.30225431362E+03  0.00000000000E+00 0.  1.
          1   -1    0    0  501    0  0.00000000000E+00 -0.00000000000E+00 -0.11161997840E+03  0.11161997840E+03  0.00000000000E+00 0. -1.
         25    2    1    2    0    0 -0.11308819506E+03 -0.81563296216E+02  0.44691719841E+02  0.19257755363E+03  0.12508898108E+03 0.  0.
         23    2    1    2    0    0  0.11308819506E+03  0.81563296216E+02  0.14594261538E+03  0.22129673840E+03  0.90727549791E+02 0.  0.
          5    1    3    3  502    0 -0.98374719587E+02 -0.11242476018E+03  0.50290065017E+02  0.15768156264E+03  0.41800000000E+01 0.  1.
         -5    1    3    3    0  502 -0.14713475473E+02  0.30861463967E+02 -0.55983451757E+01  0.34895990993E+02  0.41800000000E+01 0.  1.
        -11    1    4    4    0    0  0.45605691190E+02 -0.38990125048E+01  0.84922309958E+02  0.96472172651E+02  0.00000000000E+00 0.  1.
         11    1    4    4    0    0  0.67482503870E+02  0.85462308720E+02  0.61020305417E+02  0.12482456575E+03  0.00000000000E+00 0. -1.
</event>
<event>
 8    1  0.6443238E-009  0.9317118E+02  0.7561462E-02  0.1295349E+00
         -2   -1    0    0    0  501 -0.00000000000E+00  0.00000000000E+00  0.20097139101E+03  0.20097139101E+03  0.00000000000E+00 0. -1.
          2   -1    0    0  501    0  0.00000000000E+00 -0.00000000000E+00 -0.11698474037E+03  0.11698474037E+03  0.00000000000E+00 0.  1.
         25    2    1    2    0    0 -0.75138341276E+01  0.19821549999E+01 -0.67192870623E+02  0.14220597460E+03  0.12508905111E+03 0.  0.
         23    2    1    2    0    0  0.75138341276E+01 -0.19821549999E+01  0.15117952126E+03  0.17575015678E+03  0.89288763661E+02 0.  0.
          5    1    3    3  502    0  0.17193635619E+02  0.55847619902E+02 -0.94169464157E+01  0.59335731514E+02  0.41800000000E+01 0.  1.
         -5    1    3    3    0  502 -0.24707469747E+02 -0.53865464902E+02 -0.57775924208E+02  0.82870243082E+02  0.41800000000E+01 0.  1.
        -11    1    4    4    0    0  0.46273602654E+01  0.32962674910E+02  0.17614472497E+02  0.37659262361E+02  0.00000000000E+00 0.  1.
         11    1    4    4    0    0  0.28864738622E+01 -0.34944829910E+02  0.13356504877E+03  0.13809089442E+03  0.00000000000E+00 0. -1.
</event>
<event>
 8    1  0.6443238E-009  0.8202353E+02  0.7561462E-02  0.1323405E+00
          1   -1    0    0  501    0  0.00000000000E+00  0.00000000000E+00  0.24416546803E+03  0.24416546803E+03  0.00000000000E+00 0. -1.
         -1   -1    0    0    0  501 -0.00000000000E+00 -0.00000000000E+00 -0.49961883404E+02  0.49961883404E+02  0.00000000000E+00 0.  1.
         25    2    1    2    0    0  0.10138028845E+01 -0.17578431394E+02  0.11229450548E+03  0.16901944013E+03  0.12508991221E+03 0.  0.
         23    2    1    2    0    0 -0.10138028845E+01  0.17578431394E+02  0.81909079152E+02  0.12510791130E+03  0.92913202379E+02 0.  0.
          5    1    3    3  502    0 -0.12184651157E+01 -0.43603939529E+02 -0.91172962570E+01  0.44759196717E+02  0.41800000000E+01 0.  1.
         -5    1    3    3    0  502  0.22322680002E+01  0.26025508135E+02  0.12141180173E+03  0.12426024342E+03  0.41800000000E+01 0.  1.
        -11    1    4    4    0    0  0.14817181834E+02 -0.35455206135E+02  0.25730325023E+02  0.46245758134E+02  0.00000000000E+00 0.  1.
         11    1    4    4    0    0 -0.15830984718E+02  0.53033637530E+02  0.56178754129E+02  0.78862153168E+02  0.00000000000E+00 0. -1.
</event>
<event>
 8    1  0.6443238E-009  0.1057337E+03  0.7561462E-02  0.1268681E+00
          1   -1    0    0  501    0  0.00000000000E+00  0.00000000000E+00  0.10802311108E+03  0.10802311108E+03  0.00000000000E+00 0. -1.
         -1   -1    0    0    0  501 -0.00000000000E+00 -0.00000000000E+00 -0.21631317208E+03  0.21631317208E+03  0.00000000000E+00 0.  1.
         25    2    1    2    0    0 -0.32150673546E+02 -0.13914204438E+02  0.49267372111E+02  0.13893409744E+03  0.12509252009E+03 0.  0.
         23    2    1    2    0    0  0.32150673546E+02  0.13914204438E+02 -0.15755743311E+03  0.18540218572E+03  0.91226941453E+02 0.  0.
          5    1    3    3  502    0 -0.71654706900E+02  0.11735512984E+01 -0.26609564595E+01  0.71835418373E+02  0.41800000000E+01 0.  1.
         -5    1    3    3    0  502  0.39504033354E+02 -0.15087755737E+02  0.51928328570E+02  0.67098679067E+02  0.41800000000E+01 0.  1.
        -11    1    4    4    0    0  0.54424053918E+02 -0.18827306318E+02 -0.10271598547E+03  0.11775830662E+03  0.00000000000E+00 0. -1.
         11    1    4    4    0    0 -0.22273380372E+02  0.32741510757E+02 -0.54841447641E+02  0.67643879097E+02  0.00000000000E+00 0.  1.
</event>
<event>
 8    1  0.6443238E-009  0.1927612E+03  0.7561462E-02  0.1155994E+00
         -2   -1    0    0    0  501 -0.00000000000E+00  0.00000000000E+00  0.52792100775E+02  0.52792100775E+02  0.00000000000E+00 0.  1.
          2   -1    0    0  501    0  0.00000000000E+00 -0.00000000000E+00 -0.81029718086E+03  0.81029718086E+03  0.00000000000E+00 0. -1.
         25    2    1    2    0    0 -0.50042687181E+01 -0.16284087094E+03 -0.25973134560E+03  0.33113267488E+03  0.12508510917E+03 0.  0.
         23    2    1    2    0    0  0.50042687181E+01  0.16284087094E+03 -0.49777373449E+03  0.53195660675E+03  0.93042725488E+02 0.  0.
          5    1    3    3  502    0  0.58974689260E+02 -0.89925957191E+02 -0.14997425023E+03  0.18459263225E+03  0.41800000000E+01 0. -1.
         -5    1    3    3    0  502 -0.63978957978E+02 -0.72914913747E+02 -0.10975709537E+03  0.14654004263E+03  0.41800000000E+01 0. -1.
        -11    1    4    4    0    0  0.29163570978E+02  0.15120532801E+03 -0.35928193586E+03  0.39089266369E+03  0.00000000000E+00 0.  1.
         11    1    4    4    0    0 -0.24159302260E+02  0.11635542929E+02 -0.13849179863E+03  0.14106394306E+03  0.00000000000E+00 0. -1.
</event>
<event>
 8    1  0.6443238E-009  0.1091268E+03  0.7561462E-02  0.1262196E+00
          1   -1    0    0  501    0  0.00000000000E+00  0.00000000000E+00  0.20298775574E+03  0.20298775574E+03  0.00000000000E+00 0. -1.
         -1   -1    0    0    0  501 -0.00000000000E+00 -0.00000000000E+00 -0.66121445511E+02  0.66121445511E+02  0.00000000000E+00 0.  1.
         25    2    1    2    0    0  0.75735023422E+01 -0.12885289811E+02  0.12248961151E+03  0.17570315261E+03  0.12507799278E+03 0.  0.
         23    2    1    2    0    0 -0.75735023422E+01  0.12885289811E+02  0.14376698720E+02  0.93406048638E+02  0.91074759538E+02 0.  0.
          5    1    3    3  502    0  0.32839086761E+02 -0.62164018707E+02  0.69099515899E+02  0.98666034371E+02  0.41800000000E+01 0.  1.
         -5    1    3    3    0  502 -0.25265584419E+02  0.49278728895E+02  0.53390095609E+02  0.77037118240E+02  0.41800000000E+01 0.  1.
        -11    1    4    4    0    0 -0.48433520396E+02  0.16746143202E+02  0.75429557934E+01  0.51798990263E+02  0.00000000000E+00 0. -1.
         11    1    4    4    0    0  0.40860018054E+02 -0.38608533905E+01  0.68337429262E+01  0.41607058376E+02  0.00000000000E+00 0.  1.
</event>
<event>
 8    1  0.6443238E-009  0.5973415E+02  0.7561462E-02  0.1398951E+00
         -2   -1    0    0    0  501 -0.00000000000E+00  0.00000000000E+00  0.35359169238E+02  0.35359169238E+02  0.00000000000E+00 0.  1.
          2   -1    0    0  501    0  0.00000000000E+00 -0.00000000000E+00 -0.40901837409E+03  0.40901837409E+03  0.00000000000E+00 0. -1.
         25    2    1    2    0    0  0.49558069662E+02  0.11118883587E+02 -0.18614761432E+03  0.22995771599E+03  0.12509990002E+03 0.  0.
         23    2    1    2    0    0 -0.49558069662E+02 -0.11118883587E+02 -0.18751159054E+03  0.21441982734E+03  0.90750393563E+02 0.  0.
          5    1    3    3  502    0  0.30277486702E+02  0.25250494900E+02  0.25294896818E+01  0.39726369224E+02  0.41800000000E+01 0. -1.
         -5    1    3    3    0  502  0.19280582961E+02 -0.14131611313E+02 -0.18867710400E+03  0.19023134676E+03  0.41800000000E+01 0. -1.
        -11    1    4    4    0    0 -0.17999920992E+02 -0.15424194790E+02  0.51956409564E+00  0.23710185311E+02  0.00000000000E+00 0.  1.
         11    1    4    4    0    0 -0.31558148671E+02  0.43053112030E+01 -0.18803115463E+03  0.19070964203E+03  0.00000000000E+00 0. -1.
</event>
<event>
 8    1  0.6443238E-009  0.8627827E+02  0.7561462E-02  0.1312123E+00
         -1   -1    0    0    0  501 -0.00000000000E+00  0.00000000000E+00  0.75604394175E+03  0.75604394175E+03  0.00000000000E+00 0.  1.
          1   -1    0    0  501    0  0.00000000000E+00 -0.00000000000E+00 -0.20534743056E+02  0.20534743056E+02  0.00000000000E+00 0. -1.
         25    2    1    2    0    0  0.74652061156E+01  0.51452549093E+02  0.52394036212E+03  0.54116882341E+03  0.12508836184E+03 0.  0.
         23    2    1    2    0    0 -0.74652061156E+01 -0.51452549093E+02  0.21156883658E+03  0.23540986140E+03  0.89181478573E+02 0.  0.
          5    1    3    3  502    0 -0.19565459545E+02  0.22347519107E+02  0.48315087494E+03  0.48408104608E+03  0.41800000000E+01 0.  1.
         -5    1    3    3    0  502  0.27030665661E+02  0.29105029985E+02  0.40789487174E+02  0.57087777330E+02  0.41800000000E+01 0.  1.
        -11    1    4    4    0    0 -0.32206044037E+02  0.12114628899E+02  0.59290050903E+02  0.68551467103E+02  0.00000000000E+00 0. -1.
         11    1    4    4    0    0  0.24740837922E+02 -0.63567177992E+02  0.15227878568E+03  0.16685839429E+03  0.00000000000E+00 0.  1.
</event>
<event>
 8    1  0.6443238E-009  0.7934673E+02  0.7561462E-02  0.1330916E+00
         -2   -1    0    0    0  501 -0.00000000000E+00  0.00000000000E+00  0.16986118193E+03  0.16986118193E+03  0.00000000000E+00 0.  1.
          2   -1    0    0  501    0  0.00000000000E+00 -0.00000000000E+00 -0.10559225880E+03  0.10559225880E+03  0.00000000000E+00 0. -1.
         25    2    1    2    0    0  0.62647199858E+02  0.30465992839E+02  0.69001244936E+02  0.15893892821E+03  0.12509021836E+03 0.  0.
         23    2    1    2    0    0 -0.62647199858E+02 -0.30465992839E+02 -0.47323218073E+01  0.11651451252E+03  0.93275872485E+02 0.  0.
          5    1    3    3  502    0  0.14592419617E+02 -0.64102831854E+01  0.92408425582E+02  0.93865968057E+02  0.41800000000E+01 0.  1.
         -5    1    3    3    0  502  0.48054780241E+02  0.36876276024E+02 -0.23407180647E+02  0.65072960155E+02  0.41800000000E+01 0.  1.
        -11    1    4    4    0    0 -0.66693784242E+02 -0.19011524621E+02  0.33052899410E+02  0.76824430258E+02  0.00000000000E+00 0.  1.
         11    1    4    4    0    0  0.40465843847E+01 -0.11454468218E+02 -0.37785221217E+02  0.39690082260E+02  0.00000000000E+00 0. -1.
</event>
<event>
 8    1  0.6443238E-009  0.1376648E+03  0.7561462E-02  0.1216506E+00
          1   -1    0    0  501    0  0.00000000000E+00  0.00000000000E+00  0.11594652811E+04  0.11594652811E+04  0.00000000000E+00 0. -1.
         -1   -1    0    0    0  501 -0.00000000000E+00 -0.00000000000E+00 -0.19648380463E+02  0.19648380463E+02  0.00000000000E+00 0.  1.
         25    2    1    2    0    0 -0.81186141484E+02 -0.52391979539E+02  0.78187350207E+03  0.79769018613E+03  0.12508937093E+03 0.  0.
         23    2    1    2    0    0  0.81186141484E+02  0.52391979539E+02  0.35794339855E+03  0.38142347541E+03  0.89578356442E+02 0.  0.
          5    1    3    3  502    0 -0.10314579066E+03 -0.69991838406E+02  0.69974926657E+03  0.71077733506E+03  0.41800000000E+01 0.  1.
         -5    1    3    3    0  502  0.21959649178E+02  0.17599858867E+02  0.82124235503E+02  0.86912851070E+02  0.41800000000E+01 0.  1.
        -11    1    4    4    0    0  0.40255523755E+02  0.67446269483E+02  0.15405723529E+03  0.17292523878E+03  0.00000000000E+00 0.  1.
         11    1    4    4    0    0  0.40930617729E+02 -0.15054289945E+02  0.20388616325E+03  0.20849823663E+03  0.00000000000E+00 0. -1.
</event>
<event>
 8    1  0.6443238E-009  0.1153327E+03  0.7561462E-02  0.1251001E+00
          2   -1    0    0  501    0  0.00000000000E+00  0.00000000000E+00  0.47709517474E+03  0.47709517474E+03  0.00000000000E+00 0. -1.
         -2   -1    0    0    0  501 -0.00000000000E+00 -0.00000000000E+00 -0.57315298146E+02  0.57315298146E+02  0.00000000000E+00 0.  1.
         25    2    1    2    0    0  0.40202658025E+02 -0.88026128107E+02  0.96927649060E+02  0.18549630476E+03  0.12509619093E+03 0.  0.
         23    2    1    2    0    0 -0.40202658025E+02  0.88026128107E+02  0.32285222754E+03  0.34891416813E+03  0.90236815970E+02 0.  0.
          5    1    3    3  502    0  0.10480092778E+02 -0.41307322156E+02  0.11844172609E+03  0.12594459928E+03  0.41800000000E+01 0. -1.
         -5    1    3    3    0  502  0.29722565247E+02 -0.46718805951E+02 -0.21514077033E+02  0.59551705474E+02  0.41800000000E+01 0. -1.
        -11    1    4    4    0    0 -0.23932776915E+02 -0.14846616241E+02  0.68206886558E+02  0.73792812649E+02  0.00000000000E+00 0.  1.
         11    1    4    4    0    0 -0.16269881110E+02  0.10287274435E+03  0.25464534098E+03  0.27512135549E+03  0.00000000000E+00 0. -1.
</event>
<event>
 8    1  0.6443238E-009  0.1064658E+03  0.7561462E-02  0.1267258E+00
         -3   -1    0    0    0  501 -0.00000000000E+00  0.00000000000E+00  0.29886859371E+02  0.29886859371E+02  0.00000000000E+00 0.  1.
          3   -1    0    0  501    0  0.00000000000E+00 -0.00000000000E+00 -0.50109182552E+03  0.50109182552E+03  0.00000000000E+00 0. -1.
         25    2    1    2    0    0  0.23055091009E+02 -0.42643685588E+02 -0.15629187992E+03  0.20596183461E+03  0.12507239682E+03 0.  0.
         23    2    1    2    0    0 -0.23055091009E+02  0.42643685588E+02 -0.31491308623E+03  0.32501685027E+03  0.64153565317E+02 0.  0.
          5    1    3    3  502    0  0.72064356808E+02 -0.75518143268E+01 -0.98493430029E+02  0.12234675958E+03  0.41800000000E+01 0. -1.
         -5    1    3    3    0  502 -0.49009265799E+02 -0.35091871262E+02 -0.57798449889E+02  0.83615075031E+02  0.41800000000E+01 0. -1.
        -11    1    4    4    0    0 -0.45249122252E+02  0.31167699289E+02 -0.19932677499E+03  0.20676090485E+03  0.00000000000E+00 0.  1.
         11    1    4    4    0    0  0.22194031243E+02  0.11475986299E+02 -0.11558631123E+03  0.11825594543E+03  0.00000000000E+00 0. -1.
</event>
<event>
 7    1  0.6443238E-009  0.1677540E+03  0.7561462E-02  0.1180211E+00
         -2   -1    0    0    0  501 -0.00000000000E+00  0.00000000000E+00  0.58733164388E+03  0.58733164388E+03  0.00000000000E+00 0. -1.
          2   -1    0    0  501    0  0.00000000000E+00 -0.00000000000E+00 -0.58477722063E+02  0.58477722063E+02  0.00000000000E+00 0.  1.
         23    2    1    2    0    0  0.13537345083E+03  0.33476918646E+02  0.34308312823E+03  0.38204876015E+03  0.93853859718E+02 0.  0.
          5    1    1    2  502    0  0.13193876373E+02  0.20891545931E+02  0.93219708122E+01  0.26737737469E+02  0.41800000000E+01 0. -1.
         -5    1    1    2    0  502 -0.14856732720E+03 -0.54368464576E+02  0.17644882277E+03  0.23702286833E+03  0.41800000000E+01 0. -1.
        -11    1    3    3    0    0  0.72526400974E+02  0.48907772578E+02  0.11221504996E+03  0.14228234780E+03  0.00000000000E+00 0.  1.
         11    1    3    3    0    0  0.62847049851E+02 -0.15430853932E+02  0.23086807827E+03  0.23976641235E+03  0.00000000000E+00 0. -1.
</event>
<event>
 8    1  0.6443238E-009  0.8078767E+02  0.7561462E-02  0.1326831E+00
         -2   -1    0    0    0  501 -0.00000000000E+00  0.00000000000E+00  0.35359952601E+02  0.35359952601E+02  0.00000000000E+00 0.  1.
          2   -1    0    0  501    0  0.00000000000E+00 -0.00000000000E+00 -0.55972199267E+03  0.55972199267E+03  0.00000000000E+00 0. -1.
         25    2    1    2    0    0 -0.83915265573E+01 -0.38119647991E+02 -0.41407406858E+03  0.43431271040E+03  0.12508665343E+03 0.  0.
         23    2    1    2    0    0  0.83915265573E+01  0.38119647991E+02 -0.11028797149E+03  0.16076923487E+03  0.11027141490E+03 0.  0.
          5    1    3    3  502    0  0.83155911091E+01 -0.24092834158E+02 -0.71725863781E+01  0.26805449234E+02  0.41800000000E+01 0.  1.
         -5    1    3    3    0  502 -0.16707117666E+02 -0.14026813832E+02 -0.40690148220E+03  0.40750726117E+03  0.41800000000E+01 0.  1.
        -11    1    4    4    0    0  0.26930422893E+02 -0.31527440755E+02 -0.22462522969E+02  0.47157100589E+02  0.00000000000E+00 0. -1.
         11    1    4    4    0    0 -0.18538896336E+02  0.69647088746E+02 -0.87825448521E+02  0.11361213428E+03  0.00000000000E+00 0.  1.
</event>
<event>
 8    1  0.6443238E-009  0.2437230E+03  0.7561462E-02  0.1117337E+00
          1   -1    0    0  501    0  0.00000000000E+00  0.00000000000E+00  0.34300644674E+03  0.34300644674E+03  0.00000000000E+00 0. -1.
         -1   -1    0    0    0  501 -0.00000000000E+00 -0.00000000000E+00 -0.19408444467E+03  0.19408444467E+03  0.00000000000E+00 0.  1.
         25    2    1    2    0    0  0.67852260268E+02 -0.22258552211E+03  0.97145337065E+02  0.28148275499E+03  0.12508829268E+03 0.  0.
         23    2    1    2    0    0 -0.67852260268E+02  0.22258552211E+03  0.51776665007E+02  0.25560813642E+03  0.92230431486E+02 0.  0.
          5    1    3    3  502    0  0.87910368307E+02 -0.18885340141E+03  0.40198193215E+02  0.21219615269E+03  0.41800000000E+01 0. -1.
         -5    1    3    3    0  502 -0.20058108039E+02 -0.33732120697E+02  0.56947143851E+02  0.69286602295E+02  0.41800000000E+01 0. -1.
        -11    1    4    4    0    0 -0.31813054984E+02  0.18437721472E+03  0.80655470412E+01  0.18727541436E+03  0.00000000000E+00 0.  1.
         11    1    4    4    0    0 -0.36039205284E+02  0.38208307390E+02  0.43711117966E+02  0.68332722066E+02  0.00000000000E+00 0. -1.
</event>
<event>
 8    1  0.6443238E-009  0.9350375E+02  0.7561462E-02  0.1294582E+00
         -1   -1    0    0    0  501 -0.00000000000E+00  0.00000000000E+00  0.36558635461E+03  0.36558635461E+03  0.00000000000E+00 0.  1.
          1   -1    0    0  501    0  0.00000000000E+00 -0.00000000000E+00 -0.56226782601E+02  0.56226782601E+02  0.00000000000E+00 0. -1.
         25    2    1    2    0    0 -0.11681874642E+02  0.92293121750E+02  0.16726195139E+03  0.22866413486E+03  0.12512489629E+03 0.  0.
         23    2    1    2    0    0  0.11681874642E+02 -0.92293121750E+02  0.14209762061E+03  0.19314900234E+03  0.91979980457E+02 0.  0.
          5    1    3    3  502    0 -0.91634301099E+00  0.16483290964E+02 -0.20024359852E+02  0.26286611668E+02  0.41800000000E+01 0.  1.
         -5    1    3    3    0  502 -0.10765531631E+02  0.75809830786E+02  0.18728631124E+03  0.20237752319E+03  0.41800000000E+01 0.  1.
        -11    1    4    4    0    0  0.34154160949E+01 -0.54492246288E+02  0.14440886126E+03  0.15438584515E+03  0.00000000000E+00 0.  1.
         11    1    4    4    0    0  0.82664585475E+01 -0.37800875462E+02 -0.23112406415E+01  0.38763157198E+02  0.00000000000E+00 0. -1.
</event>
<event>
 8    1  0.6443238E-009  0.1054706E+03  0.7561462E-02  0.1269195E+00
         -3   -1    0    0    0  501 -0.00000000000E+00  0.00000000000E+00  0.10486193180E+04  0.10486193180E+04  0.00000000000E+00 0.  1.
          3   -1    0    0  501    0  0.00000000000E+00 -0.00000000000E+00 -0.19922526755E+02  0.19922526755E+02  0.00000000000E+00 0. -1.
         25    2    1    2    0    0 -0.61018155992E+01 -0.20996487689E+02  0.91099084010E+03  0.91979926884E+03  0.12509316352E+03 0.  0.
         23    2    1    2    0    0  0.61018155992E+01  0.20996487689E+02  0.11770595112E+03  0.14874257589E+03  0.88269917329E+02 0.  0.
          5    1    3    3  502    0 -0.20017242959E+02  0.48103038896E+02  0.50667587419E+03  0.50936480665E+03  0.41800000000E+01 0. -1.
         -5    1    3    3    0  502  0.13915427360E+02 -0.69099526585E+02  0.40431496591E+03  0.41043446219E+03  0.41800000000E+01 0. -1.
        -11    1    4    4    0    0  0.39912438276E+02 -0.11115837641E+02  0.74121183815E+02  0.84914748223E+02  0.00000000000E+00 0.  1.
         11    1    4    4    0    0 -0.33810622677E+02  0.32112325330E+02  0.43584767302E+02  0.63827827667E+02  0.00000000000E+00 0. -1.
</event>
<event>
 8    1  0.6443238E-009  0.1381424E+03  0.7561462E-02  0.1215851E+00
         -1   -1    0    0    0  501 -0.00000000000E+00  0.00000000000E+00  0.41361554593E+02  0.41361554593E+02  0.00000000000E+00 0.  1.
          1   -1    0    0  501    0  0.00000000000E+00 -0.00000000000E+00 -0.11197056438E+04  0.11197056438E+04  0.00000000000E+00 0. -1.
         25    2    1    2    0    0 -0.87904121745E+02 -0.89213116235E+02 -0.92989039127E+03  0.94658902401E+03  0.12509406811E+03 0.  0.
         23    2    1    2    0    0  0.87904121745E+02  0.89213116235E+02 -0.14845369796E+03  0.21447817441E+03  0.90974018982E+02 0.  0.
          5    1    3    3  502    0 -0.66036224398E+02 -0.89002561459E+02 -0.37018578855E+03  0.38644175411E+03  0.41800000000E+01 0.  1.
         -5    1    3    3    0  502 -0.21867897348E+02 -0.21055477534E+00 -0.55970460272E+03  0.56014726990E+03  0.41800000000E+01 0.  1.
        -11    1    4    4    0    0 -0.37344567926E+01  0.37910817447E+02 -0.77050595663E+01  0.38865719985E+02  0.00000000000E+00 0.  1.
         11    1    4    4    0    0  0.91638578538E+02  0.51302298787E+02 -0.14074863840E+03  0.17561245442E+03  0.00000000000E+00 0. -1.
</event>
<event>
 8    1  0.6443238E-009  0.1029382E+03  0.7561462E-02  0.1274236E+00
         -1   -1    0    0    0  501 -0.00000000000E+00  0.00000000000E+00  0.26240375539E+02  0.26240375539E+02  0.00000000000E+00 0.  1.
          1   -1    0    0  501    0  0.00000000000E+00 -0.00000000000E+00 -0.55153017205E+03  0.55153017205E+03  0.00000000000E+00 0. -1.
         25    2    1    2    0    0  0.18271266759E+01  0.28577734654E+02 -0.38145803031E+03  0.40246421905E+03  0.12508874220E+03 0.  0.
         23    2    1    2    0    0 -0.18271266759E+01 -0.28577734654E+02 -0.14383176620E+03  0.17530632853E+03  0.96045335883E+02 0.  0.
          5    1    3    3  502    0  0.51734930608E+02  0.11251223427E+02 -0.77688796154E+02  0.94106931315E+02  0.41800000000E+01 0.  1.
         -5    1    3    3    0  502 -0.49907803932E+02  0.17326511228E+02 -0.30376923415E+03  0.30835728774E+03  0.41800000000E+01 0.  1.
        -11    1    4    4    0    0 -0.91424927622E+01  0.34796380868E+02 -0.60025548003E+02  0.69981709814E+02  0.00000000000E+00 0.  1.
         11    1    4    4    0    0  0.73153660863E+01 -0.63374115523E+02 -0.83806218197E+02  0.10532461872E+03  0.00000000000E+00 0. -1.
</event>
<event>
 8    1  0.6443238E-009  0.1572181E+03  0.7561462E-02  0.1191874E+00
         -2   -1    0    0    0  501 -0.00000000000E+00  0.00000000000E+00  0.26512903411E+02  0.26512903411E+02  0.00000000000E+00 0.  1.
          2   -1    0    0  501    0  0.00000000000E+00 -0.00000000000E+00 -0.99457386929E+03  0.99457386929E+03  0.00000000000E+00 0. -1.
         25    2    1    2    0    0  0.33735367757E+02  0.11284846512E+03 -0.45768414095E+03  0.48887163405E+03  0.12509136894E+03 0.  0.
         23    2    1    2    0    0 -0.33735367757E+02 -0.11284846512E+03 -0.51037682493E+03  0.53221513866E+03  0.94316484599E+02 0.  0.
          5    1    3    3  502    0  0.67605953354E+02  0.11437401129E+03 -0.31016963490E+03  0.33745318816E+03  0.41800000000E+01 0.  1.
         -5    1    3    3    0  502 -0.33870585597E+02 -0.15255461620E+01 -0.14751450605E+03  0.15141844589E+03  0.41800000000E+01 0.  1.
        -11    1    4    4    0    0  0.29722849938E+02 -0.24206761296E+02 -0.87802183744E+02  0.95805211607E+02  0.00000000000E+00 0.  1.
         11    1    4    4    0    0 -0.63458217695E+02 -0.88641703828E+02 -0.42257464119E+03  0.43640992705E+03  0.00000000000E+00 0. -1.
</event>
<event>
 8    1  0.6443238E-009  0.1322691E+03  0.7561462E-02  0.1224127E+00
          1   -1    0    0  501    0  0.00000000000E+00  0.00000000000E+00  0.78136630927E+03  0.78136630927E+03  0.00000000000E+00 0. -1.
         -1   -1    0    0    0  501 -0.00000000000E+00 -0.00000000000E+00 -0.32834468819E+02  0.32834468819E+02  0.00000000000E+00 0.  1.
         25    2    1    2    0    0  0.82195309935E+02  0.42067768236E+00  0.18617230522E+03  0.23888043111E+03  0.12508991643E+03 0.  0.
         23    2    1    2    0    0 -0.82195309935E+02 -0.42067768236E+00  0.56235953523E+03  0.57532034698E+03  0.89381255512E+02 0.  0.
          5    1    3    3  502    0  0.14713847418E+02  0.56498392349E+02  0.50780397781E+02  0.77489914458E+02  0.41800000000E+01 0.  1.
         -5    1    3    3    0  502  0.67481462518E+02 -0.56077714667E+02  0.13539190744E+03  0.16139051665E+03  0.41800000000E+01 0.  1.
        -11    1    4    4    0    0 -0.59319369681E+02  0.40122165790E+02  0.40248067091E+03  0.40880223368E+03  0.00000000000E+00 0. -1.
         11    1    4    4    0    0 -0.22875940254E+02 -0.40542843472E+02  0.15987886433E+03  0.16651811330E+03  0.00000000000E+00 0.  1.
</event>
<event>
 8    1  0.6443238E-009  0.2094853E+03  0.7561462E-02  0.1141974E+00
         -1   -1    0    0    0  501 -0.00000000000E+00  0.00000000000E+00  0.62297941119E+02  0.62297941119E+02  0.00000000000E+00 0.  1.
          1   -1    0    0  501    0  0.00000000000E+00 -0.00000000000E+00 -0.85884374343E+03  0.85884374343E+03  0.00000000000E+00 0. -1.
         25    2    1    2    0    0  0.40887328795E+02  0.18839864864E+03 -0.54662150866E+03  0.59296545962E+03  0.12508852111E+03 0.  0.
         23    2    1    2    0    0 -0.40887328795E+02 -0.18839864864E+03 -0.24992429365E+03  0.32817622492E+03  0.89842404149E+02 0.  0.
          5    1    3    3  502    0  0.74812380708E+02  0.13635907305E+03 -0.46479116256E+03  0.49014180224E+03  0.41800000000E+01 0.  1.
         -5    1    3    3    0  502 -0.33925051914E+02  0.52039575593E+02 -0.81830346098E+02  0.10282365738E+03  0.41800000000E+01 0.  1.
        -11    1    4    4    0    0  0.37436097661E+01 -0.11606163061E+03 -0.19506490903E+03  0.22701241255E+03  0.00000000000E+00 0. -1.
         11    1    4    4    0    0 -0.44630938561E+02 -0.72337018025E+02 -0.54859384615E+02  0.10116381237E+03  0.00000000000E+00 0.  1.
</event>
<event>
 8    1  0.6443238E-009  0.1161410E+03  0.7561462E-02  0.1249603E+00
          2   -1    0    0  501    0  0.00000000000E+00  0.00000000000E+00  0.54843347550E+03  0.54843347550E+03  0.00000000000E+00 0. -1.
         -2   -1    0    0    0  501 -0.00000000000E+00 -0.00000000000E+00 -0.66464270522E+02  0.66464270522E+02  0.00000000000E+00 0.  1.
         25    2    1    2    0    0  0.90952802267E+02  0.49613264569E+02  0.63036677381E+02  0.17422295765E+03  0.12508448351E+03 0.  0.
         23    2    1    2    0    0 -0.90952802267E+02 -0.49613264569E+02  0.41893252759E+03  0.44067478837E+03  0.89195953770E+02 0.  0.
          5    1    3    3  502    0 -0.87536066315E+00  0.34502920544E+02  0.72681073949E+02  0.80568161781E+02  0.41800000000E+01 0.  1.
         -5    1    3    3    0  502  0.91828162930E+02  0.15110344025E+02 -0.96443965684E+01  0.93654795867E+02  0.41800000000E+01 0.  1.
        -11    1    4    4    0    0 -0.26510151196E+02 -0.21135770238E+02  0.29565106746E+02  0.44984491071E+02  0.00000000000E+00 0.  1.
         11    1    4    4    0    0 -0.64442651071E+02 -0.28477494331E+02  0.38936742085E+03  0.39569029730E+03  0.00000000000E+00 0. -1.
</event>
<event>
 8    1  0.6443238E-009  0.1143374E+03  0.7561462E-02  0.1252742E+00
          1   -1    0    0  501    0  0.00000000000E+00  0.00000000000E+00  0.34875944531E+03  0.34875944531E+03  0.00000000000E+00 0. -1.
         -1   -1    0    0    0  501 -0.00000000000E+00 -0.00000000000E+00 -0.42554836202E+02  0.42554836202E+02  0.00000000000E+00 0.  1.
         25    2    1    2    0    0 -0.90841998690E+01 -0.55471339699E+02  0.15506310669E+03  0.20700651283E+03  0.12509011585E+03 0.  0.
         23    2    1    2    0    0  0.90841998690E+01  0.55471339699E+02  0.15114150242E+03  0.18430776868E+03  0.89252493670E+02 0.  0.
          5    1    3    3  502    0 -0.48364236688E+02 -0.69664455813E+02  0.62692925644E+02  0.10554672482E+03  0.41800000000E+01 0. -1.
         -5    1    3    3    0  502  0.39280036819E+02  0.14193116115E+02  0.92370181043E+02  0.10145978801E+03  0.41800000000E+01 0. -1.
        -11    1    4    4    0    0  0.91420212613E+01 -0.22257390389E+02  0.59258178541E+02  0.63957014500E+02  0.00000000000E+00 0.  1.
         11    1    4    4    0    0 -0.57821392354E-01  0.77728730088E+02  0.91883323875E+02  0.12035075418E+03  0.00000000000E+00 0. -1.
</event>
<event>
 8    1  0.6443238E-009  0.7169003E+02  0.7561462E-02  0.1354439E+00
          1   -1    0    0  501    0  0.00000000000E+00  0.00000000000E+00  0.28924448577E+03  0.28924448577E+03  0.00000000000E+00 0. -1.
         -1   -1    0    0    0  501 -0.00000000000E+00 -0.00000000000E+00 -0.45680756128E+02  0.45680756128E+02  0.00000000000E+00 0.  1.
         25    2    1    2    0    0 -0.22783231058E+02 -0.27871163744E+02  0.16793483010E+03  0.21250063828E+03  0.12513407498E+03 0.  0.
         23    2    1    2    0    0  0.22783231058E+02  0.27871163744E+02  0.75628899542E+02  0.12242460362E+03  0.89287041276E+02 0.  0.
          5    1    3    3  502    0 -0.35279565286E+01  0.88865871229E+01  0.17040271730E+03  0.17072192704E+03  0.41800000000E+01 0.  1.
         -5    1    3    3    0  502 -0.19255274529E+02 -0.36757750867E+02 -0.24678871964E+01  0.41778711244E+02  0.41800000000E+01 0.  1.
        -11    1    4    4    0    0 -0.32047139716E+02  0.10122835189E+02  0.99591368657E+01  0.35052465867E+02  0.00000000000E+00 0.  1.
         11    1    4    4    0    0  0.54830370774E+02  0.17748328555E+02  0.65669762676E+02  0.87372137753E+02  0.00000000000E+00 0. -1.
</event>
<event>
 8    1  0.6443238E-009  0.1160313E+03  0.7561462E-02  0.1249792E+00
          1   -1    0    0  501    0  0.00000000000E+00  0.00000000000E+00  0.80728368243E+02  0.80728368243E+02  0.00000000000E+00 0. -1.
         -1   -1    0    0    0  501 -0.00000000000E+00 -0.00000000000E+00 -0.20915638445E+03  0.20915638445E+03  0.00000000000E+00 0.  1.
         25    2    1    2    0    0  0.31351211239E+02 -0.56252710298E+02 -0.48127354013E+02  0.14870049969E+03  0.12509328736E+03 0.  0.
         23    2    1    2    0    0 -0.31351211239E+02  0.56252710298E+02 -0.80300662194E+02  0.14118425300E+03  0.96630901295E+02 0.  0.
          5    1    3    3  502    0  0.17529940459E+02  0.36174904122E+02  0.56307732515E+01  0.40805643092E+02  0.41800000000E+01 0.  1.
         -5    1    3    3    0  502  0.13821270780E+02 -0.92427614420E+02 -0.53758127265E+02  0.10789485660E+03  0.41800000000E+01 0.  1.
        -11    1    4    4    0    0 -0.45397122085E+02  0.66636767978E+02 -0.90297904452E+02  0.12105812277E+03  0.00000000000E+00 0.  1.
         11    1    4    4    0    0  0.14045910846E+02 -0.10384057680E+02  0.99972422578E+01  0.20126130233E+02  0.00000000000E+00 0. -1.
</event>
<event>
 8    1  0.6443238E-009  0.1115133E+03  0.7561462E-02  0.1257793E+00
          3   -1    0    0  501    0  0.00000000000E+00  0.00000000000E+00  0.51337586663E+02  0.51337586663E+02  0.00000000000E+00 0. -1.
         -3   -1    0    0    0  501 -0.00000000000E+00 -0.00000000000E+00 -0.38741542089E+03  0.38741542089E+03  0.00000000000E+00 0.  1.
         25    2    1    2    0    0  0.39629808630E+02  0.60037667178E+02 -0.26718969743E+03  0.30366511693E+03  0.12508847114E+03 0.  0.
         23    2    1    2    0    0 -0.39629808630E+02 -0.60037667178E+02 -0.68888136795E+02  0.13508789063E+03  0.91258531605E+02 0.  0.
          5    1    3    3  502    0 -0.16350491668E+02  0.64690326342E+02 -0.63049560263E+02  0.91896117161E+02  0.41800000000E+01 0.  1.
         -5    1    3    3    0  502  0.55980300298E+02 -0.46526591639E+01 -0.20414013717E+03  0.21176899977E+03  0.41800000000E+01 0.  1.
        -11    1    4    4    0    0  0.19637603897E+02 -0.88888422714E+01 -0.50154997544E+02  0.54590940479E+02  0.00000000000E+00 0.  1.
         11    1    4    4    0    0 -0.59267412527E+02 -0.51148824906E+02 -0.18733139252E+02  0.80496950148E+02  0.00000000000E+00 0. -1.
</event>
<event>
 8    1  0.6443238E-009  0.1279101E+03  0.7561462E-02  0.1230590E+00
          2   -1    0    0  501    0  0.00000000000E+00  0.00000000000E+00  0.65634869399E+03  0.65634869399E+03  0.00000000000E+00 0.  1.
         -2   -1    0    0    0  501 -0.00000000000E+00 -0.00000000000E+00 -0.36624865714E+02  0.36624865714E+02  0.00000000000E+00 0. -1.
         25    2    1    2    0    0  0.33303833044E+02 -0.95353877855E+02  0.23345606184E+03  0.28346267548E+03  0.12509135967E+03 0.  0.
         23    2    1    2    0    0 -0.33303833044E+02  0.95353877855E+02  0.38626776643E+03  0.40951088422E+03  0.91076174654E+02 0.  0.
          5    1    3    3  502    0  0.38515437785E+02  0.97840061129E+00  0.15282338310E+03  0.15766056907E+03  0.41800000000E+01 0.  1.
         -5    1    3    3    0  502 -0.52116047411E+01 -0.96332278466E+02  0.80632678737E+02  0.12580210642E+03  0.41800000000E+01 0.  1.
        -11    1    4    4    0    0 -0.46832453289E+02  0.34512998235E+02  0.93028628598E+02  0.10972124437E+03  0.00000000000E+00 0. -1.
         11    1    4    4    0    0  0.13528620245E+02  0.60840879619E+02  0.29323913783E+03  0.29978963984E+03  0.00000000000E+00 0.  1.
</event>
<event>
 8    1  0.6443238E-009  0.1127217E+03  0.7561462E-02  0.1255611E+00
          2   -1    0    0  501    0  0.00000000000E+00  0.00000000000E+00  0.84282204316E+02  0.84282204316E+02  0.00000000000E+00 0. -1.
         -2   -1    0    0    0  501 -0.00000000000E+00 -0.00000000000E+00 -0.17684196154E+03  0.17684196154E+03  0.00000000000E+00 0.  1.
         25    2    1    2    0    0 -0.40255441273E+02  0.34014321644E+02 -0.30595523932E+02  0.13914507114E+03  0.12509112722E+03 0.  0.
         23    2    1    2    0    0  0.40255441273E+02 -0.34014321644E+02 -0.61964233296E+02  0.12197909472E+03  0.90894767240E+02 0.  0.
          5    1    3    3  502    0 -0.91149394194E+01  0.79095623981E+02 -0.95336786371E+01  0.80296720244E+02  0.41800000000E+01 0. -1.
         -5    1    3    3    0  502 -0.31140501853E+02 -0.45081302337E+02 -0.21061845295E+02  0.58848350897E+02  0.41800000000E+01 0. -1.
        -11    1    4    4    0    0 -0.18470143104E+02 -0.25407460919E+02 -0.53480390436E+02  0.62022878181E+02  0.00000000000E+00 0.  1.
         11    1    4    4    0    0  0.58725584377E+02 -0.86068607251E+01 -0.84838428600E+01  0.59956216539E+02  0.00000000000E+00 0. -1.
</event>
<event>
 8    1  0.6443238E-009  0.1031527E+03  0.7561462E-02  0.1273803E+00
          3   -1    0    0  501    0  0.00000000000E+00  0.00000000000E+00  0.12919757119E+03  0.12919757119E+03  0.00000000000E+00 0. -1.
         -3   -1    0    0    0  501 -0.00000000000E+00 -0.00000000000E+00 -0.90104264976E+02  0.90104264976E+02  0.00000000000E+00 0.  1.
         25    2    1    2    0    0  0.21997414410E+02 -0.15674878773E+02  0.29831550190E+01  0.12800930862E+03  0.12509154973E+03 0.  0.
         23    2    1    2    0    0 -0.21997414410E+02  0.15674878773E+02  0.36110151192E+02  0.91292527546E+02  0.79377544062E+02 0.  0.
          5    1    3    3  502    0 -0.49118417558E+02  0.12359344678E+02  0.72402297807E+01  0.51334838770E+02  0.41800000000E+01 0. -1.
         -5    1    3    3    0  502  0.71115831967E+02 -0.28034223451E+02 -0.42570747617E+01  0.76674469848E+02  0.41800000000E+01 0. -1.
        -11    1    4    4    0    0  0.24771459565E+02  0.20168016958E+02 -0.14965969972E+00  0.31943645926E+02  0.00000000000E+00 0.  1.
         11    1    4    4    0    0 -0.46768873975E+02 -0.44931381855E+01  0.36259810891E+02  0.59348881620E+02  0.00000000000E+00 0. -1.
</event>
<event>
 8    1  0.6443238E-009  0.1438221E+03  0.7561462E-02  0.1208277E+00
         -1   -1    0    0    0  501 -0.00000000000E+00  0.00000000000E+00  0.25359554748E+02  0.25359554748E+02  0.00000000000E+00 0.  1.
          1   -1    0    0  501    0  0.00000000000E+00 -0.00000000000E+00 -0.11737891429E+04  0.11737891429E+04  0.00000000000E+00 0. -1.
         25    2    1    2    0    0  0.95061426621E+02  0.62426554402E+01 -0.93473319142E+03  0.94786645544E+03  0.12509609364E+03 0.  0.
         23    2    1    2    0    0 -0.95061426621E+02 -0.62426554402E+01 -0.21369639669E+03  0.25128224216E+03  0.91656803825E+02 0.  0.
          5    1    3    3  502    0 -0.25892875387E+02  0.21684089726E+02 -0.25635371696E+03  0.25860267080E+03  0.41800000000E+01 0. -1.
         -5    1    3    3    0  502  0.12095430201E+03 -0.15441434286E+02 -0.67837947445E+03  0.68926378465E+03  0.41800000000E+01 0. -1.
        -11    1    4    4    0    0 -0.78406708249E+02  0.35942025575E+02 -0.15106523521E+03  0.17395443768E+03  0.00000000000E+00 0. -1.
         11    1    4    4    0    0 -0.16654718371E+02 -0.42184681016E+02 -0.62631161488E+02  0.77327804480E+02  0.00000000000E+00 0.  1.
</event>
<event>
 8    1  0.6443238E-009  0.1141247E+03  0.7561462E-02  0.1253117E+00
         -1   -1    0    0    0  501 -0.00000000000E+00  0.00000000000E+00  0.28959240395E+03  0.28959240395E+03  0.00000000000E+00 0.  1.
          1   -1    0    0  501    0  0.00000000000E+00 -0.00000000000E+00 -0.49585840626E+02  0.49585840626E+02  0.00000000000E+00 0. -1.
         25    2    1    2    0    0 -0.10112216112E+02 -0.35336697753E+02  0.18472898991E+03  0.22610227209E+03  0.12508596488E+03 0.  0.
         23    2    1    2    0    0  0.10112216112E+02  0.35336697753E+02  0.55277573418E+02  0.11307597249E+03  0.91540298819E+02 0.  0.
          5    1    3    3  502    0 -0.35145883475E+02  0.38363429910E+02  0.80733400645E+02  0.96137090966E+02  0.41800000000E+01 0.  1.
         -5    1    3    3    0  502  0.25033667363E+02 -0.73700127662E+02  0.10399558926E+03  0.12996518112E+03  0.41800000000E+01 0.  1.
        -11    1    4    4    0    0 -0.40424384154E+02  0.10346789163E+02  0.29390049164E+02  0.51038827083E+02  0.00000000000E+00 0.  1.
         11    1    4    4    0    0  0.50536600265E+02  0.24989908590E+02  0.25887524254E+02  0.62037145403E+02  0.00000000000E+00 0. -1.
</event>
<event>
 8    1  0.6443238E-009  0.1413872E+03  0.7561462E-02  0.1211475E+00
          1   -1    0    0  501    0  0.00000000000E+00  0.00000000000E+00  0.34579126957E+03  0.34579126957E+03  0.00000000000E+00 0. -1.
         -1   -1    0    0    0  501 -0.00000000000E+00 -0.00000000000E+00 -0.74186761915E+02  0.74186761915E+02  0.00000000000E+00 0.  1.
         25    2    1    2    0    0 -0.11277410175E+03 -0.20359200077E+02  0.11303714364E+03  0.20384335496E+03  0.12506887089E+03 0.  0.
         23    2    1    2    0    0  0.11277410175E+03  0.20359200077E+02  0.15856736402E+03  0.21613467653E+03  0.91859100870E+02 0.  0.
          5    1    3    3  502    0 -0.65419215360E+02  0.50117832734E+02  0.71695770524E+02  0.10931251899E+03  0.41800000000E+01 0. -1.
         -5    1    3    3    0  502 -0.47354886389E+02 -0.70477032811E+02  0.41341373114E+02  0.94530835972E+02  0.41800000000E+01 0. -1.
        -11    1    4    4    0    0  0.44838428471E+02  0.14194878157E+02  0.40210336192E+01  0.47203262017E+02  0.00000000000E+00 0.  1.
         11    1    4    4    0    0  0.67935673278E+02  0.61643219201E+01  0.15454633040E+03  0.16893141451E+03  0.00000000000E+00 0. -1.
</event>
<event>
 8    1  0.6443238E-009  0.1610755E+03  0.7561462E-02  0.1187488E+00
          2   -1    0    0  501    0  0.00000000000E+00  0.00000000000E+00  0.38667414397E+03  0.38667414397E+03  0.00000000000E+00 0. -1.
         -2   -1    0    0    0  501 -0.00000000000E+00 -0.00000000000E+00 -0.77854342989E+02  0.77854342989E+02  0.00000000000E+00 0.  1.
         25    2    1    2    0    0 -0.62741165180E+02 -0.11955907446E+03  0.17653001785E+03  0.25502623654E+03  0.12507880727E+03 0.  0.
         23    2    1    2    0    0  0.62741165180E+02  0.11955907446E+03  0.13228978313E+03  0.20950225042E+03  0.90331501250E+02 0.  0.
          5    1    3    3  502    0 -0.41293437164E+02 -0.14403333873E+03  0.13211058283E+03  0.19980347623E+03  0.41800000000E+01 0. -1.
         -5    1    3    3    0  502 -0.21447728017E+02  0.24474264269E+02  0.44419435019E+02  0.55222760308E+02  0.41800000000E+01 0. -1.
        -11    1    4    4    0    0  0.81588465857E+01  0.51800747811E+02  0.15569267227E+01  0.52462446304E+02  0.00000000000E+00 0.  1.
         11    1    4    4    0    0  0.54582318595E+02  0.67758326646E+02  0.13073285641E+03  0.15703980412E+03  0.00000000000E+00 0. -1.
</event>
<event>
 8    1  0.6443238E-009  0.1267959E+03  0.7561462E-02  0.1232289E+00
         -1   -1    0    0    0  501 -0.00000000000E+00  0.00000000000E+00  0.79906216942E+02  0.79906216942E+02  0.00000000000E+00 0.  1.
          1   -1    0    0  501    0  0.00000000000E+00 -0.00000000000E+00 -0.33425338400E+03  0.33425338400E+03  0.00000000000E+00 0. -1.
         25    2    1    2    0    0 -0.68073369725E+01 -0.90865414890E+02 -0.33571712699E+02  0.15839100171E+03  0.12513107556E+03 0.  0.
         23    2    1    2    0    0  0.68073369725E+01  0.90865414890E+02 -0.22077545436E+03  0.25576859923E+03  0.91503615477E+02 0.  0.
          5    1    3    3  502    0 -0.50553691068E+02 -0.97683982292E+02 -0.27973466298E+02  0.11356858410E+03  0.41800000000E+01 0.  1.
         -5    1    3    3    0  502  0.43746354095E+02  0.68185674023E+01 -0.55982464008E+01  0.44822417615E+02  0.41800000000E+01 0.  1.
        -11    1    4    4    0    0 -0.11411739858E+02  0.71719165776E+02 -0.64052565124E+02  0.96832833508E+02  0.00000000000E+00 0.  1.
         11    1    4    4    0    0  0.18219076831E+02  0.19146249114E+02 -0.15672288924E+03  0.15893576572E+03  0.00000000000E+00 0. -1.
</event>
<event>
 8    1  0.6443238E-009  0.1338264E+03  0.7561462E-02  0.1221886E+00
          3   -1    0    0  501    0  0.00000000000E+00  0.00000000000E+00  0.10813163064E+03  0.10813163064E+03  0.00000000000E+00 0. -1.
         -3   -1    0    0    0  501 -0.00000000000E+00 -0.00000000000E+00 -0.28254192940E+03  0.28254192940E+03  0.00000000000E+00 0.  1.
         25    2    1    2    0    0 -0.11516938492E+03  0.41389861828E+02 -0.16025591522E+03  0.23729004839E+03  0.12508997089E+03 0.  0.
         23    2    1    2    0    0  0.11516938492E+03 -0.41389861828E+02 -0.14154383545E+02  0.15338351165E+03  0.91373120699E+02 0.  0.
          5    1    3    3  502    0 -0.77389075959E+02  0.36477762029E+02 -0.14871668053E+02  0.86938685930E+02  0.41800000000E+01 0.  1.
         -5    1    3    3    0  502 -0.37780308964E+02  0.49120997989E+01 -0.14538424717E+03  0.15035136246E+03  0.41800000000E+01 0.  1.
        -11    1    4    4    0    0  0.66561506926E+02  0.16002629145E+02  0.19213468225E+02  0.71103274925E+02  0.00000000000E+00 0. -1.
         11    1    4    4    0    0  0.48607877997E+02 -0.57392490973E+02 -0.33367851770E+02  0.82280236723E+02  0.00000000000E+00 0.  1.
</event>
<event>
 8    1  0.6443238E-009  0.7517793E+02  0.7561462E-02  0.1343321E+00
          2   -1    0    0  501    0  0.00000000000E+00  0.00000000000E+00  0.99302775532E+02  0.99302775532E+02  0.00000000000E+00 0.  1.
         -2   -1    0    0    0  501 -0.00000000000E+00 -0.00000000000E+00 -0.14011810578E+03  0.14011810578E+03  0.00000000000E+00 0. -1.
         25    2    1    2    0    0  0.21385453159E+02  0.29210823092E+02  0.63805601220E+01  0.13038036438E+03  0.12509083930E+03 0.  0.
         23    2    1    2    0    0 -0.21385453159E+02 -0.29210823092E+02 -0.47195890371E+02  0.10904051693E+03  0.91388032433E+02 0.  0.
          5    1    3    3  502    0 -0.15105720815E+01 -0.83810393748E+01 -0.54399291180E+02  0.55220276438E+02  0.41800000000E+01 0.  1.
         -5    1    3    3    0  502  0.22896025240E+02  0.37591862467E+02  0.60779851302E+02  0.75160087944E+02  0.41800000000E+01 0.  1.
        -11    1    4    4    0    0 -0.56108530886E+02 -0.25829133294E+02 -0.20398502388E+02  0.65049291038E+02  0.00000000000E+00 0.  1.
         11    1    4    4    0    0  0.34723077727E+02 -0.33816897985E+01 -0.26797387984E+02  0.43991225892E+02  0.00000000000E+00 0. -1.
</event>
<event>
 8    1  0.6443238E-009  0.1119802E+03  0.7561462E-02  0.1256946E+00
          2   -1    0    0  501    0  0.00000000000E+00  0.00000000000E+00  0.60082447099E+02  0.60082447099E+02  0.00000000000E+00 0. -1.
         -2   -1    0    0    0  501 -0.00000000000E+00 -0.00000000000E+00 -0.31266491577E+03  0.31266491577E+03  0.00000000000E+00 0.  1.
         25    2    1    2    0    0 -0.74383244722E+02 -0.36758258343E+02 -0.14619769338E+03  0.20953586573E+03  0.12508987498E+03 0.  0.
         23    2    1    2    0    0  0.74383244722E+02  0.36758258343E+02 -0.10638477529E+03  0.16321149715E+03  0.91848983309E+02 0.  0.
          5    1    3    3  502    0 -0.39463903895E+02  0.40077267295E+02 -0.24772590262E+02  0.61601466644E+02  0.41800000000E+01 0.  1.
         -5    1    3    3    0  502 -0.34919340827E+02 -0.76835525638E+02 -0.12142510312E+03  0.14793439908E+03  0.41800000000E+01 0.  1.
        -11    1    4    4    0    0  0.22205618756E+02  0.90445658646E+01 -0.10108913909E+03  0.10389373282E+03  0.00000000000E+00 0.  1.
         11    1    4    4    0    0  0.52177625966E+02  0.27713692479E+02 -0.52956361992E+01  0.59317764330E+02  0.00000000000E+00 0. -1.
</event>
<event>
 8    1  0.6443238E-009  0.8728365E+02  0.7561462E-02  0.1309566E+00
         -1   -1    0    0    0  501 -0.00000000000E+00  0.00000000000E+00  0.24031930907E+03  0.24031930907E+03  0.00000000000E+00 0.  1.
          1   -1    0    0  501    0  0.00000000000E+00 -0.00000000000E+00 -0.57970738816E+02  0.57970738816E+02  0.00000000000E+00 0. -1.
         25    2    1    2    0    0 -0.35638780598E+02 -0.52309324149E+01  0.14194370332E+03  0.19259533352E+03  0.12508981672E+03 0.  0.
         23    2    1    2    0    0  0.35638780598E+02  0.52309324149E+01  0.40404866939E+02  0.10569471437E+03  0.90781793528E+02 0.  0.
          5    1    3    3  502    0 -0.78463873338E+01 -0.59059312588E+02  0.33948778420E+02  0.68699054970E+02  0.41800000000E+01 0. -1.
         -5    1    3    3    0  502 -0.27792393264E+02  0.53828380173E+02  0.10799492490E+03  0.12389627855E+03  0.41800000000E+01 0. -1.
        -11    1    4    4    0    0  0.17479350207E+02  0.22882025586E+02 -0.23364301817E+02  0.37081064952E+02  0.00000000000E+00 0. -1.
         11    1    4    4    0    0  0.18159430391E+02 -0.17651093171E+02  0.63769168756E+02  0.68613649415E+02  0.00000000000E+00 0.  1.
</event>
<event>
 8    1  0.6443238E-009  0.8804015E+02  0.7561462E-02  0.1307668E+00
         -3   -1    0    0    0  501 -0.00000000000E+00  0.00000000000E+00  0.24538168503E+02  0.24538168503E+02  0.00000000000E+00 0.  1.
          3   -1    0    0  501    0  0.00000000000E+00 -0.00000000000E+00 -0.58572236444E+03  0.58572236444E+03  0.00000000000E+00 0. -1.
         25    2    1    2    0    0  0.86749084556E+01  0.40739188664E+02 -0.41403247720E+03  0.43451712271E+03  0.12508917707E+03 0.  0.
         23    2    1    2    0    0 -0.86749084556E+01 -0.40739188664E+02 -0.14715171873E+03  0.17574341023E+03  0.86586271340E+02 0.  0.
          5    1    3    3  502    0  0.60272908580E+02  0.42410293013E+01 -0.27714331678E+03  0.28368415583E+03  0.41800000000E+01 0.  1.
         -5    1    3    3    0  502 -0.51598000124E+02  0.36498159363E+02 -0.13688916043E+03  0.15083296688E+03  0.41800000000E+01 0.  1.
        -11    1    4    4    0    0 -0.19758938557E+02 -0.17365469134E+02  0.30212797291E-01  0.26305438296E+02  0.00000000000E+00 0.  1.
         11    1    4    4    0    0  0.11084030101E+02 -0.23373719530E+02 -0.14718193153E+03  0.14943797193E+03  0.00000000000E+00 0. -1.
</event>
<event>
 8    1  0.6443238E-009  0.1695754E+03  0.7561462E-02  0.1178291E+00
          2   -1    0    0  501    0  0.00000000000E+00  0.00000000000E+00  0.16207663888E+04  0.16207663888E+04  0.00000000000E+00 0. -1.
         -2   -1    0    0    0  501 -0.00000000000E+00 -0.00000000000E+00 -0.49874534902E+02  0.49874534902E+02  0.00000000000E+00 0.  1.
         25    2    1    2    0    0  0.18488731721E+02  0.13225151151E+03  0.14665356575E+04  0.14779059163E+04  0.12508703840E+03 0.  0.
         23    2    1    2    0    0 -0.18488731721E+02 -0.13225151151E+03  0.10435619640E+03  0.19273500742E+03  0.91783832237E+02 0.  0.
          5    1    3    3  502    0 -0.41620176521E+02  0.10514937987E+03  0.77451002768E+03  0.78273359872E+03  0.41800000000E+01 0.  1.
         -5    1    3    3    0  502  0.60108908242E+02  0.27102131646E+02  0.69202562979E+03  0.69517231754E+03  0.41800000000E+01 0.  1.
        -11    1    4    4    0    0 -0.50138268878E+02 -0.46000271891E+02  0.59976153821E+02  0.90702866809E+02  0.00000000000E+00 0. -1.
         11    1    4    4    0    0  0.31649537157E+02 -0.86251239620E+02  0.44380042582E+02  0.10203214061E+03  0.00000000000E+00 0.  1.
</event>
<event>
 8    1  0.6443238E-009  0.1921025E+03  0.7561462E-02  0.1156579E+00
         -1   -1    0    0    0  501 -0.00000000000E+00  0.00000000000E+00  0.13315977310E+03  0.13315977310E+03  0.00000000000E+00 0.  1.
          1   -1    0    0  501    0  0.00000000000E+00 -0.00000000000E+00 -0.30826082122E+03  0.30826082122E+03  0.00000000000E+00 0. -1.
         25    2    1    2    0    0  0.11862098912E+03  0.11388632029E+03 -0.41245691251E+02  0.21069199723E+03  0.12509547410E+03 0.  0.
         23    2    1    2    0    0 -0.11862098912E+03 -0.11388632029E+03 -0.13385535688E+03  0.23072859709E+03  0.90980195327E+02 0.  0.
          5    1    3    3  502    0 -0.23101641718E+02  0.36240976572E+02  0.24114542987E+01  0.43247910294E+02  0.41800000000E+01 0. -1.
         -5    1    3    3    0  502  0.14172263084E+03  0.77645343721E+02 -0.43657145550E+02  0.16744408694E+03  0.41800000000E+01 0. -1.
        -11    1    4    4    0    0 -0.77277400324E+02 -0.11436447189E+03 -0.70272424553E+02  0.15488461087E+03  0.00000000000E+00 0. -1.
         11    1    4    4    0    0 -0.41343588794E+02  0.47815159583E+00 -0.63582932324E+02  0.75843986223E+02  0.00000000000E+00 0.  1.
</event>
<event>
 8    1  0.6443238E-009  0.1603145E+03  0.7561462E-02  0.1188342E+00
          1   -1    0    0  501    0  0.00000000000E+00  0.00000000000E+00  0.12047528036E+04  0.12047528036E+04  0.00000000000E+00 0.  1.
         -1   -1    0    0    0  501 -0.00000000000E+00 -0.00000000000E+00 -0.48815397601E+02  0.48815397601E+02  0.00000000000E+00 0. -1.
         25    2    1    2    0    0  0.10449490068E+03 -0.92710972551E+02  0.10253315954E+04  0.10423365934E+04  0.12508470990E+03 0.  0.
         23    2    1    2    0    0 -0.10449490068E+03  0.92710972551E+02  0.13060581054E+03  0.21123160777E+03  0.89701759604E+02 0.  0.
          5    1    3    3  502    0  0.18990963742E+01  0.11199432114E+02  0.78617127713E+01  0.14433044530E+02  0.41800000000E+01 0.  1.
         -5    1    3    3    0  502  0.10259580430E+03 -0.10391040466E+03  0.10174698827E+04  0.10279035489E+04  0.41800000000E+01 0.  1.
        -11    1    4    4    0    0 -0.10098949965E+03  0.38442702842E+02  0.10659049837E+03  0.15178357877E+03  0.00000000000E+00 0.  1.
         11    1    4    4    0    0 -0.35054010259E+01  0.54268269709E+02  0.24015312172E+02  0.59448029002E+02  0.00000000000E+00 0. -1.
</event>
<event>
 8    1  0.6443238E-009  0.2084121E+03  0.7561462E-02  0.1142830E+00
         -2   -1    0    0    0  501 -0.00000000000E+00  0.00000000000E+00  0.29443944475E+02  0.29443944475E+02  0.00000000000E+00 0.  1.
          2   -1    0    0  501    0  0.00000000000E+00 -0.00000000000E+00 -0.16011335326E+04  0.16011335326E+04  0.00000000000E+00 0. -1.
         25    2    1    2    0    0 -0.16290704496E+03 -0.73301336928E+02 -0.91859885538E+03  0.94413086087E+03  0.12508970403E+03 0.  0.
         23    2    1    2    0    0  0.16290704496E+03  0.73301336928E+02 -0.65309073275E+03  0.68644661621E+03  0.11300292211E+03 0.  0.
          5    1    3    3  502    0 -0.15094044037E+03 -0.98574961660E+01 -0.69946172034E+03  0.71564261848E+03  0.41800000000E+01 0. -1.
         -5    1    3    3    0  502 -0.11966604586E+02 -0.63443840762E+02 -0.21913713504E+03  0.22848824239E+03  0.41800000000E+01 0. -1.
        -11    1    4    4    0    0  0.94016557410E+02  0.89752454906E+02 -0.31044492882E+03  0.33655708291E+03  0.00000000000E+00 0. -1.
         11    1    4    4    0    0  0.68890487551E+02 -0.16451117979E+02 -0.34264580394E+03  0.34988953330E+03  0.00000000000E+00 0.  1.
</event>
<event>
 8    1  0.6443238E-009  0.1127481E+03  0.7561462E-02  0.1255564E+00
         -2   -1    0    0    0  501 -0.00000000000E+00  0.00000000000E+00  0.18180433515E+03  0.18180433515E+03  0.00000000000E+00 0.  1.
          2   -1    0    0  501    0  0.00000000000E+00 -0.00000000000E+00 -0.88288259683E+02  0.88288259683E+02  0.00000000000E+00 0. -1.
         25    2    1    2    0    0 -0.26222985051E+02 -0.60457824723E+02  0.35794666437E+02  0.14584645840E+03  0.12508851973E+03 0.  0.
         23    2    1    2    0    0  0.26222985051E+02  0.60457824723E+02  0.57721409028E+02  0.12424613643E+03  0.88105322436E+02 0.  0.
          5    1    3    3  502    0 -0.74322540169E+02 -0.47289798614E+02  0.37359366816E+02  0.95777657724E+02  0.41800000000E+01 0. -1.
         -5    1    3    3    0  502  0.48099555118E+02 -0.13168026109E+02 -0.15647003798E+01  0.50068800679E+02  0.41800000000E+01 0. -1.
        -11    1    4    4    0    0 -0.17319050811E+02  0.79738298944E+01  0.52496658277E+02  0.55851863124E+02  0.00000000000E+00 0.  1.
         11    1    4    4    0    0  0.43542035862E+02  0.52483994829E+02  0.52247507509E+01  0.68394273303E+02  0.00000000000E+00 0. -1.
</event>
<event>
 8    1  0.6443238E-009  0.1102271E+03  0.7561462E-02  0.1260150E+00
          1   -1    0    0  501    0  0.00000000000E+00  0.00000000000E+00  0.90985805049E+03  0.90985805049E+03  0.00000000000E+00 0. -1.
         -1   -1    0    0    0  501 -0.00000000000E+00 -0.00000000000E+00 -0.19708377063E+02  0.19708377063E+02  0.00000000000E+00 0.  1.
         25    2    1    2    0    0 -0.71185263525E+02 -0.29546208875E+02  0.53674623282E+03  0.55649170705E+03  0.12508469681E+03 0.  0.
         23    2    1    2    0    0  0.71185263525E+02  0.29546208875E+02  0.35340344061E+03  0.37307472050E+03  0.91380714803E+02 0.  0.
          5    1    3    3  502    0 -0.19170610212E+02  0.22074020656E+02  0.40172352122E+03  0.40280768933E+03  0.41800000000E+01 0. -1.
         -5    1    3    3    0  502 -0.52014653313E+02 -0.51620229531E+02  0.13502271159E+03  0.15368401772E+03  0.41800000000E+01 0. -1.
        -11    1    4    4    0    0  0.12732376517E+02 -0.30907998918E+02  0.13404209365E+03  0.13814738752E+03  0.00000000000E+00 0.  1.
         11    1    4    4    0    0  0.58452887008E+02  0.60454207794E+02  0.21936134696E+03  0.23492733298E+03  0.00000000000E+00 0. -1.
</event>
<event>
 8    1  0.6443238E-009  0.1072005E+03  0.7561462E-02  0.1265844E+00
         -2   -1    0    0    0  501 -0.00000000000E+00  0.00000000000E+00  0.25777841958E+02  0.25777841958E+02  0.00000000000E+00 0.  1.
          2   -1    0    0  501    0  0.00000000000E+00 -0.00000000000E+00 -0.61090301035E+03  0.61090301035E+03  0.00000000000E+00 0. -1.
         25    2    1    2    0    0 -0.45282935331E+02 -0.22204101528E+01 -0.42524818825E+03  0.44558128688E+03  0.12510470477E+03 0.  0.
         23    2    1    2    0    0  0.45282935331E+02  0.22204101528E+01 -0.15987698015E+03  0.19109956543E+03  0.94355289590E+02 0.  0.
          5    1    3    3  502    0 -0.74580258068E+02 -0.39570490410E+02 -0.24655426708E+03  0.26064250924E+03  0.41800000000E+01 0.  1.
         -5    1    3    3    0  502  0.29297322737E+02  0.37350080258E+02 -0.17869392117E+03  0.18493877764E+03  0.41800000000E+01 0.  1.
        -11    1    4    4    0    0  0.12755207537E+01 -0.28511956564E+02 -0.12227834205E+03  0.12556492964E+03  0.00000000000E+00 0.  1.
         11    1    4    4    0    0  0.44007414577E+02  0.30732366717E+02 -0.37598638096E+02  0.65534635793E+02  0.00000000000E+00 0. -1.
</event>
<event>
 8    1  0.6443238E-009  0.7694005E+02  0.7561462E-02  0.1337966E+00
         -1   -1    0    0    0  501 -0.00000000000E+00  0.00000000000E+00  0.35419075697E+02  0.35419075697E+02  0.00000000000E+00 0.  1.
          1   -1    0    0  501    0  0.00000000000E+00 -0.00000000000E+00 -0.39252586662E+03  0.39252586662E+03  0.00000000000E+00 0. -1.
         25    2    1    2    0    0  0.16929747083E+02 -0.35917805766E+02 -0.15596569491E+03  0.20383524420E+03  0.12508718432E+03 0.  0.
         23    2    1    2    0    0 -0.16929747083E+02  0.35917805766E+02 -0.20114109601E+03  0.22410969811E+03  0.90502547908E+02 0.  0.
          5    1    3    3  502    0 -0.23947280442E+02 -0.27759497918E+02  0.52454567690E+01  0.37269950120E+02  0.41800000000E+01 0. -1.
         -5    1    3    3    0  502  0.40877027525E+02 -0.81583078479E+01 -0.16121115168E+03  0.16656529408E+03  0.41800000000E+01 0. -1.
        -11    1    4    4    0    0  0.15622779170E+02  0.39367436757E+02 -0.35497289656E+02  0.55262318796E+02  0.00000000000E+00 0.  1.
         11    1    4    4    0    0 -0.32552526252E+02 -0.34496309911E+01 -0.16564380635E+03  0.16884737932E+03  0.00000000000E+00 0. -1.
</event>
<event>
 8    1  0.6443238E-009  0.8014141E+02  0.7561462E-02  0.1328651E+00
          1   -1    0    0  501    0  0.00000000000E+00  0.00000000000E+00  0.13444370502E+03  0.13444370502E+03  0.00000000000E+00 0. -1.
         -1   -1    0    0    0  501 -0.00000000000E+00 -0.00000000000E+00 -0.10481689403E+03  0.10481689403E+03  0.00000000000E+00 0.  1.
         25    2    1    2    0    0 -0.22782105265E+01  0.26523565496E+02 -0.24891708398E+02  0.13029177642E+03  0.12509060750E+03 0.  0.
         23    2    1    2    0    0  0.22782105265E+01 -0.26523565496E+02  0.54518519389E+02  0.10896882264E+03  0.90516548658E+02 0.  0.
          5    1    3    3  502    0  0.39191924904E+02 -0.12892094697E+02  0.29773829985E+02  0.51050626200E+02  0.41800000000E+01 0. -1.
         -5    1    3    3    0  502 -0.41470135431E+02  0.39415660193E+02 -0.54665538384E+02  0.79241150218E+02  0.41800000000E+01 0. -1.
        -11    1    4    4    0    0 -0.15336039131E+02  0.11747225024E+02 -0.17151456970E+02  0.25833386696E+02  0.00000000000E+00 0.  1.
         11    1    4    4    0    0  0.17614249658E+02 -0.38270790520E+02  0.71669976358E+02  0.83135435942E+02  0.00000000000E+00 0. -1.
</event>
<event>
 8    1  0.6443238E-009  0.2187490E+03  0.7561462E-02  0.1134819E+00
          2   -1    0    0  501    0  0.00000000000E+00  0.00000000000E+00  0.68655155604E+03  0.68655155604E+03  0.00000000000E+00 0. -1.
         -2   -1    0    0    0  501 -0.00000000000E+00 -0.00000000000E+00 -0.78988487770E+02  0.78988487770E+02  0.00000000000E+00 0.  1.
         25    2    1    2    0    0 -0.20528122007E+03 -0.13806747876E+02  0.30443762364E+03  0.38815060734E+03  0.12509045403E+03 0.  0.
         23    2    1    2    0    0  0.20528122007E+03  0.13806747876E+02  0.30312544463E+03  0.37738943647E+03  0.90591092143E+02 0.  0.
          5    1    3    3  502    0 -0.15827055973E+03  0.29750171293E+02  0.27217858500E+03  0.31628040930E+03  0.41800000000E+01 0.  1.
         -5    1    3    3    0  502 -0.47010660339E+02 -0.43556919170E+02  0.32259038639E+02  0.71870198045E+02  0.41800000000E+01 0.  1.
        -11    1    4    4    0    0  0.13946046239E+03 -0.15126516311E+02  0.13567516803E+03  0.19515579234E+03  0.00000000000E+00 0. -1.
         11    1    4    4    0    0  0.65820757685E+02  0.28933264187E+02  0.16745027659E+03  0.18223364412E+03  0.00000000000E+00 0.  1.
</event>
<event>
 8    1  0.6443238E-009  0.1051546E+03  0.7561462E-02  0.1269815E+00
         -1   -1    0    0    0  501 -0.00000000000E+00  0.00000000000E+00  0.28883770527E+03  0.28883770527E+03  0.00000000000E+00 0.  1.
          1   -1    0    0  501    0  0.00000000000E+00 -0.00000000000E+00 -0.43621839035E+02  0.43621839035E+02  0.00000000000E+00 0. -1.
         25    2    1    2    0    0 -0.26373461948E+02  0.56748771521E+01  0.14980205241E+03  0.19701813881E+03  0.12509088051E+03 0.  0.
         23    2    1    2    0    0  0.26373461948E+02 -0.56748771521E+01  0.95413813823E+02  0.13544140549E+03  0.92264916019E+02 0.  0.
          5    1    3    3  502    0  0.14451112800E+02  0.58873010613E+02  0.72630722614E+02  0.94697203271E+02  0.41800000000E+01 0.  1.
         -5    1    3    3    0  502 -0.40824574748E+02 -0.53198133461E+02  0.77171329796E+02  0.10232093554E+03  0.41800000000E+01 0.  1.
        -11    1    4    4    0    0 -0.26756481503E+02  0.71617991957E+01  0.27190772074E+01  0.27831529799E+02  0.00000000000E+00 0. -1.
         11    1    4    4    0    0  0.53129943450E+02 -0.12836676348E+02  0.92694736615E+02  0.10760987569E+03  0.00000000000E+00 0.  1.
</event>
<event>
 7    1  0.6443238E-009  0.9385402E+02  0.7561462E-02  0.1293778E+00
          1   -1    0    0  501    0  0.00000000000E+00  0.00000000000E+00  0.19905174869E+03  0.19905174869E+03  0.00000000000E+00 0. -1.
         -1   -1    0    0    0  501 -0.00000000000E+00 -0.00000000000E+00 -0.63056782356E+02  0.63056782356E+02  0.00000000000E+00 0.  1.
         23    2    1    2    0    0 -0.24609150521E+02  0.85863777020E+01  0.40404007543E+02  0.10243546537E+03  0.90450011435E+02 0.  0.
          5    1    1    2  502    0  0.17818327043E+02 -0.53681537348E+02  0.98633696998E+02  0.11377732118E+03  0.41800000000E+01 0. -1.
         -5    1    1    2    0  502  0.67908234777E+01  0.45095159646E+02 -0.30427382105E+01  0.45895744496E+02  0.41800000000E+01 0. -1.
        -11    1    3    3    0    0 -0.42358679125E+02 -0.23564855596E+02  0.44091216878E+02  0.65525533361E+02  0.00000000000E+00 0. -1.
         11    1    3    3    0    0  0.17749528604E+02  0.32151233298E+02 -0.36872093354E+01  0.36909932009E+02  0.00000000000E+00 0.  1.
</event>
<event>
 8    1  0.6443238E-009  0.1036550E+03  0.7561462E-02  0.1272792E+00
         -2   -1    0    0    0  501 -0.00000000000E+00  0.00000000000E+00  0.11078468819E+03  0.11078468819E+03  0.00000000000E+00 0. -1.
          2   -1    0    0  501    0  0.00000000000E+00 -0.00000000000E+00 -0.26842787119E+03  0.26842787119E+03  0.00000000000E+00 0.  1.
         25    2    1    2    0    0  0.46393651009E+02  0.81139659612E+02 -0.18860235695E+03  0.24485636551E+03  0.12509106870E+03 0.  0.
         23    2    1    2    0    0 -0.46393651009E+02 -0.81139659612E+02  0.30959173953E+02  0.13435619387E+03  0.91417181991E+02 0.  0.
          5    1    3    3  502    0 -0.10379913604E+02  0.44735324341E+02 -0.16799918709E+03  0.17421306241E+03  0.41800000000E+01 0.  1.
         -5    1    3    3    0  502  0.56773564612E+02  0.36404335271E+02 -0.20603169861E+02  0.70643303105E+02  0.41800000000E+01 0.  1.
        -11    1    4    4    0    0 -0.11532859998E+02 -0.15729977376E+02  0.53451516338E+02  0.56899065430E+02  0.00000000000E+00 0. -1.
         11    1    4    4    0    0 -0.34860791010E+02 -0.65409682236E+02 -0.22492342384E+02  0.77457128439E+02  0.00000000000E+00 0.  1.
</event>
<event>
 8    1  0.6443238E-009  0.1054715E+03  0.7561462E-02  0.1269193E+00
         -2   -1    0    0    0  501 -0.00000000000E+00  0.00000000000E+00  0.17098565073E+02  0.17098565073E+02  0.00000000000E+00 0.  1.
          2   -1    0    0  501    0  0.00000000000E+00 -0.00000000000E+00 -0.10809693174E+04  0.10809693174E+04  0.00000000000E+00 0. -1.
         25    2    1    2    0    0  0.57113156923E+02  0.59680452466E+02 -0.60676507645E+03  0.62500756074E+03  0.12508766477E+03 0.  0.
         23    2    1    2    0    0 -0.57113156923E+02 -0.59680452466E+02 -0.45710567587E+03  0.47306032173E+03  0.89536584603E+02 0.  0.
          5    1    3    3  502    0  0.25402469955E+02  0.49323543038E+01 -0.15706739102E+02  0.30557939263E+02  0.41800000000E+01 0. -1.
         -5    1    3    3    0  502  0.31710686968E+02  0.54748098162E+02 -0.59105833735E+03  0.59444962147E+03  0.41800000000E+01 0. -1.
        -11    1    4    4    0    0 -0.51591001902E+02  0.90443757800E+01 -0.17644193929E+03  0.18405213976E+03  0.00000000000E+00 0.  1.
         11    1    4    4    0    0 -0.55221550213E+01 -0.68724828246E+02 -0.28066373658E+03  0.28900818197E+03  0.00000000000E+00 0. -1.
</event>
<event>
 8    1  0.6443238E-009  0.1845052E+03  0.7561462E-02  0.1163513E+00
         -3   -1    0    0    0  501 -0.00000000000E+00  0.00000000000E+00  0.71063176885E+02  0.71063176885E+02  0.00000000000E+00 0.  1.
          3   -1    0    0  501    0  0.00000000000E+00 -0.00000000000E+00 -0.57409743457E+03  0.57409743457E+03  0.00000000000E+00 0. -1.
         25    2    1    2    0    0 -0.16010718269E+03  0.34845495667E+02 -0.33083863445E+03  0.38980519719E+03  0.12508145825E+03 0.  0.
         23    2    1    2    0    0  0.16010718269E+03 -0.34845495667E+02 -0.17219562323E+03  0.25535541426E+03  0.93308822808E+02 0.  0.
          5    1    3    3  502    0 -0.48390012892E+02 -0.34291567595E+02 -0.43007401889E+02  0.73379928953E+02  0.41800000000E+01 0.  1.
         -5    1    3    3    0  502 -0.11171716980E+03  0.69137063262E+02 -0.28783123256E+03  0.31642526824E+03  0.41800000000E+01 0.  1.
        -11    1    4    4    0    0  0.83529297463E+02 -0.53625360033E+02 -0.53230656125E+02  0.11263358968E+03  0.00000000000E+00 0.  1.
         11    1    4    4    0    0  0.76577885228E+02  0.18779864366E+02 -0.11896496711E+03  0.14272182458E+03  0.00000000000E+00 0. -1.
</event>
<event>
 8    1  0.6443238E-009  0.1289371E+03  0.7561462E-02  0.1229041E+00
          1   -1    0    0  501    0  0.00000000000E+00  0.00000000000E+00  0.58640345101E+02  0.58640345101E+02  0.00000000000E+00 0. -1.
         -1   -1    0    0    0  501 -0.00000000000E+00 -0.00000000000E+00 -0.54889514531E+03  0.54889514531E+03  0.00000000000E+00 0.  1.
         25    2    1    2    0    0 -0.30747581091E+02 -0.11670187947E+03 -0.38740136428E+03  0.42460856407E+03  0.12509145942E+03 0.  0.
         23    2    1    2    0    0  0.30747581091E+02  0.11670187947E+03 -0.10285343592E+03  0.18292692633E+03  0.91206845585E+02 0.  0.
          5    1    3    3  502    0 -0.23285661906E+02 -0.11228512584E+03 -0.15941951953E+03  0.19642359111E+03  0.41800000000E+01 0.  1.
         -5    1    3    3    0  502 -0.74619191857E+01 -0.44167536287E+01 -0.22798184475E+03  0.22818497296E+03  0.41800000000E+01 0.  1.
        -11    1    4    4    0    0  0.21497561690E+02  0.58753936621E+01  0.10051544307E+02  0.24447882367E+02  0.00000000000E+00 0.  1.
         11    1    4    4    0    0  0.92500194016E+01  0.11082648581E+03 -0.11290498023E+03  0.15847904397E+03  0.00000000000E+00 0. -1.
</event>
<event>
 8    1  0.6443238E-009  0.1355795E+03  0.7561462E-02  0.1219404E+00
         -2   -1    0    0    0  501 -0.00000000000E+00  0.00000000000E+00  0.43285931042E+02  0.43285931042E+02  0.00000000000E+00 0.  1.
          2   -1    0    0  501    0  0.00000000000E+00 -0.00000000000E+00 -0.58394773225E+03  0.58394773225E+03  0.00000000000E+00 0. -1.
         25    2    1    2    0    0 -0.10086173237E+03 -0.49846692258E+02 -0.33898115970E+03  0.37844711433E+03  0.12512477744E+03 0.  0.
         23    2    1    2    0    0  0.10086173237E+03  0.49846692258E+02 -0.20168064151E+03  0.24878654897E+03  0.92530449041E+02 0.  0.
          5    1    3    3  502    0 -0.58151592850E+02  0.32205915282E+01 -0.37632645564E+02  0.69467030834E+02  0.41800000000E+01 0.  1.
         -5    1    3    3    0  502 -0.42710139519E+02 -0.53067283786E+02 -0.30134851413E+03  0.30898008349E+03  0.41800000000E+01 0.  1.
        -11    1    4    4    0    0  0.76462705060E+02 -0.12584136761E+02 -0.92471977881E+02  0.12064813491E+03  0.00000000000E+00 0.  1.
         11    1    4    4    0    0  0.24399027309E+02  0.62430829018E+02 -0.10920866363E+03  0.12813841406E+03  0.00000000000E+00 0. -1.
</event>
<event>
 8    1  0.6443238E-009  0.1048948E+03  0.7561462E-02  0.1270327E+00
         -2   -1    0    0    0  501 -0.00000000000E+00  0.00000000000E+00  0.40345491419E+02  0.40345491419E+02  0.00000000000E+00 0.  1.
          2   -1    0    0  501    0  0.00000000000E+00 -0.00000000000E+00 -0.32671179584E+03  0.32671179584E+03  0.00000000000E+00 0. -1.
         25    2    1    2    0    0  0.30290998346E+00 -0.24975616293E+02 -0.11913878241E+03  0.17454505972E+03  0.12509218694E+03 0.  0.
         23    2    1    2    0    0 -0.30290998346E+00  0.24975616293E+02 -0.16722752202E+03  0.19251222755E+03  0.92043687839E+02 0.  0.
          5    1    3    3  502    0 -0.57843119133E+02 -0.11299897193E+02 -0.90721593268E+02  0.10826538686E+03  0.41800000000E+01 0. -1.
         -5    1    3    3    0  502  0.58146029116E+02 -0.13675719100E+02 -0.28417189139E+02  0.66279672852E+02  0.41800000000E+01 0. -1.
        -11    1    4    4    0    0 -0.35588057560E+02  0.39053623006E+02 -0.67003518903E+02  0.85329753639E+02  0.00000000000E+00 0.  1.
         11    1    4    4    0    0  0.35285147576E+02 -0.14078006713E+02 -0.10022400312E+03  0.10718247391E+03  0.00000000000E+00 0. -1.
</event>
<event>
 8    1  0.6443238E-009  0.1014178E+03  0.7561462E-02  0.1277342E+00
         -2   -1    0    0    0  501 -0.00000000000E+00  0.00000000000E+00  0.28097212367E+03  0.28097212367E+03  0.00000000000E+00 0.  1.
          2   -1    0    0  501    0  0.00000000000E+00 -0.00000000000E+00 -0.49688968370E+02  0.49688968370E+02  0.00000000000E+00 0. -1.
         25    2    1    2    0    0 -0.37126052598E+02  0.28748747697E+02  0.12081434070E+03  0.18013491988E+03  0.12509056785E+03 0.  0.
         23    2    1    2    0    0  0.37126052598E+02 -0.28748747697E+02  0.11046881460E+03  0.15052617217E+03  0.90829154085E+02 0.  0.
          5    1    3    3  502    0  0.15303491125E+02  0.63989838475E+02  0.38695421049E+02  0.76444125208E+02  0.41800000000E+01 0.  1.
         -5    1    3    3    0  502 -0.52429543724E+02 -0.35241090778E+02  0.82118919652E+02  0.10369079467E+03  0.41800000000E+01 0.  1.
        -11    1    4    4    0    0  0.10935446901E+02  0.17390712711E+02  0.92128233577E+02  0.94390848654E+02  0.00000000000E+00 0.  1.
         11    1    4    4    0    0  0.26190605697E+02 -0.46139460408E+02  0.18340581025E+02  0.56135323513E+02  0.00000000000E+00 0. -1.
</event>
<event>
 8    1  0.6443238E-009  0.7340289E+02  0.7561462E-02  0.1348889E+00
          2   -1    0    0  501    0  0.00000000000E+00  0.00000000000E+00  0.49796087829E+03  0.49796087829E+03  0.00000000000E+00 0. -1.
         -2   -1    0    0    0  501 -0.00000000000E+00 -0.00000000000E+00 -0.23708337335E+02  0.23708337335E+02  0.00000000000E+00 0.  1.
         25    2    1    2    0    0 -0.65227071330E+01  0.60507298628E+01  0.29775171151E+03  0.32308321926E+03  0.12509007882E+03 0.  0.
         23    2    1    2    0    0  0.65227071330E+01 -0.60507298628E+01  0.17650082944E+03  0.19858599636E+03  0.90579788683E+02 0.  0.
          5    1    3    3  502    0 -0.75776891101E+01  0.32474462499E+02  0.29415610379E+03  0.29606975173E+03  0.41800000000E+01 0.  1.
         -5    1    3    3    0  502  0.10549819771E+01 -0.26423732636E+02  0.35956077163E+01  0.27013467535E+02  0.41800000000E+01 0.  1.
        -11    1    4    4    0    0 -0.49953757462E+01  0.39309236726E+02  0.50605197877E+02  0.64273290899E+02  0.00000000000E+00 0.  1.
         11    1    4    4    0    0  0.11518082879E+02 -0.45359966589E+02  0.12589563157E+03  0.13431270547E+03  0.00000000000E+00 0. -1.
</event>
<event>
 8    1  0.6443238E-009  0.1635441E+03  0.7561462E-02  0.1184753E+00
          2   -1    0    0  501    0  0.00000000000E+00  0.00000000000E+00  0.16603031863E+04  0.16603031863E+04  0.00000000000E+00 0. -1.
         -2   -1    0    0    0  501 -0.00000000000E+00 -0.00000000000E+00 -0.17264192371E+02  0.17264192371E+02  0.00000000000E+00 0.  1.
         25    2    1    2    0    0 -0.50419074399E+02  0.11846416876E+03  0.94591848256E+03  0.96280045945E+03  0.12508839567E+03 0.  0.
         23    2    1    2    0    0  0.50419074399E+02 -0.11846416876E+03  0.69712051139E+03  0.71476691924E+03  0.91317572745E+02 0.  0.
          5    1    3    3  502    0 -0.84608947224E+02  0.10043580349E+03  0.57351353559E+03  0.58837171285E+03  0.41800000000E+01 0. -1.
         -5    1    3    3    0  502  0.34189872825E+02  0.18028365271E+02  0.37240494696E+03  0.37442874660E+03  0.41800000000E+01 0. -1.
        -11    1    4    4    0    0 -0.25451359092E+02 -0.41950491545E+02  0.18208339075E+03  0.18857883393E+03  0.00000000000E+00 0.  1.
         11    1    4    4    0    0  0.75870433491E+02 -0.76513677219E+02  0.51503712064E+03  0.52618808531E+03  0.00000000000E+00 0. -1.
</event>
<event>
 8    1  0.6443238E-009  0.1245322E+03  0.7561462E-02  0.1235802E+00
          2   -1    0    0  501    0  0.00000000000E+00  0.00000000000E+00  0.12557820014E+04  0.12557820014E+04  0.00000000000E+00 0. -1.
         -2   -1    0    0    0  501 -0.00000000000E+00 -0.00000000000E+00 -0.13782370303E+02  0.13782370303E+02  0.00000000000E+00 0.  1.
         25    2    1    2    0    0  0.69202635632E+02  0.21355998285E+02  0.74126335996E+03  0.75522513856E+03  0.12509419509E+03 0.  0.
         23    2    1    2    0    0 -0.69202635632E+02 -0.21355998285E+02  0.50073627110E+03  0.51433923311E+03  0.92536209563E+02 0.  0.
          5    1    3    3  502    0  0.86042238277E+02  0.57808887643E+02  0.55885214453E+03  0.56839979425E+03  0.41800000000E+01 0.  1.
         -5    1    3    3    0  502 -0.16839602645E+02 -0.36452889359E+02  0.18241121543E+03  0.18682534430E+03  0.41800000000E+01 0.  1.
        -11    1    4    4    0    0 -0.80149417968E+02  0.89223131785E+00  0.45774620330E+03  0.46471099827E+03  0.00000000000E+00 0. -1.
         11    1    4    4    0    0  0.10946782336E+02 -0.22248229602E+02  0.42990067800E+02  0.49628234841E+02  0.00000000000E+00 0.  1.
</event>
<event>
 8    1  0.6443238E-009  0.1846679E+03  0.7561462E-02  0.1163360E+00
          2   -1    0    0  501    0  0.00000000000E+00  0.00000000000E+00  0.50112449068E+03  0.50112449068E+03  0.00000000000E+00 0.  1.
         -2   -1    0    0    0  501 -0.00000000000E+00 -0.00000000000E+00 -0.78994613350E+02  0.78994613350E+02  0.00000000000E+00 0. -1.
         25    2    1    2    0    0  0.14445696721E+03  0.83433357450E+02  0.22121055231E+03  0.30399217943E+03  0.12509275034E+03 0.  0.
         23    2    1    2    0    0 -0.14445696721E+03 -0.83433357450E+02  0.20091932502E+03  0.27612692460E+03  0.89713782731E+02 0.  0.
          5    1    3    3  502    0  0.59953647469E+02 -0.18429306992E+02  0.12628482799E+03  0.14106526639E+03  0.41800000000E+01 0. -1.
         -5    1    3    3    0  502  0.84503319744E+02  0.10186266444E+03  0.94925724323E+02  0.16292691304E+03  0.41800000000E+01 0. -1.
        -11    1    4    4    0    0 -0.84141313486E+02 -0.75820841606E+02  0.17835653971E+03  0.21128089340E+03  0.00000000000E+00 0.  1.
         11    1    4    4    0    0 -0.60315653727E+02 -0.76125158442E+01  0.22562785306E+02  0.64846031202E+02  0.00000000000E+00 0. -1.
</event>
<event>
 8    1  0.6443238E-009  0.1405629E+03  0.7561462E-02  0.1212574E+00
          4   -1    0    0  501    0  0.00000000000E+00  0.00000000000E+00  0.26484411082E+03  0.26484411082E+03  0.00000000000E+00 0. -1.
         -4   -1    0    0    0  501 -0.00000000000E+00 -0.00000000000E+00 -0.87542356611E+02  0.87542356611E+02  0.00000000000E+00 0.  1.
         25    2    1    2    0    0 -0.96663612060E+02  0.21711126115E+02  0.14078704398E+03  0.21279867027E+03  0.12508819057E+03 0.  0.
         23    2    1    2    0    0  0.96663612060E+02 -0.21711126115E+02  0.36514710230E+02  0.13958779717E+03  0.91302804782E+02 0.  0.
          5    1    3    3  502    0 -0.94844212413E+02 -0.33237758321E+02  0.11221453626E+03  0.15069753732E+03  0.41800000000E+01 0.  1.
         -5    1    3    3    0  502 -0.18193996471E+01  0.54948884436E+02  0.28572507727E+02  0.62101132950E+02  0.41800000000E+01 0.  1.
        -11    1    4    4    0    0  0.98718521958E+02 -0.40352408988E+02  0.10005953983E+02  0.10711574396E+03  0.00000000000E+00 0. -1.
         11    1    4    4    0    0 -0.20549098977E+01  0.18641282873E+02  0.26508756247E+02  0.32472053209E+02  0.00000000000E+00 0.  1.
</event>
<event>
 8    1  0.6443238E-009  0.7634727E+02  0.7561462E-02  0.1339749E+00
         -2   -1    0    0    0  501 -0.00000000000E+00  0.00000000000E+00  0.11402244202E+02  0.11402244202E+02  0.00000000000E+00 0.  1.
          2   -1    0    0  501    0  0.00000000000E+00 -0.00000000000E+00 -0.13574417053E+04  0.13574417053E+04  0.00000000000E+00 0. -1.
         25    2    1    2    0    0  0.34950847065E+02  0.75739870426E+01 -0.10568445553E+04  0.10648221603E+04  0.12508753674E+03 0.  0.
         23    2    1    2    0    0 -0.34950847065E+02 -0.75739870426E+01 -0.28919490573E+03  0.30402178921E+03  0.86698488011E+02 0.  0.
          5    1    3    3  502    0 -0.15349378129E+02 -0.19860734536E+02 -0.47866798840E+02  0.54210285154E+02  0.41800000000E+01 0. -1.
         -5    1    3    3    0  502  0.50300225194E+02  0.27434721579E+02 -0.10089777565E+04  0.10106118751E+04  0.41800000000E+01 0. -1.
        -11    1    4    4    0    0  0.16723967860E+02  0.31663207906E+01 -0.97077931757E+01  0.19594844645E+02  0.00000000000E+00 0.  1.
         11    1    4    4    0    0 -0.51674814925E+02 -0.10740307833E+02 -0.27948711256E+03  0.28442694457E+03  0.00000000000E+00 0. -1.
</event>
<event>
 8    1  0.6443238E-009  0.1068620E+03  0.7561462E-02  0.1266494E+00
         -1   -1    0    0    0  501 -0.00000000000E+00  0.00000000000E+00  0.66155818125E+02  0.66155818125E+02  0.00000000000E+00 0.  1.
          1   -1    0    0  501    0  0.00000000000E+00 -0.00000000000E+00 -0.19895266872E+03  0.19895266872E+03  0.00000000000E+00 0. -1.
         25    2    1    2    0    0 -0.13143180121E+02  0.34830724103E+02 -0.71332818441E+02  0.14876561420E+03  0.12512759270E+03 0.  0.
         23    2    1    2    0    0  0.13143180121E+02 -0.34830724103E+02 -0.61464032157E+02  0.11634287265E+03  0.91498165242E+02 0.  0.
          5    1    3    3  502    0 -0.67754418517E+02  0.18206952344E+02 -0.54994148095E+02  0.89241151197E+02  0.41800000000E+01 0. -1.
         -5    1    3    3    0  502  0.54611238396E+02  0.16623771759E+02 -0.16338670346E+02  0.59524462999E+02  0.41800000000E+01 0. -1.
        -11    1    4    4    0    0 -0.32718687141E+02 -0.18053384058E+02 -0.55833626528E+02  0.67185050535E+02  0.00000000000E+00 0. -1.
         11    1    4    4    0    0  0.45861867262E+02 -0.16777340045E+02 -0.56304056289E+01  0.49157822117E+02  0.00000000000E+00 0.  1.
</event>
<event>
 8    1  0.6443238E-009  0.1039812E+03  0.7561462E-02  0.1272140E+00
         -2   -1    0    0    0  501 -0.00000000000E+00  0.00000000000E+00  0.21282434006E+02  0.21282434006E+02  0.00000000000E+00 0.  1.
          2   -1    0    0  501    0  0.00000000000E+00 -0.00000000000E+00 -0.56401742037E+03  0.56401742037E+03  0.00000000000E+00 0. -1.
         25    2    1    2    0    0  0.20623427518E+02  0.87350845766E+01 -0.30096090959E+03  0.32668975731E+03  0.12508837261E+03 0.  0.
         23    2    1    2    0    0 -0.20623427518E+02 -0.87350845766E+01 -0.24177407677E+03  0.25861009707E+03  0.89010396254E+02 0.  0.
          5    1    3    3  502    0 -0.45971797757E+02  0.32261711853E+02 -0.13514631675E+03  0.14641114565E+03  0.41800000000E+01 0.  1.
         -5    1    3    3    0  502  0.66595225275E+02 -0.23526627276E+02 -0.16581459284E+03  0.18027861166E+03  0.41800000000E+01 0.  1.
        -11    1    4    4    0    0 -0.48555318782E+02 -0.17507528766E+02 -0.20607750954E+03  0.21244310411E+03  0.00000000000E+00 0. -1.
         11    1    4    4    0    0  0.27931891264E+02  0.87724441891E+01 -0.35696567230E+02  0.46166992956E+02  0.00000000000E+00 0.  1.
</event>
<event>
 8    1  0.6443238E-009  0.8560426E+02  0.7561462E-02  0.1313860E+00
          2   -1    0    0  501    0  0.00000000000E+00  0.00000000000E+00  0.50493480590E+03  0.50493480590E+03  0.00000000000E+00 0. -1.
         -2   -1    0    0    0  501 -0.00000000000E+00 -0.00000000000E+00 -0.29643195367E+02  0.29643195367E+02  0.00000000000E+00 0.  1.
         25    2    1    2    0    0 -0.31515865067E+02 -0.16389887629E+02  0.16720927660E+03  0.21182064507E+03  0.12508862989E+03 0.  0.
         23    2    1    2    0    0  0.31515865067E+02  0.16389887629E+02  0.30808233393E+03  0.32275735620E+03  0.89418724733E+02 0.  0.
          5    1    3    3  502    0 -0.10829083984E+02  0.25559262486E+02  0.16218180388E+03  0.16459330141E+03  0.41800000000E+01 0. -1.
         -5    1    3    3    0  502 -0.20686781083E+02 -0.41949150115E+02  0.50274727197E+01  0.47227343657E+02  0.41800000000E+01 0. -1.
        -11    1    4    4    0    0  0.56521397558E+02  0.33662966684E+02  0.20644243846E+03  0.21667105045E+03  0.00000000000E+00 0. -1.
         11    1    4    4    0    0 -0.25005532491E+02 -0.17273079055E+02  0.10163989547E+03  0.10608630574E+03  0.00000000000E+00 0.  1.
</event>
<event>
 8    1  0.6443238E-009  0.1983165E+03  0.7561462E-02  0.1151167E+00
         -1   -1    0    0    0  501 -0.00000000000E+00  0.00000000000E+00  0.71020506362E+02  0.71020506362E+02  0.00000000000E+00 0.  1.
          1   -1    0    0  501    0  0.00000000000E+00 -0.00000000000E+00 -0.59116418860E+03  0.59116418860E+03  0.00000000000E+00 0. -1.
         25    2    1    2    0    0 -0.86844242530E+02 -0.14828988864E+03 -0.31051189362E+03  0.37629458622E+03  0.12509262968E+03 0.  0.
         23    2    1    2    0    0  0.86844242530E+02  0.14828988864E+03 -0.20963178862E+03  0.28589010875E+03  0.90861729823E+02 0.  0.
          5    1    3    3  502    0 -0.60792698611E+02 -0.16625193132E+03 -0.23441133639E+03  0.29377134629E+03  0.41800000000E+01 0. -1.
         -5    1    3    3    0  502 -0.26051543919E+02  0.17962042674E+02 -0.76100557228E+02  0.82523239927E+02  0.41800000000E+01 0. -1.
        -11    1    4    4    0    0  0.17809676752E+02  0.10425198960E+03 -0.80202642443E+02  0.13273328812E+03  0.00000000000E+00 0.  1.
         11    1    4    4    0    0  0.69034565777E+02  0.44037899046E+02 -0.12942914618E+03  0.15315682063E+03  0.00000000000E+00 0. -1.
</event>
<event>
 8    1  0.6443238E-009  0.9712493E+02  0.7561462E-02  0.1286461E+00
         -3   -1    0    0    0  501 -0.00000000000E+00  0.00000000000E+00  0.44691875808E+02  0.44691875808E+02  0.00000000000E+00 0.  1.
          3   -1    0    0  501    0  0.00000000000E+00 -0.00000000000E+00 -0.36090362744E+03  0.36090362744E+03  0.00000000000E+00 0. -1.
         25    2    1    2    0    0 -0.45394984937E+02 -0.23368777102E+02 -0.24071046902E+03  0.27603587935E+03  0.12508985727E+03 0.  0.
         23    2    1    2    0    0  0.45394984937E+02  0.23368777102E+02 -0.75501282613E+02  0.12955962390E+03  0.92078488631E+02 0.  0.
          5    1    3    3  502    0 -0.33514654086E+02  0.42414950779E+02 -0.17088361670E+03  0.17927895288E+03  0.41800000000E+01 0.  1.
         -5    1    3    3    0  502 -0.11880330851E+02 -0.65783727881E+02 -0.69826852315E+02  0.96756926467E+02  0.41800000000E+01 0.  1.
        -11    1    4    4    0    0  0.58819702029E+01 -0.16138097090E+02  0.15261100546E+02  0.22976878401E+02  0.00000000000E+00 0. -1.
         11    1    4    4    0    0  0.39513014734E+02  0.39506874193E+02 -0.90762383159E+02  0.10658274550E+03  0.00000000000E+00 0.  1.
</event>
<event>
 8    1  0.6443238E-009  0.1710949E+03  0.7561462E-02  0.1176711E+00
         -1   -1    0    0    0  501 -0.00000000000E+00  0.00000000000E+00  0.20893828840E+02  0.20893828840E+02  0.00000000000E+00 0.  1.
          1   -1    0    0  501    0  0.00000000000E+00 -0.00000000000E+00 -0.17586672764E+04  0.17586672764E+04  0.00000000000E+00 0. -1.
         25    2    1    2    0    0  0.78548361481E+01 -0.13879523744E+03 -0.12486920060E+04  0.12626179013E+04  0.12508566009E+03 0.  0.
         23    2    1    2    0    0 -0.78548361481E+01  0.13879523744E+03 -0.48908144152E+03  0.51694320394E+03  0.93294175962E+02 0.  0.
          5    1    3    3  502    0  0.39108611702E+02 -0.14165571419E+03 -0.84563120946E+03  0.85831546629E+03  0.41800000000E+01 0.  1.
         -5    1    3    3    0  502 -0.31253775554E+02  0.28604767500E+01 -0.40306079656E+03  0.40430243499E+03  0.41800000000E+01 0.  1.
        -11    1    4    4    0    0  0.36657227120E+01  0.14844219720E+03 -0.46844653550E+03  0.49141701238E+03  0.00000000000E+00 0. -1.
         11    1    4    4    0    0 -0.11520558860E+02 -0.96469597570E+01 -0.20634906020E+02  0.25526191558E+02  0.00000000000E+00 0.  1.
</event>
<event>
 8    1  0.6443238E-009  0.9222406E+02  0.7561462E-02  0.1297553E+00
          1   -1    0    0  501    0  0.00000000000E+00  0.00000000000E+00  0.29860087824E+03  0.29860087824E+03  0.00000000000E+00 0. -1.
         -1   -1    0    0    0  501 -0.00000000000E+00 -0.00000000000E+00 -0.40570102790E+02  0.40570102790E+02  0.00000000000E+00 0.  1.
         25    2    1    2    0    0  0.18237409733E+02  0.55337443330E+01  0.15400197197E+03  0.19931151364E+03  0.12508096042E+03 0.  0.
         23    2    1    2    0    0 -0.18237409733E+02 -0.55337443330E+01  0.10402880348E+03  0.13985946739E+03  0.91517502284E+02 0.  0.
          5    1    3    3  502    0  0.61417703448E+02  0.33918264742E+02  0.11359783804E+03  0.13358339787E+03  0.41800000000E+01 0. -1.
         -5    1    3    3    0  502 -0.43180293715E+02 -0.28384520409E+02  0.40404133930E+02  0.65728115770E+02  0.41800000000E+01 0. -1.
        -11    1    4    4    0    0  0.20626239362E+02 -0.10491298674E+02  0.97415861496E+02  0.10012671556E+03  0.00000000000E+00 0. -1.
         11    1    4    4    0    0 -0.38863649095E+02  0.49575543412E+01  0.66129419849E+01  0.39732751827E+02  0.00000000000E+00 0.  1.
</event>
<event>
 7    1  0.6443238E-009  0.1727730E+03  0.7561462E-02  0.1174987E+00
         -1   -1    0    0    0  501 -0.00000000000E+00  0.00000000000E+00  0.38854458756E+02  0.38854458756E+02  0.00000000000E+00 0.  1.
          1   -1    0    0  501    0  0.00000000000E+00 -0.00000000000E+00 -0.78135305263E+03  0.78135305263E+03  0.00000000000E+00 0. -1.
         23    2    1    2    0    0 -0.13421492889E+03  0.13908302970E+02 -0.30609666395E+03  0.34656765910E+03  0.90591868430E+02 0.  0.
          5    1    1    2  502    0  0.43355523484E+01 -0.48261243429E+02 -0.13935598866E+03  0.14759914840E+03  0.41800000000E+01 0. -1.
         -5    1    1    2    0  502  0.12987937654E+03  0.34352940459E+02 -0.29704594126E+03  0.32604070388E+03  0.41800000000E+01 0. -1.
        -11    1    3    3    0    0 -0.83470506355E+02  0.52622509461E+02 -0.18294583634E+03  0.20785964728E+03  0.00000000000E+00 0.  1.
         11    1    3    3    0    0 -0.50744422538E+02 -0.38714206491E+02 -0.12315082761E+03  0.13870801182E+03  0.00000000000E+00 0. -1.
</event>
<event>
 8    1  0.6443238E-009  0.3313716E+03  0.7561462E-02  0.1070532E+00
          1   -1    0    0  501    0  0.00000000000E+00  0.00000000000E+00  0.93548204843E+03  0.93548204843E+03  0.00000000000E+00 0. -1.
         -1   -1    0    0    0  501 -0.00000000000E+00 -0.00000000000E+00 -0.13808843487E+03  0.13808843487E+03  0.00000000000E+00 0.  1.
         25    2    1    2    0    0 -0.32269807556E+03 -0.36698775423E+02  0.56389737786E+03  0.66265078946E+03  0.12507984623E+03 0.  0.
         23    2    1    2    0    0  0.32269807556E+03  0.36698775423E+02  0.23349623570E+03  0.41091969383E+03  0.94093860602E+02 0.  0.
          5    1    3    3  502    0 -0.20746362087E+03 -0.11010302873E+02  0.23771793261E+03  0.31573670778E+03  0.41800000000E+01 0. -1.
         -5    1    3    3    0  502 -0.11523445469E+03 -0.25688472550E+02  0.32617944525E+03  0.34691408169E+03  0.41800000000E+01 0. -1.
        -11    1    4    4    0    0  0.95061619815E+02 -0.29859962421E+02  0.52847790026E+02  0.11278837630E+03  0.00000000000E+00 0. -1.
         11    1    4    4    0    0  0.22763645574E+03  0.66558737844E+02  0.18064844568E+03  0.29813131753E+03  0.00000000000E+00 0.  1.
</event>
<event>
 8    1  0.6443238E-009  0.1978889E+03  0.7561462E-02  0.1151532E+00
         -2   -1    0    0    0  501 -0.00000000000E+00  0.00000000000E+00  0.42083066792E+02  0.42083066792E+02  0.00000000000E+00 0. -1.
          2   -1    0    0  501    0  0.00000000000E+00 -0.00000000000E+00 -0.10504703469E+04  0.10504703469E+04  0.00000000000E+00 0.  1.
         25    2    1    2    0    0 -0.17020863691E+03  0.48623666217E+02 -0.58684244487E+03  0.62559306296E+03  0.12508950525E+03 0.  0.
         23    2    1    2    0    0  0.17020863691E+03 -0.48623666217E+02 -0.42154483526E+03  0.46696035075E+03  0.94956200697E+02 0.  0.
          5    1    3    3  502    0 -0.10670217524E+03 -0.20964524985E+02 -0.42076228437E+03  0.43460699241E+03  0.41800000000E+01 0.  1.
         -5    1    3    3    0  502 -0.63506461672E+02  0.69588191202E+02 -0.16608016051E+03  0.19098607055E+03  0.41800000000E+01 0.  1.
        -11    1    4    4    0    0  0.95826822682E+02 -0.65888585596E+02 -0.18614882178E+03  0.21948911022E+03  0.00000000000E+00 0. -1.
         11    1    4    4    0    0  0.74381814226E+02  0.17264919379E+02 -0.23539601348E+03  0.24747124053E+03  0.00000000000E+00 0.  1.
</event>
<event>
 8    1  0.6443238E-009  0.8690440E+02  0.7561462E-02  0.1310526E+00
         -2   -1    0    0    0  501 -0.00000000000E+00  0.00000000000E+00  0.14730425088E+03  0.14730425088E+03  0.00000000000E+00 0.  1.
          2   -1    0    0  501    0  0.00000000000E+00 -0.00000000000E+00 -0.14016378432E+03  0.14016378432E+03  0.00000000000E+00 0. -1.
         25    2    1    2    0    0  0.57678160586E+02  0.46550867530E+02  0.61442687301E+02  0.15784961194E+03  0.12509013826E+03 0.  0.
         23    2    1    2    0    0 -0.57678160586E+02 -0.46550867530E+02 -0.54302220737E+02  0.12961842326E+03  0.91424564507E+02 0.  0.
          5    1    3    3  502    0  0.21475369467E+02  0.41086614464E+02 -0.32610417719E+02  0.56834963937E+02  0.41800000000E+01 0.  1.
         -5    1    3    3    0  502  0.36202791119E+02  0.54642530657E+01  0.94053105020E+02  0.10101464800E+03  0.41800000000E+01 0.  1.
        -11    1    4    4    0    0 -0.36425207878E+02 -0.56277170223E+02 -0.73421730370E+02  0.99421658343E+02  0.00000000000E+00 0. -1.
         11    1    4    4    0    0 -0.21252952708E+02  0.97263026929E+01  0.19119509633E+02  0.30196764918E+02  0.00000000000E+00 0.  1.
</event>
<event>
 8    1  0.6443238E-009  0.1152974E+03  0.7561462E-02  0.1251063E+00
          2   -1    0    0  501    0  0.00000000000E+00  0.00000000000E+00  0.33024805866E+03  0.33024805866E+03  0.00000000000E+00 0. -1.
         -2   -1    0    0    0  501 -0.00000000000E+00 -0.00000000000E+00 -0.44028809154E+02  0.44028809154E+02  0.00000000000E+00 0.  1.
         25    2    1    2    0    0  0.20779140219E+02 -0.29196540013E+02  0.21313429320E+03  0.24971117838E+03  0.12508091403E+03 0.  0.
         23    2    1    2    0    0 -0.20779140219E+02  0.29196540013E+02  0.73084956312E+02  0.12456568943E+03  0.94292043821E+02 0.  0.
          5    1    3    3  502    0 -0.47399080032E+02 -0.38453447535E+02  0.99236456092E+02  0.11657910204E+03  0.41800000000E+01 0.  1.
         -5    1    3    3    0  502  0.68178220252E+02  0.92569075222E+01  0.11389783710E+03  0.13313207634E+03  0.41800000000E+01 0.  1.
        -11    1    4    4    0    0  0.34702116852E+02  0.28651673979E+02  0.38177455988E+02  0.59014180343E+02  0.00000000000E+00 0. -1.
         11    1    4    4    0    0 -0.55481257071E+02  0.54486603441E+00  0.34907500324E+02  0.65551509091E+02  0.00000000000E+00 0.  1.
</event>
<event>
 8    1  0.6443238E-009  0.9162608E+02  0.7561462E-02  0.1298961E+00
         -4   -1    0    0    0  501 -0.00000000000E+00  0.00000000000E+00  0.30401786374E+02  0.30401786374E+02  0.00000000000E+00 0.  1.
          4   -1    0    0  501    0  0.00000000000E+00 -0.00000000000E+00 -0.42611701139E+03  0.42611701139E+03  0.00000000000E+00 0. -1.
         25    2    1    2    0    0 -0.32469890277E+02  0.14916685474E+02 -0.25580801374E+03  0.28698733465E+03  0.12508872481E+03 0.  0.
         23    2    1    2    0    0  0.32469890277E+02 -0.14916685474E+02 -0.13990721127E+03  0.16953146312E+03  0.88826166974E+02 0.  0.
          5    1    3    3  502    0 -0.62391459664E+02  0.11373974264E+02 -0.55488147420E+02  0.84371016549E+02  0.41800000000E+01 0.  1.
         -5    1    3    3    0  502  0.29921569387E+02  0.35427112103E+01 -0.20031986632E+03  0.20261631810E+03  0.41800000000E+01 0.  1.
        -11    1    4    4    0    0  0.48976767819E+02 -0.37229737502E+02 -0.64297558961E+02  0.88988500542E+02  0.00000000000E+00 0.  1.
         11    1    4    4    0    0 -0.16506877542E+02  0.22313052028E+02 -0.75609652314E+02  0.80542962573E+02  0.00000000000E+00 0. -1.
</event>
<event>
 8    1  0.6443238E-009  0.1542882E+03  0.7561462E-02  0.1195301E+00
         -2   -1    0    0    0  501 -0.00000000000E+00  0.00000000000E+00  0.60636366412E+02  0.60636366412E+02  0.00000000000E+00 0. -1.
          2   -1    0    0  501    0  0.00000000000E+00 -0.00000000000E+00 -0.49380884743E+03  0.49380884743E+03  0.00000000000E+00 0.  1.
         25    2    1    2    0    0  0.71496083318E+02  0.87317397378E+02 -0.11155744282E+03  0.20205946321E+03  0.12508775244E+03 0.  0.
         23    2    1    2    0    0 -0.71496083318E+02 -0.87317397378E+02 -0.32161503820E+03  0.35238575063E+03  0.89462096106E+02 0.  0.
          5    1    3    3  502    0  0.10571572400E+03  0.50990205668E+02 -0.87758492270E+02  0.14661118900E+03  0.41800000000E+01 0.  1.
         -5    1    3    3    0  502 -0.34219640679E+02  0.36327191710E+02 -0.23798950553E+02  0.55448274213E+02  0.41800000000E+01 0.  1.
        -11    1    4    4    0    0 -0.26548330591E+02 -0.92098951889E+02 -0.18292048031E+03  0.20651133846E+03  0.00000000000E+00 0.  1.
         11    1    4    4    0    0 -0.44947752727E+02  0.47815545113E+01 -0.13869455789E+03  0.14587441217E+03  0.00000000000E+00 0. -1.
</event>
<event>
 8    1  0.6443238E-009  0.1373346E+03  0.7561462E-02  0.1216961E+00
         -2   -1    0    0    0  501 -0.00000000000E+00  0.00000000000E+00  0.32370502083E+03  0.32370502083E+03  0.00000000000E+00 0.  1.
          2   -1    0    0  501    0  0.00000000000E+00 -0.00000000000E+00 -0.69324491079E+02  0.69324491079E+02  0.00000000000E+00 0. -1.
         25    2    1    2    0    0  0.54645199317E+02  0.62188901906E+02  0.71146895655E+02  0.16602296189E+03  0.12509270875E+03 0.  0.
         23    2    1    2    0    0 -0.54645199317E+02 -0.62188901906E+02  0.18323363409E+03  0.22700655002E+03  0.10537481559E+03 0.  0.
          5    1    3    3  502    0  0.38258644452E+02 -0.32471538827E+02  0.41920330569E+02  0.65520311538E+02  0.41800000000E+01 0. -1.
         -5    1    3    3    0  502  0.16386554865E+02  0.94660440733E+02  0.29226565087E+02  0.10050265035E+03  0.41800000000E+01 0. -1.
        -11    1    4    4    0    0 -0.74770352060E+02 -0.73686188829E+02  0.11882676788E+03  0.15855617533E+03  0.00000000000E+00 0. -1.
         11    1    4    4    0    0  0.20125152743E+02  0.11497286923E+02  0.64406866213E+02  0.68450374688E+02  0.00000000000E+00 0.  1.
</event>
<event>
 8    1  0.6443238E-009  0.1173336E+03  0.7561462E-02  0.1247562E+00
         -2   -1    0    0    0  501 -0.00000000000E+00  0.00000000000E+00  0.81885091165E+02  0.81885091165E+02  0.00000000000E+00 0.  1.
          2   -1    0    0  501    0  0.00000000000E+00 -0.00000000000E+00 -0.26929116273E+03  0.26929116273E+03  0.00000000000E+00 0. -1.
         25    2    1    2    0    0  0.28073798561E+02  0.62364902611E+02 -0.35933053025E+02  0.14702494984E+03  0.12509049658E+03 0.  0.
         23    2    1    2    0    0 -0.28073798561E+02 -0.62364902611E+02 -0.15147301854E+03  0.20415130405E+03  0.11855867896E+03 0.  0.
          5    1    3    3  502    0  0.44183358643E+02 -0.25913151791E+02 -0.34806192464E+01  0.51509685760E+02  0.41800000000E+01 0. -1.
         -5    1    3    3    0  502 -0.16109560083E+02  0.88278054401E+02 -0.32452433779E+02  0.95515264084E+02  0.41800000000E+01 0. -1.
        -11    1    4    4    0    0  0.20664018358E+02 -0.15536627121E+02 -0.13100433633E+03  0.13353098732E+03  0.00000000000E+00 0. -1.
         11    1    4    4    0    0 -0.48737816919E+02 -0.46828275490E+02 -0.20468682205E+02  0.70620316727E+02  0.00000000000E+00 0.  1.
</event>
<event>
 8    1  0.6443238E-009  0.7324393E+02  0.7561462E-02  0.1349397E+00
          2   -1    0    0  501    0  0.00000000000E+00  0.00000000000E+00  0.20796866111E+03  0.20796866111E+03  0.00000000000E+00 0. -1.
         -2   -1    0    0    0  501 -0.00000000000E+00 -0.00000000000E+00 -0.64043958905E+02  0.64043958905E+02  0.00000000000E+00 0.  1.
         25    2    1    2    0    0 -0.33849923024E+02 -0.17755038439E+02  0.81088652966E+02  0.15389474688E+03  0.12508862778E+03 0.  0.
         23    2    1    2    0    0  0.33849923024E+02  0.17755038439E+02  0.62836049236E+02  0.11811787313E+03  0.92425127483E+02 0.  0.
          5    1    3    3  502    0  0.24483968243E+02 -0.38785403588E+02 -0.64824212663E+01  0.46510927941E+02  0.41800000000E+01 0. -1.
         -5    1    3    3    0  502 -0.58333891267E+02  0.21030365149E+02  0.87571074232E+02  0.10738381894E+03  0.41800000000E+01 0. -1.
        -11    1    4    4    0    0  0.16577906620E+02  0.75142570707E+01 -0.23360017474E+02  0.29613872824E+02  0.00000000000E+00 0.  1.
         11    1    4    4    0    0  0.17272016404E+02  0.10240781368E+02  0.86196066710E+02  0.88504000305E+02  0.00000000000E+00 0. -1.
</event>
<event>
 8    1  0.6443238E-009  0.8385111E+02  0.7561462E-02  0.1318465E+00
          1   -1    0    0  501    0  0.00000000000E+00  0.00000000000E+00  0.57977060007E+03  0.57977060007E+03  0.00000000000E+00 0. -1.
         -1   -1    0    0    0  501 -0.00000000000E+00 -0.00000000000E+00 -0.21896648950E+02  0.21896648950E+02  0.00000000000E+00 0.  1.
         25    2    1    2    0    0  0.12459959436E+02  0.49188454417E+01  0.38111985140E+03  0.40134714641E+03  0.12509094762E+03 0.  0.
         23    2    1    2    0    0 -0.12459959436E+02 -0.49188454417E+01  0.17675409972E+03  0.20032010261E+03  0.93309624958E+02 0.  0.
          5    1    3    3  502    0 -0.24429964638E+02 -0.45641126351E+02  0.25792794175E+03  0.26310498118E+03  0.41800000000E+01 0. -1.
         -5    1    3    3    0  502  0.36889924074E+02  0.50559971793E+02  0.12319190965E+03  0.13824216523E+03  0.41800000000E+01 0. -1.
        -11    1    4    4    0    0 -0.27454427183E+02  0.12405159801E+02  0.17474196743E+03  0.17732001789E+03  0.00000000000E+00 0. -1.
         11    1    4    4    0    0  0.14994467747E+02 -0.17324005242E+02  0.20121322891E+01  0.23000084717E+02  0.00000000000E+00 0.  1.
</event>
<event>
 8    1  0.6443238E-009  0.9691347E+02  0.7561462E-02  0.1286924E+00
          2   -1    0    0  501    0  0.00000000000E+00  0.00000000000E+00  0.70494626554E+03  0.70494626554E+03  0.00000000000E+00 0. -1.
         -2   -1    0    0    0  501 -0.00000000000E+00 -0.00000000000E+00 -0.18789036955E+02  0.18789036955E+02  0.00000000000E+00 0.  1.
         25    2    1    2    0    0 -0.17972886677E+02  0.23989677636E+02  0.47118013070E+03  0.48842289799E+03  0.12509069681E+03 0.  0.
         23    2    1    2    0    0  0.17972886677E+02 -0.23989677636E+02  0.21497709788E+03  0.23531240450E+03  0.90874890971E+02 0.  0.
          5    1    3    3  502    0  0.40507711269E+01 -0.47495189672E+02  0.11701298155E+03  0.12641879622E+03  0.41800000000E+01 0.  1.
         -5    1    3    3    0  502 -0.22023657804E+02  0.71484867307E+02  0.35416714916E+03  0.36200410177E+03  0.41800000000E+01 0.  1.
        -11    1    4    4    0    0  0.41035772409E+02 -0.24862007428E+02  0.20434426948E+03  0.20990148761E+03  0.00000000000E+00 0.  1.
         11    1    4    4    0    0 -0.23062885731E+02  0.87232979255E+00  0.10632828405E+02  0.25410916894E+02  0.00000000000E+00 0. -1.
</event>
<event>
 8    1  0.6443238E-009  0.1168527E+03  0.7561462E-02  0.1248381E+00
         -2   -1    0    0    0  501 -0.00000000000E+00  0.00000000000E+00  0.16413114085E+03  0.16413114085E+03  0.00000000000E+00 0.  1.
          2   -1    0    0  501    0  0.00000000000E+00 -0.00000000000E+00 -0.83914006281E+02  0.83914006281E+02  0.00000000000E+00 0. -1.
         25    2    1    2    0    0 -0.10720947687E+02 -0.47903330726E+02  0.35891135088E+02  0.13908858610E+03  0.12509114034E+03 0.  0.
         23    2    1    2    0    0  0.10720947687E+02  0.47903330726E+02  0.44325999480E+02  0.10895656103E+03  0.86585623213E+02 0.  0.
          5    1    3    3  502    0 -0.29045131530E+02 -0.86556558417E+02  0.24045587323E+02  0.94505661948E+02  0.41800000000E+01 0. -1.
         -5    1    3    3    0  502  0.18324183842E+02  0.38653227691E+02  0.11845547765E+02  0.44582924155E+02  0.41800000000E+01 0. -1.
        -11    1    4    4    0    0  0.33368356604E+02  0.63567096647E+02  0.28881162141E+02  0.77384394585E+02  0.00000000000E+00 0. -1.
         11    1    4    4    0    0 -0.22647408917E+02 -0.15663765921E+02  0.15444837339E+02  0.31572166443E+02  0.00000000000E+00 0.  1.
</event>
<event>
 8    1  0.6443238E-009  0.9124013E+02  0.7561462E-02  0.1299876E+00
         -2   -1    0    0    0  501 -0.00000000000E+00  0.00000000000E+00  0.44963014691E+02  0.44963014691E+02  0.00000000000E+00 0.  1.
          2   -1    0    0  501    0  0.00000000000E+00 -0.00000000000E+00 -0.37099614479E+03  0.37099614479E+03  0.00000000000E+00 0. -1.
         25    2    1    2    0    0 -0.80374856123E+01 -0.65445652840E+02 -0.14228667055E+03  0.20059735460E+03  0.12508424123E+03 0.  0.
         23    2    1    2    0    0  0.80374856123E+01  0.65445652840E+02 -0.18374645954E+03  0.21536180488E+03  0.90940700226E+02 0.  0.
          5    1    3    3  502    0  0.35413437619E+02  0.18464811083E+01 -0.10730632080E+03  0.11309129029E+03  0.41800000000E+01 0. -1.
         -5    1    3    3    0  502 -0.43450923232E+02 -0.67292133948E+02 -0.34980349755E+02  0.87506064304E+02  0.41800000000E+01 0. -1.
        -11    1    4    4    0    0 -0.19833427958E+01  0.15101077919E+02  0.77609469188E+01  0.17094107173E+02  0.00000000000E+00 0.  1.
         11    1    4    4    0    0  0.10020828408E+02  0.50344574921E+02 -0.19150740646E+03  0.19826769771E+03  0.00000000000E+00 0. -1.
</event>
<event>
 8    1  0.6443238E-009  0.1181877E+03  0.7561462E-02  0.1246117E+00
          1   -1    0    0  501    0  0.00000000000E+00  0.00000000000E+00  0.11754926890E+04  0.11754926890E+04  0.00000000000E+00 0. -1.
         -1   -1    0    0    0  501 -0.00000000000E+00 -0.00000000000E+00 -0.28140372623E+02  0.28140372623E+02  0.00000000000E+00 0.  1.
         25    2    1    2    0    0  0.98842419836E+02 -0.26146325144E+02  0.94599843687E+03  0.95969210003E+03  0.12506970068E+03 0.  0.
         23    2    1    2    0    0 -0.98842419836E+02  0.26146325144E+02  0.20135387954E+03  0.24394096162E+03  0.92251578163E+02 0.  0.
          5    1    3    3  502    0  0.53334692106E+02  0.79346928708E+01  0.11879877774E+03  0.13053034408E+03  0.41800000000E+01 0.  1.
         -5    1    3    3    0  502  0.45507727730E+02 -0.34081018015E+02  0.82719965913E+03  0.82916175595E+03  0.41800000000E+01 0.  1.
        -11    1    4    4    0    0 -0.49772850480E+02  0.50150970321E+02  0.61052306219E+02  0.93380086548E+02  0.00000000000E+00 0.  1.
         11    1    4    4    0    0 -0.49069569356E+02 -0.24004645177E+02  0.14030157332E+03  0.15056087507E+03  0.00000000000E+00 0. -1.
</event>
<event>
 8    1  0.6443238E-009  0.9037021E+02  0.7561462E-02  0.1301958E+00
         -2   -1    0    0    0  501 -0.00000000000E+00  0.00000000000E+00  0.95475945959E+02  0.95475945959E+02  0.00000000000E+00 0.  1.
          2   -1    0    0  501    0  0.00000000000E+00 -0.00000000000E+00 -0.12730555454E+03  0.12730555454E+03  0.00000000000E+00 0. -1.
         25    2    1    2    0    0  0.19290152536E+02 -0.40256865550E+01 -0.59025954636E+01  0.12676884916E+03  0.12508870591E+03 0.  0.
         23    2    1    2    0    0 -0.19290152536E+02  0.40256865550E+01 -0.25927013114E+02  0.96012651336E+02  0.90321110879E+02 0.  0.
          5    1    3    3  502    0  0.54077616160E+02 -0.42900190691E+02 -0.21049619598E+02  0.72286747168E+02  0.41800000000E+01 0.  1.
         -5    1    3    3    0  502 -0.34787463624E+02  0.38874504136E+02  0.15147024134E+02  0.54482101991E+02  0.41800000000E+01 0.  1.
        -11    1    4    4    0    0  0.61000344637E+01 -0.22037404851E+02 -0.48201392648E+02  0.53350087968E+02  0.00000000000E+00 0. -1.
         11    1    4    4    0    0 -0.25390187000E+02  0.26063091406E+02  0.22274379533E+02  0.42662563368E+02  0.00000000000E+00 0.  1.
</event>
<event>
 8    1  0.6443238E-009  0.1142285E+03  0.7561462E-02  0.1252934E+00
          1   -1    0    0  501    0  0.00000000000E+00  0.00000000000E+00  0.30045856054E+03  0.30045856054E+03  0.00000000000E+00 0. -1.
         -1   -1    0    0    0  501 -0.00000000000E+00 -0.00000000000E+00 -0.54363237891E+02  0.54363237891E+02  0.00000000000E+00 0.  1.
         25    2    1    2    0    0 -0.84224867301E+01  0.65003054391E+02  0.16177598823E+03  0.21474726538E+03  0.12509429347E+03 0.  0.
         23    2    1    2    0    0  0.84224867301E+01 -0.65003054391E+02  0.84319334420E+02  0.14007453305E+03  0.90635474782E+02 0.  0.
          5    1    3    3  502    0  0.52316308793E+02  0.97256367222E+01  0.94365897318E+02  0.10841576985E+03  0.41800000000E+01 0.  1.
         -5    1    3    3    0  502 -0.60738795523E+02  0.55277417669E+02  0.67410090911E+02  0.10633149553E+03  0.41800000000E+01 0.  1.
        -11    1    4    4    0    0  0.33969570331E+02 -0.56494195324E+02  0.90965250142E+02  0.11233967486E+03  0.00000000000E+00 0.  1.
         11    1    4    4    0    0 -0.25547083601E+02 -0.85088590670E+01 -0.66459157211E+01  0.27734858191E+02  0.00000000000E+00 0. -1.
</event>
<event>
 8    1  0.6443238E-009  0.1111252E+03  0.7561462E-02  0.1258500E+00
         -3   -1    0    0    0  501 -0.00000000000E+00  0.00000000000E+00  0.67921123717E+03  0.67921123717E+03  0.00000000000E+00 0.  1.
          3   -1    0    0  501    0  0.00000000000E+00 -0.00000000000E+00 -0.25694249971E+02  0.25694249971E+02  0.00000000000E+00 0. -1.
         25    2    1    2    0    0 -0.70874061247E+02 -0.29211013201E+02  0.48250835278E+03  0.50431970211E+03  0.12509050956E+03 0.  0.
         23    2    1    2    0    0  0.70874061247E+02  0.29211013201E+02  0.17100863441E+03  0.20058578503E+03  0.71514252160E+02 0.  0.
          5    1    3    3  502    0 -0.83546435486E+02 -0.57735128324E+02  0.43898731850E+03  0.45060036632E+03  0.41800000000E+01 0. -1.
         -5    1    3    3    0  502  0.12672374239E+02  0.28524115124E+02  0.43521034278E+02  0.53719335784E+02  0.41800000000E+01 0. -1.
        -11    1    4    4    0    0  0.25884651497E+02 -0.11610780017E+02  0.11329325041E+03  0.11679120679E+03  0.00000000000E+00 0.  1.
         11    1    4    4    0    0  0.44989409750E+02  0.40821793217E+02  0.57715384003E+02  0.83794578236E+02  0.00000000000E+00 0. -1.
</event>
<event>
 8    1  0.6443238E-009  0.1263425E+03  0.7561462E-02  0.1232986E+00
          2   -1    0    0  501    0  0.00000000000E+00  0.00000000000E+00  0.11800043975E+03  0.11800043975E+03  0.00000000000E+00 0. -1.
         -2   -1    0    0    0  501 -0.00000000000E+00 -0.00000000000E+00 -0.32927438392E+03  0.32927438392E+03  0.00000000000E+00 0.  1.
         25    2    1    2    0    0  0.11214112876E+03 -0.43258353828E+02  0.18025643881E+02  0.17441413491E+03  0.12509375957E+03 0.  0.
         23    2    1    2    0    0 -0.11214112876E+03  0.43258353828E+02 -0.22929958805E+03  0.27286068876E+03  0.86184316750E+02 0.  0.
          5    1    3    3  502    0  0.88640798838E+02 -0.33263594249E+02 -0.46010174986E+02  0.10534736125E+03  0.41800000000E+01 0.  1.
         -5    1    3    3    0  502  0.23500329918E+02 -0.99947595788E+01  0.64035818867E+02  0.69066773656E+02  0.41800000000E+01 0.  1.
        -11    1    4    4    0    0 -0.16749111291E+02 -0.13080993696E+02 -0.10161264066E+03  0.10381124152E+03  0.00000000000E+00 0.  1.
         11    1    4    4    0    0 -0.95392017464E+02  0.56339347524E+02 -0.12768694740E+03  0.16904944724E+03  0.00000000000E+00 0. -1.
</event>
<event>
 8    1  0.6443238E-009  0.1606227E+03  0.7561462E-02  0.1187996E+00
         -1   -1    0    0    0  501 -0.00000000000E+00  0.00000000000E+00  0.17356108758E+02  0.17356108758E+02  0.00000000000E+00 0.  1.
          1   -1    0    0  501    0  0.00000000000E+00 -0.00000000000E+00 -0.15350525050E+04  0.15350525050E+04  0.00000000000E+00 0. -1.
         25    2    1    2    0    0 -0.87396307574E+02 -0.84458569118E+02 -0.88714035963E+03  0.90412190506E+03  0.12508811714E+03 0.  0.
         23    2    1    2    0    0  0.87396307574E+02  0.84458569118E+02 -0.63055603662E+03  0.64828670870E+03  0.88900938638E+02 0.  0.
          5    1    3    3  502    0  0.29958381989E+02 -0.40593330261E+01 -0.20831467400E+03  0.21053849681E+03  0.41800000000E+01 0.  1.
         -5    1    3    3    0  502 -0.11735468956E+03 -0.80399236092E+02 -0.67882568563E+03  0.69358340825E+03  0.41800000000E+01 0.  1.
        -11    1    4    4    0    0  0.50349489701E+02 -0.59557249747E+01 -0.27037435575E+03  0.27508695720E+03  0.00000000000E+00 0. -1.
         11    1    4    4    0    0  0.37046817873E+02  0.90414294092E+02 -0.36018168087E+03  0.37319975151E+03  0.00000000000E+00 0.  1.
</event>
<event>
 8    1  0.6443238E-009  0.9932535E+02  0.7561462E-02  0.1281721E+00
         -3   -1    0    0    0  501 -0.00000000000E+00  0.00000000000E+00  0.50593111207E+03  0.50593111207E+03  0.00000000000E+00 0.  1.
          3   -1    0    0  501    0  0.00000000000E+00 -0.00000000000E+00 -0.41250003028E+02  0.41250003028E+02  0.00000000000E+00 0. -1.
         25    2    1    2    0    0  0.16881559431E+02  0.66416722110E+02  0.37826893388E+03  0.40426616100E+03  0.12509026569E+03 0.  0.
         23    2    1    2    0    0 -0.16881559431E+02 -0.66416722110E+02  0.86412175169E+02  0.14291495410E+03  0.90892530293E+02 0.  0.
          5    1    3    3  502    0  0.38965246557E+02  0.28398291311E+02  0.34649594165E+03  0.34985949089E+03  0.41800000000E+01 0.  1.
         -5    1    3    3    0  502 -0.22083687126E+02  0.38018430798E+02  0.31772992231E+02  0.54406670113E+02  0.41800000000E+01 0.  1.
        -11    1    4    4    0    0 -0.45700576272E+02 -0.16762999925E+02  0.14289518427E+02  0.50731954180E+02  0.00000000000E+00 0. -1.
         11    1    4    4    0    0  0.28819016841E+02 -0.49653722185E+02  0.72122656742E+02  0.92182999919E+02  0.00000000000E+00 0.  1.
</event>
<event>
 8    1  0.6443238E-009  0.1093987E+03  0.7561462E-02  0.1261687E+00
          4   -1    0    0  501    0  0.00000000000E+00  0.00000000000E+00  0.23829630603E+02  0.23829630603E+02  0.00000000000E+00 0. -1.
         -4   -1    0    0    0  501 -0.00000000000E+00 -0.00000000000E+00 -0.67498394103E+03  0.67498394103E+03  0.00000000000E+00 0.  1.
         25    2    1    2    0    0  0.37117904529E+02 -0.30092427145E+02 -0.48226549736E+03  0.50051101927E+03  0.12509187609E+03 0.  0.
         23    2    1    2    0    0 -0.37117904529E+02  0.30092427145E+02 -0.16888881306E+03  0.19830255236E+03  0.92288558795E+02 0.  0.
          5    1    3    3  502    0 -0.25592046202E+01 -0.73605377733E+02 -0.29932481990E+03  0.30828091307E+03  0.41800000000E+01 0.  1.
         -5    1    3    3    0  502  0.39677109149E+02  0.43512950588E+02 -0.18294067746E+03  0.19223010620E+03  0.41800000000E+01 0.  1.
        -11    1    4    4    0    0 -0.45112205346E+02  0.48310939515E+02 -0.16538030103E+03  0.17810025805E+03  0.00000000000E+00 0.  1.
         11    1    4    4    0    0  0.79943008168E+01 -0.18218512370E+02 -0.35085120309E+01  0.20202294305E+02  0.00000000000E+00 0. -1.
</event>
<event>
 8    1  0.6443238E-009  0.1781267E+03  0.7561462E-02  0.1169628E+00
          2   -1    0    0  501    0  0.00000000000E+00  0.00000000000E+00  0.19877806049E+04  0.19877806049E+04  0.00000000000E+00 0. -1.
         -2   -1    0    0    0  501 -0.00000000000E+00 -0.00000000000E+00 -0.43956457762E+02  0.43956457762E+02  0.00000000000E+00 0.  1.
         25    2    1    2    0    0 -0.11841067566E+03  0.10382704190E+03  0.17718957533E+04  0.17832735052E+04  0.12509472855E+03 0.  0.
         23    2    1    2    0    0  0.11841067566E+03 -0.10382704190E+03  0.17192839391E+03  0.24846355752E+03  0.85869808681E+02 0.  0.
          5    1    3    3  502    0 -0.39734755850E+02 -0.24723761338E+02  0.29732016729E+03  0.30100974980E+03  0.41800000000E+01 0. -1.
         -5    1    3    3    0  502 -0.78675919809E+02  0.12855080323E+03  0.14745755860E+04  0.14822637554E+04  0.41800000000E+01 0. -1.
        -11    1    4    4    0    0  0.77873715302E+02 -0.56679599624E+02  0.43314033750E+02  0.10560775572E+03  0.00000000000E+00 0.  1.
         11    1    4    4    0    0  0.40536960357E+02 -0.47147442273E+02  0.12861436016E+03  0.14285580180E+03  0.00000000000E+00 0. -1.
</event>
<event>
 8    1  0.6443238E-009  0.1224898E+03  0.7561462E-02  0.1239045E+00
          2   -1    0    0  501    0  0.00000000000E+00  0.00000000000E+00  0.14085521355E+03  0.14085521355E+03  0.00000000000E+00 0. -1.
         -2   -1    0    0    0  501 -0.00000000000E+00 -0.00000000000E+00 -0.13352375759E+03  0.13352375759E+03  0.00000000000E+00 0.  1.
         25    2    1    2    0    0  0.19285657409E+02 -0.60848419892E+02 -0.50648592086E+02  0.14928803809E+03  0.12508865516E+03 0.  0.
         23    2    1    2    0    0 -0.19285657409E+02  0.60848419892E+02  0.57980048043E+02  0.12509093306E+03  0.90617817105E+02 0.  0.
          5    1    3    3  502    0 -0.35752023857E+02  0.17266550696E+02 -0.33497678588E+02  0.52114372812E+02  0.41800000000E+01 0. -1.
         -5    1    3    3    0  502  0.55037681266E+02 -0.78114970588E+02 -0.17150913498E+02  0.97173665275E+02  0.41800000000E+01 0. -1.
        -11    1    4    4    0    0 -0.11194919178E+02 -0.22784135954E+02  0.53433903733E+01  0.25942145001E+02  0.00000000000E+00 0.  1.
         11    1    4    4    0    0 -0.80907382315E+01  0.83632555845E+02  0.52636657669E+02  0.99148788056E+02  0.00000000000E+00 0. -1.
</event>
<event>
 7    1  0.6443238E-009  0.5643588E+02  0.7561462E-02  0.1413428E+00
         -2   -1    0    0    0  501 -0.00000000000E+00  0.00000000000E+00  0.89557942331E+02  0.89557942331E+02  0.00000000000E+00 0.  1.
          2   -1    0    0  501    0  0.00000000000E+00 -0.00000000000E+00 -0.15651201267E+03  0.15651201267E+03  0.00000000000E+00 0. -1.
         23    2    1    2    0    0  0.12440731871E+02 -0.45880112536E+02 -0.24093633526E+02  0.10562891278E+03  0.91198725330E+02 0.  0.
          5    1    1    2  502    0  0.11578756963E+02  0.68586848703E+00  0.40609705820E+02  0.42440059321E+02  0.41800000000E+01 0.  1.
         -5    1    1    2    0  502 -0.24019488834E+02  0.45194244049E+02 -0.83470142635E+02  0.98000982906E+02  0.41800000000E+01 0.  1.
        -11    1    3    3    0    0 -0.20466466485E+01 -0.14314188697E+02 -0.56382257211E+02  0.58206904134E+02  0.00000000000E+00 0. -1.
         11    1    3    3    0    0  0.14487378519E+02 -0.31565923839E+02  0.32288623685E+02  0.47422008642E+02  0.00000000000E+00 0.  1.
</event>
<event>
 8    1  0.6443238E-009  0.1113380E+03  0.7561462E-02  0.1258112E+00
          1   -1    0    0  501    0  0.00000000000E+00  0.00000000000E+00  0.66441616617E+02  0.66441616617E+02  0.00000000000E+00 0. -1.
         -1   -1    0    0    0  501 -0.00000000000E+00 -0.00000000000E+00 -0.37621219417E+03  0.37621219417E+03  0.00000000000E+00 0.  1.
         25    2    1    2    0    0 -0.87178083454E+02 -0.15042204585E+01 -0.26888836912E+03  0.30910916141E+03  0.12508092463E+03 0.  0.
         23    2    1    2    0    0  0.87178083454E+02  0.15042204585E+01 -0.40882208434E+02  0.13354464938E+03  0.92523172756E+02 0.  0.
          5    1    3    3  502    0 -0.94448753158E+02 -0.14973000060E+02 -0.27569905430E+03  0.29184276357E+03  0.41800000000E+01 0.  1.
         -5    1    3    3    0  502  0.72706697046E+01  0.13468779601E+02  0.68106851813E+01  0.17266397845E+02  0.41800000000E+01 0.  1.
        -11    1    4    4    0    0  0.98576953513E+02  0.61774551322E+01 -0.87801203857E+01  0.99159806524E+02  0.00000000000E+00 0. -1.
         11    1    4    4    0    0 -0.11398870060E+02 -0.46732346737E+01 -0.32102088048E+02  0.34384842853E+02  0.00000000000E+00 0.  1.
</event>
<event>
 8    1  0.6443238E-009  0.1305582E+03  0.7561462E-02  0.1226630E+00
         -1   -1    0    0    0  501 -0.00000000000E+00  0.00000000000E+00  0.13870533895E+04  0.13870533895E+04  0.00000000000E+00 0.  1.
          1   -1    0    0  501    0  0.00000000000E+00 -0.00000000000E+00 -0.16335840897E+02  0.16335840897E+02  0.00000000000E+00 0. -1.
         25    2    1    2    0    0  0.17071466906E+02  0.93651868356E+02  0.86939700063E+03  0.88349326359E+03  0.12508834742E+03 0.  0.
         23    2    1    2    0    0 -0.17071466906E+02 -0.93651868356E+02  0.50132054801E+03  0.51989596685E+03  0.99536008879E+02 0.  0.
          5    1    3    3  502    0  0.45866567881E+02 -0.29478003291E+01  0.43952804597E+03  0.44194434850E+03  0.41800000000E+01 0.  1.
         -5    1    3    3    0  502 -0.28795100974E+02  0.96599668685E+02  0.42986895466E+03  0.44154891508E+03  0.41800000000E+01 0.  1.
        -11    1    4    4    0    0  0.33722073848E+01 -0.93574332700E+02  0.48437464230E+03  0.49334199256E+03  0.00000000000E+00 0.  1.
         11    1    4    4    0    0 -0.20443674291E+02 -0.77535655758E-01  0.16945905714E+02  0.26553974293E+02  0.00000000000E+00 0. -1.
</event>
<event>
 8    1  0.6443238E-009  0.1098766E+03  0.7561462E-02  0.1260799E+00
         -2   -1    0    0    0  501 -0.00000000000E+00  0.00000000000E+00  0.58188667202E+02  0.58188667202E+02  0.00000000000E+00 0.  1.
          2   -1    0    0  501    0  0.00000000000E+00 -0.00000000000E+00 -0.23720277549E+03  0.23720277549E+03  0.00000000000E+00 0. -1.
         25    2    1    2    0    0 -0.36357064748E+02 -0.19951869040E+02 -0.11497100877E+03  0.17488780528E+03  0.12508996100E+03 0.  0.
         23    2    1    2    0    0  0.36357064748E+02  0.19951869040E+02 -0.64043099516E+02  0.12050363741E+03  0.93272154457E+02 0.  0.
          5    1    3    3  502    0 -0.56591366869E+02  0.33991516595E+02 -0.90634654688E+02  0.11220569965E+03  0.41800000000E+01 0.  1.
         -5    1    3    3    0  502  0.20234302121E+02 -0.53943385635E+02 -0.24336354080E+02  0.62682105628E+02  0.41800000000E+01 0.  1.
        -11    1    4    4    0    0 -0.27557706795E+02  0.15859006787E+02 -0.42196413645E+02  0.52834388655E+02  0.00000000000E+00 0. -1.
         11    1    4    4    0    0  0.63914771543E+02  0.40928622527E+01 -0.21846685871E+02  0.67669248750E+02  0.00000000000E+00 0.  1.
</event>
<event>
 8    1  0.6443238E-009  0.4099566E+03  0.7561462E-02  0.1040386E+00
         -2   -1    0    0    0  501 -0.00000000000E+00  0.00000000000E+00  0.26996043240E+03  0.26996043240E+03  0.00000000000E+00 0. -1.
          2   -1    0    0  501    0  0.00000000000E+00 -0.00000000000E+00 -0.64054948224E+03  0.64054948224E+03  0.00000000000E+00 0.  1.
         25    2    1    2    0    0 -0.24849042933E+03 -0.31336159360E+03 -0.22218847710E+03  0.47429627920E+03  0.12508500827E+03 0.  0.
         23    2    1    2    0    0  0.24849042933E+03  0.31336159360E+03 -0.14840057273E+03  0.43621363544E+03  0.91195525869E+02 0.  0.
          5    1    3    3  502    0 -0.11233886780E+02 -0.96665165395E+02 -0.59071642083E+02  0.11391789022E+03  0.41800000000E+01 0.  1.
         -5    1    3    3    0  502 -0.23725654255E+03 -0.21669642821E+03 -0.16311683502E+03  0.36037838899E+03  0.41800000000E+01 0.  1.
        -11    1    4    4    0    0  0.13577830979E+03  0.19602269078E+03 -0.42855910403E+02  0.24227520254E+03  0.00000000000E+00 0. -1.
         11    1    4    4    0    0  0.11271211954E+03  0.11733890282E+03 -0.10554466233E+03  0.19393843289E+03  0.00000000000E+00 0.  1.
</event>
<event>
 6    1  0.6443238E-009  0.2196639E+03  0.7561462E-02  0.1134134E+00
         -2   -1    0    0    0  501 -0.00000000000E+00  0.00000000000E+00  0.68637730521E+02  0.68637730521E+02  0.00000000000E+00 0.  1.
          2   -1    0    0  501    0  0.00000000000E+00 -0.00000000000E+00 -0.13091487238E+04  0.13091487238E+04  0.00000000000E+00 0. -1.
          5    1    1    2  502    0  0.28521611880E+02  0.71055325254E+02 -0.81927936228E+02  0.11221408435E+03  0.41800000000E+01 0.  1.
         -5    1    1    2    0  502 -0.73434118562E+02  0.40601427840E+02 -0.11265905909E+02  0.84766967314E+02  0.41800000000E+01 0.  1.
        -11    1    1    2    0    0 -0.10201721045E+03 -0.15886486661E+02 -0.46278313307E+03  0.47416043692E+03  0.00000000000E+00 0. -1.
         11    1    1    2    0    0  0.14692971713E+03 -0.95770266433E+02 -0.68453401803E+03  0.70664496570E+03  0.00000000000E+00 0.  1.
</event>
<event>
 8    1  0.6443238E-009  0.1254836E+03  0.7561462E-02  0.1234315E+00
         -1   -1    0    0    0  501 -0.00000000000E+00  0.00000000000E+00  0.12571440395E+04  0.12571440395E+04  0.00000000000E+00 0.  1.
          1   -1    0    0  501    0  0.00000000000E+00 -0.00000000000E+00 -0.12950692101E+02  0.12950692101E+02  0.00000000000E+00 0. -1.
         25    2    1    2    0    0  0.62917152699E+02  0.21967133183E+02  0.72130908343E+03  0.73510117602E+03  0.12508326064E+03 0.  0.
         23    2    1    2    0    0 -0.62917152699E+02 -0.21967133183E+02  0.52288426395E+03  0.53499355557E+03  0.91482391586E+02 0.  0.
          5    1    3    3  502    0  0.98925285602E+02  0.23828263132E+02  0.45032802221E+03  0.46169990063E+03  0.41800000000E+01 0. -1.
         -5    1    3    3    0  502 -0.36008132903E+02 -0.18611299487E+01  0.27098106123E+03  0.27340127539E+03  0.41800000000E+01 0. -1.
        -11    1    4    4    0    0 -0.31228713200E+02  0.35452784582E+02  0.19838545181E+03  0.20393361653E+03  0.00000000000E+00 0. -1.
         11    1    4    4    0    0 -0.31688439499E+02 -0.57419917764E+02  0.32449881214E+03  0.33105993903E+03  0.00000000000E+00 0.  1.
</event>
<event>
 8    1  0.6443238E-009  0.1192772E+03  0.7561462E-02  0.1244294E+00
          1   -1    0    0  501    0  0.00000000000E+00  0.00000000000E+00  0.71134703903E+03  0.71134703903E+03  0.00000000000E+00 0. -1.
         -1   -1    0    0    0  501 -0.00000000000E+00 -0.00000000000E+00 -0.36704138942E+02  0.36704138942E+02  0.00000000000E+00 0.  1.
         25    2    1    2    0    0  0.81033333340E+02 -0.26252521118E+02  0.55425001070E+03  0.57453739922E+03  0.12507818657E+03 0.  0.
         23    2    1    2    0    0 -0.81033333340E+02  0.26252521118E+02  0.12039288938E+03  0.17351377875E+03  0.91416561007E+02 0.  0.
          5    1    3    3  502    0  0.23968863236E+02 -0.71628494828E+02  0.33539827210E+03  0.34382353178E+03  0.41800000000E+01 0. -1.
         -5    1    3    3    0  502  0.57064470103E+02  0.45375973710E+02  0.21885173860E+03  0.23071386744E+03  0.41800000000E+01 0. -1.
        -11    1    4    4    0    0 -0.39299351218E+02 -0.22151973141E+01  0.11635667685E+03  0.12283412536E+03  0.00000000000E+00 0. -1.
         11    1    4    4    0    0 -0.41733982121E+02  0.28467718432E+02  0.40362125308E+01  0.50679653393E+02  0.00000000000E+00 0.  1.
</event>
<event>
 7    1  0.6443238E-009  0.1263739E+03  0.7561462E-02  0.1232938E+00
          1   -1    0    0  501    0  0.00000000000E+00  0.00000000000E+00  0.70884372946E+03  0.70884372946E+03  0.00000000000E+00 0. -1.
         -1   -1    0    0    0  501 -0.00000000000E+00 -0.00000000000E+00 -0.32947696318E+02  0.32947696318E+02  0.00000000000E+00 0.  1.
         23    2    1    2    0    0  0.10005443294E+03 -0.98716592723E+01  0.22265394659E+03  0.26099179521E+03  0.91834623233E+02 0.  0.
          5    1    1    2  502    0  0.18219773949E+02  0.51989214247E+00  0.20262800529E+03  0.20348909400E+03  0.41800000000E+01 0. -1.
         -5    1    1    2    0  502 -0.11827420689E+03  0.93517671298E+01  0.25061408126E+03  0.27731053656E+03  0.41800000000E+01 0. -1.
        -11    1    3    3    0    0  0.59230565836E+02  0.22365965587E+02  0.50009708019E+02  0.80681269462E+02  0.00000000000E+00 0.  1.
         11    1    3    3    0    0  0.40823867108E+02 -0.32237624859E+02  0.17264423858E+03  0.18031052575E+03  0.00000000000E+00 0. -1.
</event>
<event>
 8    1  0.6443238E-009  0.1569926E+03  0.7561462E-02  0.1192135E+00
          2   -1    0    0  501    0  0.00000000000E+00  0.00000000000E+00  0.49091329130E+03  0.49091329130E+03  0.00000000000E+00 0. -1.
         -2   -1    0    0    0  501 -0.00000000000E+00 -0.00000000000E+00 -0.66075973058E+02  0.66075973058E+02  0.00000000000E+00 0.  1.
         25    2    1    2    0    0 -0.11120326826E+03 -0.49857457067E+02  0.10678224917E+03  0.20469936315E+03  0.12508975833E+03 0.  0.
         23    2    1    2    0    0  0.11120326826E+03  0.49857457067E+02  0.31805506907E+03  0.35228990120E+03  0.89984524385E+02 0.  0.
          5    1    3    3  502    0 -0.11570324602E+03 -0.74371672747E+02  0.57149594186E+02  0.14900313877E+03  0.41800000000E+01 0. -1.
         -5    1    3    3    0  502  0.44999777564E+01  0.24514215681E+02  0.49632654982E+02  0.55696224385E+02  0.41800000000E+01 0. -1.
        -11    1    4    4    0    0  0.18111580783E+02  0.54966787924E+02  0.10981411739E+03  0.12413104975E+03  0.00000000000E+00 0.  1.
         11    1    4    4    0    0  0.93091687481E+02 -0.51093308570E+01  0.20824095168E+03  0.22815885146E+03  0.00000000000E+00 0. -1.
</event>
<event>
 8    1  0.6443238E-009  0.1712233E+03  0.7561462E-02  0.1176578E+00
         -2   -1    0    0    0  501 -0.00000000000E+00  0.00000000000E+00  0.16494535777E+02  0.16494535777E+02  0.00000000000E+00 0.  1.
          2   -1    0    0  501    0  0.00000000000E+00 -0.00000000000E+00 -0.19749348251E+04  0.19749348251E+04  0.00000000000E+00 0. -1.
         25    2    1    2    0    0  0.89706600823E+02 -0.10572415702E+03 -0.12517755884E+04  0.12656278292E+04  0.12508719728E+03 0.  0.
         23    2    1    2    0    0 -0.89706600823E+02  0.10572415702E+03 -0.70666470098E+03  0.72580153165E+03  0.90487524721E+02 0.  0.
          5    1    3    3  502    0  0.24253444770E+02 -0.11275797432E+03 -0.93207944140E+03  0.93919760852E+03  0.41800000000E+01 0.  1.
         -5    1    3    3    0  502  0.65453156053E+02  0.70338172957E+01 -0.31969614695E+03  0.32643022072E+03  0.41800000000E+01 0.  1.
        -11    1    4    4    0    0 -0.65855893798E+02  0.15374382991E+02 -0.21675583773E+03  0.22706048443E+03  0.00000000000E+00 0.  1.
         11    1    4    4    0    0 -0.23850707025E+02  0.90349774032E+02 -0.48990886325E+03  0.49874104722E+03  0.00000000000E+00 0. -1.
</event>
<event>
 8    1  0.6443238E-009  0.1202530E+03  0.7561462E-02  0.1242680E+00
         -2   -1    0    0    0  501 -0.00000000000E+00  0.00000000000E+00  0.14538464832E+03  0.14538464832E+03  0.00000000000E+00 0.  1.
          2   -1    0    0  501    0  0.00000000000E+00 -0.00000000000E+00 -0.13327204698E+03  0.13327204698E+03  0.00000000000E+00 0. -1.
         25    2    1    2    0    0 -0.60574181583E+02  0.59111846217E+02  0.10922504313E+01  0.15103972884E+03  0.12509342444E+03 0.  0.
         23    2    1    2    0    0  0.60574181583E+02 -0.59111846217E+02  0.11020350909E+02  0.12761696647E+03  0.94874654985E+02 0.  0.
          5    1    3    3  502    0 -0.79721283462E+02  0.26776064052E+02  0.43041513748E+02  0.94564713020E+02  0.41800000000E+01 0. -1.
         -5    1    3    3    0  502  0.19147101878E+02  0.32335782165E+02 -0.41949263316E+02  0.56475015815E+02  0.41800000000E+01 0. -1.
        -11    1    4    4    0    0  0.43435000147E+02 -0.80267595895E+02  0.28078428973E+02  0.95487613658E+02  0.00000000000E+00 0.  1.
         11    1    4    4    0    0  0.17139181436E+02  0.21155749678E+02 -0.17058078064E+02  0.32129352810E+02  0.00000000000E+00 0. -1.
</event>
<event>
 8    1  0.6443238E-009  0.1357898E+03  0.7561462E-02  0.1219109E+00
          2   -1    0    0  501    0  0.00000000000E+00  0.00000000000E+00  0.59097417508E+03  0.59097417508E+03  0.00000000000E+00 0.  1.
         -2   -1    0    0    0  501 -0.00000000000E+00 -0.00000000000E+00 -0.42934725265E+02  0.42934725265E+02  0.00000000000E+00 0. -1.
         25    2    1    2    0    0 -0.10585105355E+03  0.47707965412E+01  0.38992328754E+03  0.42299329516E+03  0.12512374493E+03 0.  0.
         23    2    1    2    0    0  0.10585105355E+03 -0.47707965412E+01  0.15811616228E+03  0.21091560519E+03  0.90870598661E+02 0.  0.
          5    1    3    3  502    0 -0.74895565275E+01  0.44770436228E+02  0.20224524372E+03  0.20731882795E+03  0.41800000000E+01 0.  1.
         -5    1    3    3    0  502 -0.98361497025E+02 -0.39999639687E+02  0.18767804382E+03  0.21567446721E+03  0.41800000000E+01 0.  1.
        -11    1    4    4    0    0  0.21362713209E+02 -0.24968353374E+02  0.28283628043E+01  0.32981567913E+02  0.00000000000E+00 0. -1.
         11    1    4    4    0    0  0.84488340344E+02  0.20197556833E+02  0.15528779948E+03  0.17793403728E+03  0.00000000000E+00 0.  1.
</event>
<event>
 8    1  0.6443238E-009  0.1064567E+03  0.7561462E-02  0.1267276E+00
          1   -1    0    0  501    0  0.00000000000E+00  0.00000000000E+00  0.58906993098E+03  0.58906993098E+03  0.00000000000E+00 0. -1.
         -1   -1    0    0    0  501 -0.00000000000E+00 -0.00000000000E+00 -0.28420627468E+02  0.28420627468E+02  0.00000000000E+00 0.  1.
         25    2    1    2    0    0 -0.55268686885E+02 -0.45589091221E+02  0.33180871202E+03  0.36176926912E+03  0.12508792794E+03 0.  0.
         23    2    1    2    0    0  0.55268686885E+02  0.45589091221E+02  0.22884059149E+03  0.25572128933E+03  0.88839003347E+02 0.  0.
          5    1    3    3  502    0 -0.69517000248E+02  0.21231893143E+02  0.13476702896E+03  0.15317647047E+03  0.41800000000E+01 0. -1.
         -5    1    3    3    0  502  0.14248313363E+02 -0.66820984364E+02  0.19704168306E+03  0.20859279865E+03  0.41800000000E+01 0. -1.
        -11    1    4    4    0    0  0.10113160490E+02  0.89634115551E+01 -0.52655288994E+01  0.14503260199E+02  0.00000000000E+00 0.  1.
         11    1    4    4    0    0  0.45155526396E+02  0.36625679666E+02  0.23410612039E+03  0.24121802913E+03  0.00000000000E+00 0. -1.
</event>
<event>
 8    1  0.6443238E-009  0.1632463E+03  0.7561462E-02  0.1185080E+00
         -1   -1    0    0    0  501 -0.00000000000E+00  0.00000000000E+00  0.18009739539E+03  0.18009739539E+03  0.00000000000E+00 0.  1.
          1   -1    0    0  501    0  0.00000000000E+00 -0.00000000000E+00 -0.23698925211E+03  0.23698925211E+03  0.00000000000E+00 0. -1.
         25    2    1    2    0    0 -0.49734198830E+02 -0.12101767185E+03  0.88471594550E+02  0.20148014139E+03  0.12509299301E+03 0.  0.
         23    2    1    2    0    0  0.49734198830E+02  0.12101767185E+03 -0.14536345127E+03  0.21560650611E+03  0.90757176455E+02 0.  0.
          5    1    3    3  502    0 -0.74768804944E+02 -0.34740510401E+02  0.11978598145E+02  0.83416044435E+02  0.41800000000E+01 0. -1.
         -5    1    3    3    0  502  0.25034606114E+02 -0.86277161446E+02  0.76492996406E+02  0.11806409695E+03  0.41800000000E+01 0. -1.
        -11    1    4    4    0    0  0.16625972512E+02  0.11972581709E+03 -0.13427534187E+03  0.18066699110E+03  0.00000000000E+00 0. -1.
         11    1    4    4    0    0  0.33108226318E+02  0.12918547577E+01 -0.11088109397E+02  0.34939515003E+02  0.00000000000E+00 0.  1.
</event>
<event>
 8    1  0.6443238E-009  0.9492892E+02  0.7561462E-02  0.1291336E+00
          1   -1    0    0  501    0  0.00000000000E+00  0.00000000000E+00  0.81583364686E+02  0.81583364686E+02  0.00000000000E+00 0. -1.
         -1   -1    0    0    0  501 -0.00000000000E+00 -0.00000000000E+00 -0.17313396542E+03  0.17313396542E+03  0.00000000000E+00 0.  1.
         25    2    1    2    0    0  0.28660955393E+02  0.37907852537E+02 -0.36664126120E+02  0.13874365072E+03  0.12508831609E+03 0.  0.
         23    2    1    2    0    0 -0.28660955393E+02 -0.37907852537E+02 -0.54886474619E+02  0.11597367939E+03  0.90437346089E+02 0.  0.
          5    1    3    3  502    0 -0.30214807811E+02  0.24436290018E+02  0.29569834284E+02  0.49009329525E+02  0.41800000000E+01 0. -1.
         -5    1    3    3    0  502  0.58875763203E+02  0.13471562519E+02 -0.66233960404E+02  0.89734321195E+02  0.41800000000E+01 0. -1.
        -11    1    4    4    0    0  0.18986442718E+02  0.11007247428E+02 -0.40684880750E+02  0.46226659242E+02  0.00000000000E+00 0.  1.
         11    1    4    4    0    0 -0.47647398111E+02 -0.48915099965E+02 -0.14201593869E+02  0.69747020150E+02  0.00000000000E+00 0. -1.
</event>
<event>
 8    1  0.6443238E-009  0.1174083E+03  0.7561462E-02  0.1247435E+00
         -1   -1    0    0    0  501 -0.00000000000E+00  0.00000000000E+00  0.33281690370E+02  0.33281690370E+02  0.00000000000E+00 0.  1.
          1   -1    0    0  501    0  0.00000000000E+00 -0.00000000000E+00 -0.52537908438E+03  0.52537908438E+03  0.00000000000E+00 0. -1.
         25    2    1    2    0    0 -0.69396397919E+02  0.15225244148E+01 -0.21073847020E+03  0.25470505558E+03  0.12508310992E+03 0.  0.
         23    2    1    2    0    0  0.69396397919E+02 -0.15225244148E+01 -0.28135892381E+03  0.30395571917E+03  0.91695458381E+02 0.  0.
          5    1    3    3  502    0 -0.10053367756E+03 -0.11247527875E+02 -0.11542421370E+03  0.15353745052E+03  0.41800000000E+01 0.  1.
         -5    1    3    3    0  502  0.31137279637E+02  0.12770052290E+02 -0.95314256507E+02  0.10116760505E+03  0.41800000000E+01 0.  1.
        -11    1    4    4    0    0  0.79745729090E+02 -0.16516010412E+02 -0.27105623293E+03  0.28302586687E+03  0.00000000000E+00 0. -1.
         11    1    4    4    0    0 -0.10349331171E+02  0.14993485998E+02 -0.10302690876E+02  0.20929852301E+02  0.00000000000E+00 0.  1.
</event>
<event>
 8    1  0.6443238E-009  0.9686310E+02  0.7561462E-02  0.1287034E+00
         -2   -1    0    0    0  501 -0.00000000000E+00  0.00000000000E+00  0.12751918367E+03  0.12751918367E+03  0.00000000000E+00 0.  1.
          2   -1    0    0  501    0  0.00000000000E+00 -0.00000000000E+00 -0.11873504412E+03  0.11873504412E+03  0.00000000000E+00 0. -1.
         25    2    1    2    0    0  0.31427645994E+02 -0.11195241976E+02 -0.37436171065E+02  0.13476985803E+03  0.12509363434E+03 0.  0.
         23    2    1    2    0    0 -0.31427645994E+02  0.11195241976E+02  0.46220310613E+02  0.11148436976E+03  0.95809275184E+02 0.  0.
          5    1    3    3  502    0  0.44357697872E+02  0.49712561035E+02 -0.23960702155E+02  0.70926241497E+02  0.41800000000E+01 0. -1.
         -5    1    3    3    0  502 -0.12930051878E+02 -0.60907803011E+02 -0.13475468909E+02  0.63843616529E+02  0.41800000000E+01 0. -1.
        -11    1    4    4    0    0 -0.15619949124E+02 -0.22474030579E+02  0.64480404440E+02  0.70048464779E+02  0.00000000000E+00 0.  1.
         11    1    4    4    0    0 -0.15807696871E+02  0.33669272555E+02 -0.18260093827E+02  0.41435904978E+02  0.00000000000E+00 0. -1.
</event>
<event>
 8    1  0.6443238E-009  0.3004326E+03  0.7561462E-02  0.1085025E+00
          1   -1    0    0  501    0  0.00000000000E+00  0.00000000000E+00  0.41340284399E+03  0.41340284399E+03  0.00000000000E+00 0. -1.
         -1   -1    0    0    0  501 -0.00000000000E+00 -0.00000000000E+00 -0.22063604708E+03  0.22063604708E+03  0.00000000000E+00 0.  1.
         25    2    1    2    0    0 -0.25584534029E+03 -0.11405045009E+03  0.69555945854E+02  0.31456280865E+03  0.12508951861E+03 0.  0.
         23    2    1    2    0    0  0.25584534029E+03  0.11405045009E+03  0.12321085106E+03  0.31947608243E+03  0.91758978370E+02 0.  0.
          5    1    3    3  502    0 -0.15814974907E+03 -0.22349661705E+01  0.34373375947E+02  0.16191151775E+03  0.41800000000E+01 0.  1.
         -5    1    3    3    0  502 -0.97695591220E+02 -0.11181548392E+03  0.35182569907E+02  0.15265129090E+03  0.41800000000E+01 0.  1.
        -11    1    4    4    0    0  0.23957983531E+03  0.73797969490E+02  0.11241408642E+03  0.27473908462E+03  0.00000000000E+00 0.  1.
         11    1    4    4    0    0  0.16265504976E+02  0.40252480602E+02  0.10796764640E+02  0.44736997814E+02  0.00000000000E+00 0. -1.
</event>
<event>
 8    1  0.6443238E-009  0.9399658E+02  0.7561462E-02  0.1293452E+00
          2   -1    0    0  501    0  0.00000000000E+00  0.00000000000E+00  0.27231421996E+03  0.27231421996E+03  0.00000000000E+00 0. -1.
         -2   -1    0    0    0  501 -0.00000000000E+00 -0.00000000000E+00 -0.60783769538E+02  0.60783769538E+02  0.00000000000E+00 0.  1.
         25    2    1    2    0    0  0.39923203062E+02  0.50532064013E+02  0.15326061634E+03  0.20804761792E+03  0.12509053987E+03 0.  0.
         23    2    1    2    0    0 -0.39923203062E+02 -0.50532064013E+02  0.58269834083E+02  0.12505037158E+03  0.89971496770E+02 0.  0.
          5    1    3    3  502    0 -0.16851675319E+02  0.24632107279E+02  0.14116433615E+03  0.14434528697E+03  0.41800000000E+01 0. -1.
         -5    1    3    3    0  502  0.56774878381E+02  0.25899956734E+02  0.12096280188E+02  0.63702330950E+02  0.41800000000E+01 0. -1.
        -11    1    4    4    0    0 -0.42654460499E+02  0.20088634265E+01 -0.47394642720E+01  0.42963950637E+02  0.00000000000E+00 0.  1.
         11    1    4    4    0    0  0.27312574370E+01 -0.52540927439E+02  0.63009298355E+02  0.82086420939E+02  0.00000000000E+00 0. -1.
</event>
<event>
 8    1  0.6443238E-009  0.2385850E+03  0.7561462E-02  0.1120739E+00
         -2   -1    0    0    0  501 -0.00000000000E+00  0.00000000000E+00  0.31414114260E+02  0.31414114260E+02  0.00000000000E+00 0.  1.
          2   -1    0    0  501    0  0.00000000000E+00 -0.00000000000E+00 -0.23724318589E+04  0.23724318589E+04  0.00000000000E+00 0. -1.
         25    2    1    2    0    0 -0.21416008323E+03 -0.49923688038E+02 -0.17241000188E+04  0.17425626532E+04  0.12508720725E+03 0.  0.
         23    2    1    2    0    0  0.21416008323E+03  0.49923688038E+02 -0.61691772580E+03  0.66128331998E+03  0.91385080849E+02 0.  0.
          5    1    3    3  502    0  0.15993423415E+02 -0.11837904718E+01 -0.78883014788E+02  0.80605169651E+02  0.41800000000E+01 0.  1.
         -5    1    3    3    0  502 -0.23015350664E+03 -0.48739897566E+02 -0.16452170040E+04  0.16619574835E+04  0.41800000000E+01 0.  1.
        -11    1    4    4    0    0  0.41705158408E+02  0.30685133427E+02 -0.25127969138E+03  0.25655872807E+03  0.00000000000E+00 0. -1.
         11    1    4    4    0    0  0.17245492482E+03  0.19238554611E+02 -0.36563803442E+03  0.40472459190E+03  0.00000000000E+00 0.  1.
</event>
<event>
 8    1  0.6443238E-009  0.1300084E+03  0.7561462E-02  0.1227443E+00
         -2   -1    0    0    0  501 -0.00000000000E+00  0.00000000000E+00  0.15960230316E+03  0.15960230316E+03  0.00000000000E+00 0.  1.
          2   -1    0    0  501    0  0.00000000000E+00 -0.00000000000E+00 -0.15110979720E+03  0.15110979720E+03  0.00000000000E+00 0. -1.
         25    2    1    2    0    0 -0.41901543740E+02 -0.10047344908E+03  0.22477977194E+02  0.16734143072E+03  0.12508893491E+03 0.  0.
         23    2    1    2    0    0  0.41901543740E+02  0.10047344908E+03 -0.13985471236E+02  0.14337066965E+03  0.92243710746E+02 0.  0.
          5    1    3    3  502    0 -0.47427567834E+02  0.27582003354E+01 -0.24609504445E+02  0.53666395153E+02  0.41800000000E+01 0.  1.
         -5    1    3    3    0  502  0.55260240935E+01 -0.10323164942E+03  0.47087481639E+02  0.11367503556E+03  0.41800000000E+01 0.  1.
        -11    1    4    4    0    0  0.26246167606E+02  0.62363514932E+02  0.37556332952E+02  0.77385705743E+02  0.00000000000E+00 0.  1.
         11    1    4    4    0    0  0.15655376134E+02  0.38109934149E+02 -0.51541804188E+02  0.65984963906E+02  0.00000000000E+00 0. -1.
</event>
<event>
 8    1  0.6443238E-009  0.2764828E+03  0.7561462E-02  0.1097626E+00
          1   -1    0    0  501    0  0.00000000000E+00  0.00000000000E+00  0.15901440070E+03  0.15901440070E+03  0.00000000000E+00 0. -1.
         -1   -1    0    0    0  501 -0.00000000000E+00 -0.00000000000E+00 -0.53778880897E+03  0.53778880897E+03  0.00000000000E+00 0.  1.
         25    2    1    2    0    0 -0.12204466956E+03 -0.24202666051E+03 -0.13312493863E+03  0.32686805214E+03  0.12509463802E+03 0.  0.
         23    2    1    2    0    0  0.12204466956E+03  0.24202666051E+03 -0.24564946964E+03  0.36993515753E+03  0.55104927847E+02 0.  0.
          5    1    3    3  502    0 -0.64427006724E+02 -0.19893810670E+03 -0.46636737298E+02  0.21428874716E+03  0.41800000000E+01 0.  1.
         -5    1    3    3    0  502 -0.57617662838E+02 -0.43088553806E+02 -0.86488201335E+02  0.11257930498E+03  0.41800000000E+01 0.  1.
        -11    1    4    4    0    0  0.34275803091E+02  0.88421162325E+02 -0.54061391621E+02  0.10915936372E+03  0.00000000000E+00 0.  1.
         11    1    4    4    0    0  0.87768866471E+02  0.15360549818E+03 -0.19158807802E+03  0.26077579380E+03  0.00000000000E+00 0. -1.
</event>
<event>
 7    1  0.6443238E-009  0.1137731E+03  0.7561462E-02  0.1253738E+00
         -4   -1    0    0    0  501 -0.00000000000E+00  0.00000000000E+00  0.17452366938E+02  0.17452366938E+02  0.00000000000E+00 0.  1.
          4   -1    0    0  501    0  0.00000000000E+00 -0.00000000000E+00 -0.89081772168E+03  0.89081772168E+03  0.00000000000E+00 0. -1.
         23    2    1    2    0    0 -0.25390579617E+02 -0.49576293531E+02 -0.35147123390E+03  0.36846683451E+03  0.95568245043E+02 0.  0.
          5    1    1    2  502    0  0.13821611931E+02 -0.31650588700E+02 -0.50618220158E+02  0.61420463475E+02  0.41800000000E+01 0.  1.
         -5    1    1    2    0  502  0.11568967685E+02  0.81226882231E+02 -0.47127590068E+03  0.47838279063E+03  0.41800000000E+01 0.  1.
        -11    1    3    3    0    0  0.35332254433E+02 -0.31268585593E+02 -0.15254120989E+03  0.15967126655E+03  0.00000000000E+00 0.  1.
         11    1    3    3    0    0 -0.60722834050E+02 -0.18307707938E+02 -0.19893002401E+03  0.20879556796E+03  0.00000000000E+00 0. -1.
</event>
<event>
 8    1  0.6443238E-009  0.9279556E+02  0.7561462E-02  0.1296220E+00
         -1   -1    0    0    0  501 -0.00000000000E+00  0.00000000000E+00  0.30329649286E+03  0.30329649286E+03  0.00000000000E+00 0.  1.
          1   -1    0    0  501    0  0.00000000000E+00 -0.00000000000E+00 -0.66118875573E+02  0.66118875573E+02  0.00000000000E+00 0. -1.
         25    2    1    2    0    0  0.21090330725E+02  0.36133717098E+02  0.23482553447E+03  0.26933461128E+03  0.12509058171E+03 0.  0.
         23    2    1    2    0    0 -0.21090330725E+02 -0.36133717098E+02  0.23520828177E+01  0.10008075715E+03  0.90885521935E+02 0.  0.
          5    1    3    3  502    0  0.43809126797E+02 -0.57728511160E+01  0.21148798264E+03  0.21609535998E+03  0.41800000000E+01 0.  1.
         -5    1    3    3    0  502 -0.22718796072E+02  0.41906568214E+02  0.23337551830E+02  0.53239251308E+02  0.41800000000E+01 0.  1.
        -11    1    4    4    0    0  0.31761459860E+02 -0.22028118593E+02 -0.16768938278E+02  0.42133426542E+02  0.00000000000E+00 0.  1.
         11    1    4    4    0    0 -0.52851790585E+02 -0.14105598504E+02  0.19121021095E+02  0.57947330611E+02  0.00000000000E+00 0. -1.
</event>
<event>
 8    1  0.6443238E-009  0.8398397E+02  0.7561462E-02  0.1318111E+00
          1   -1    0    0  501    0  0.00000000000E+00  0.00000000000E+00  0.20517238315E+03  0.20517238315E+03  0.00000000000E+00 0. -1.
         -1   -1    0    0    0  501 -0.00000000000E+00 -0.00000000000E+00 -0.63491031209E+02  0.63491031209E+02  0.00000000000E+00 0.  1.
         25    2    1    2    0    0 -0.10662932606E+02  0.18178593089E+02  0.11435985959E+03  0.17079285510E+03  0.12509141653E+03 0.  0.
         23    2    1    2    0    0  0.10662932606E+02 -0.18178593089E+02  0.27321492356E+02  0.97870559263E+02  0.91586150959E+02 0.  0.
          5    1    3    3  502    0 -0.49381204216E+02  0.45934240754E+01  0.11928825624E+03  0.12925464537E+03  0.41800000000E+01 0. -1.
         -5    1    3    3    0  502  0.38718271611E+02  0.13585169014E+02 -0.49283966489E+01  0.41538209725E+02  0.41800000000E+01 0. -1.
        -11    1    4    4    0    0  0.10314180662E+02  0.28481477736E+02 -0.15949192870E+02  0.34233808581E+02  0.00000000000E+00 0.  1.
         11    1    4    4    0    0  0.34875194399E+00 -0.46660070825E+02  0.43270685227E+02  0.63636750682E+02  0.00000000000E+00 0. -1.
</event>
<event>
 8    1  0.6443238E-009  0.1158958E+03  0.7561462E-02  0.1250025E+00
          2   -1    0    0  501    0  0.00000000000E+00  0.00000000000E+00  0.28199659919E+03  0.28199659919E+03  0.00000000000E+00 0.  1.
         -2   -1    0    0    0  501 -0.00000000000E+00 -0.00000000000E+00 -0.51807926270E+02  0.51807926270E+02  0.00000000000E+00 0. -1.
         25    2    1    2    0    0  0.48067738604E+02  0.25725950982E+02  0.13460191303E+03  0.19167157774E+03  0.12509191291E+03 0.  0.
         23    2    1    2    0    0 -0.48067738604E+02 -0.25725950982E+02  0.95586759888E+02  0.14213294771E+03  0.89958957926E+02 0.  0.
          5    1    3    3  502    0  0.55971868222E+02 -0.34548001569E+02  0.34268631784E+02  0.74284762697E+02  0.41800000000E+01 0.  1.
         -5    1    3    3    0  502 -0.79041296183E+01  0.60273952551E+02  0.10033328124E+03  0.11738681504E+03  0.41800000000E+01 0.  1.
        -11    1    4    4    0    0 -0.72425250314E+02 -0.32914650186E+02  0.76458410147E+02  0.11033893040E+03  0.00000000000E+00 0.  1.
         11    1    4    4    0    0  0.24357511710E+02  0.71886992043E+01  0.19128349741E+02  0.31794017311E+02  0.00000000000E+00 0. -1.
</event>
<event>
 8    1  0.6443238E-009  0.1091318E+03  0.7561462E-02  0.1262186E+00
         -1   -1    0    0    0  501 -0.00000000000E+00  0.00000000000E+00  0.37846488773E+02  0.37846488773E+02  0.00000000000E+00 0.  1.
          1   -1    0    0  501    0  0.00000000000E+00 -0.00000000000E+00 -0.38555646927E+03  0.38555646927E+03  0.00000000000E+00 0. -1.
         25    2    1    2    0    0 -0.24113601473E+02 -0.23488406868E+02 -0.12178850473E+03  0.17780161505E+03  0.12509118033E+03 0.  0.
         23    2    1    2    0    0  0.24113601473E+02  0.23488406868E+02 -0.22592147577E+03  0.24560134300E+03  0.90257051993E+02 0.  0.
          5    1    3    3  502    0 -0.41886016519E+02 -0.64783908262E+02 -0.10333868066E+03  0.12902615421E+03  0.41800000000E+01 0. -1.
         -5    1    3    3    0  502  0.17772415047E+02  0.41295501393E+02 -0.18449824071E+02  0.48775460840E+02  0.41800000000E+01 0. -1.
        -11    1    4    4    0    0 -0.32601159595E+01 -0.32958646434E+02 -0.66797618491E+02  0.74557511807E+02  0.00000000000E+00 0.  1.
         11    1    4    4    0    0  0.27373717432E+02  0.56447053303E+02 -0.15912385728E+03  0.17104383119E+03  0.00000000000E+00 0. -1.
</event>
<event>
 8    1  0.6443238E-009  0.3361754E+03  0.7561462E-02  0.1068437E+00
          1   -1    0    0  501    0  0.00000000000E+00  0.00000000000E+00  0.19189363439E+03  0.19189363439E+03  0.00000000000E+00 0. -1.
         -1   -1    0    0    0  501 -0.00000000000E+00 -0.00000000000E+00 -0.75192180044E+03  0.75192180044E+03  0.00000000000E+00 0.  1.
         25    2    1    2    0    0  0.32470714777E+03 -0.55041070443E+02 -0.91979554372E+02  0.36410318943E+03  0.12508654158E+03 0.  0.
         23    2    1    2    0    0 -0.32470714777E+03  0.55041070443E+02 -0.46804861168E+03  0.57971224540E+03  0.92371712799E+02 0.  0.
          5    1    3    3  502    0  0.26924032126E+03 -0.15356673755E+02 -0.29154577687E+02  0.27128147710E+03  0.41800000000E+01 0. -1.
         -5    1    3    3    0  502  0.55466826507E+02 -0.39684396688E+02 -0.62824976685E+02  0.92821712324E+02  0.41800000000E+01 0. -1.
        -11    1    4    4    0    0 -0.56015645062E+02 -0.12211117066E+02 -0.13413364567E+03  0.14587220013E+03  0.00000000000E+00 0.  1.
         11    1    4    4    0    0 -0.26869150270E+03  0.67252187509E+02 -0.33391496601E+03  0.43384004526E+03  0.00000000000E+00 0. -1.
</event>
<event>
 8    1  0.6443238E-009  0.1186562E+03  0.7561462E-02  0.1245331E+00
         -2   -1    0    0    0  501 -0.00000000000E+00  0.00000000000E+00  0.41580075167E+02  0.41580075167E+02  0.00000000000E+00 0.  1.
          2   -1    0    0  501    0  0.00000000000E+00 -0.00000000000E+00 -0.50506591875E+03  0.50506591875E+03  0.00000000000E+00 0. -1.
         25    2    1    2    0    0  0.68572340393E+02 -0.12835544978E+02 -0.12630002413E+03  0.19095251982E+03  0.12507698289E+03 0.  0.
         23    2    1    2    0    0 -0.68572340393E+02  0.12835544978E+02 -0.33718581945E+03  0.35569347409E+03  0.89200076200E+02 0.  0.
          5    1    3    3  502    0  0.69938930111E+01 -0.52450042623E+02 -0.10848712233E+02  0.54176456766E+02  0.41800000000E+01 0. -1.
         -5    1    3    3    0  502  0.61578447382E+02  0.39614497645E+02 -0.11545131190E+03  0.13677606306E+03  0.41800000000E+01 0. -1.
        -11    1    4    4    0    0 -0.82578579003E+02  0.30781436368E+02 -0.29330739489E+03  0.30626123887E+03  0.00000000000E+00 0.  1.
         11    1    4    4    0    0  0.14006238610E+02 -0.17945891390E+02 -0.43878424554E+02  0.49432235223E+02  0.00000000000E+00 0. -1.
</event>
<event>
 8    1  0.6443238E-009  0.1468021E+03  0.7561462E-02  0.1204459E+00
          2   -1    0    0  501    0  0.00000000000E+00  0.00000000000E+00  0.71658135342E+02  0.71658135342E+02  0.00000000000E+00 0.  1.
         -2   -1    0    0    0  501 -0.00000000000E+00 -0.00000000000E+00 -0.49906998855E+03  0.49906998855E+03  0.00000000000E+00 0. -1.
         25    2    1    2    0    0 -0.70129422793E+02  0.12600234437E+03 -0.12931251718E+03  0.23057436917E+03  0.12509230949E+03 0.  0.
         23    2    1    2    0    0  0.70129422793E+02 -0.12600234437E+03 -0.29809933603E+03  0.34015375472E+03  0.77760118187E+02 0.  0.
          5    1    3    3  502    0 -0.32601681478E+02  0.46011035368E+02  0.17484389818E+02  0.59186664868E+02  0.41800000000E+01 0.  1.
         -5    1    3    3    0  502 -0.37527741315E+02  0.79991309000E+02 -0.14679690700E+03  0.17138770431E+03  0.41800000000E+01 0.  1.
        -11    1    4    4    0    0  0.47073699210E+02 -0.11233893996E+03 -0.16910387671E+03  0.20840367489E+03  0.00000000000E+00 0.  1.
         11    1    4    4    0    0  0.23055723583E+02 -0.13663404405E+02 -0.12899545932E+03  0.13175007983E+03  0.00000000000E+00 0. -1.
</event>
<event>
 8    1  0.6443238E-009  0.8413832E+02  0.7561462E-02  0.1317701E+00
         -2   -1    0    0    0  501 -0.00000000000E+00  0.00000000000E+00  0.61449853414E+03  0.61449853414E+03  0.00000000000E+00 0.  1.
          2   -1    0    0  501    0  0.00000000000E+00 -0.00000000000E+00 -0.21363464929E+02  0.21363464929E+02  0.00000000000E+00 0. -1.
         25    2    1    2    0    0  0.75881870392E+01  0.77196788651E+01  0.24939350573E+03  0.27921641578E+03  0.12509001604E+03 0.  0.
         23    2    1    2    0    0 -0.75881870392E+01 -0.77196788651E+01  0.34374156347E+03  0.35664558329E+03  0.94449116444E+02 0.  0.
          5    1    3    3  502    0 -0.32883420879E+02  0.14428683273E+02  0.23143103207E+03  0.23423770250E+03  0.41800000000E+01 0.  1.
         -5    1    3    3    0  502  0.40471607918E+02 -0.67090044077E+01  0.17962473667E+02  0.44978713275E+02  0.41800000000E+01 0.  1.
        -11    1    4    4    0    0 -0.27031122926E+02 -0.42892258037E+02  0.13806682157E+03  0.14708118378E+03  0.00000000000E+00 0.  1.
         11    1    4    4    0    0  0.19442935886E+02  0.35172579172E+02  0.20567474191E+03  0.20956439951E+03  0.00000000000E+00 0. -1.
</event>
<event>
 8    1  0.6443238E-009  0.1179856E+03  0.7561462E-02  0.1246458E+00
         -3   -1    0    0    0  501 -0.00000000000E+00  0.00000000000E+00  0.42149696716E+03  0.42149696716E+03  0.00000000000E+00 0.  1.
          3   -1    0    0  501    0  0.00000000000E+00 -0.00000000000E+00 -0.33057379828E+02  0.33057379828E+02  0.00000000000E+00 0. -1.
         25    2    1    2    0    0  0.47764320068E+02  0.28866312523E+01  0.22550193426E+03  0.26227590274E+03  0.12509102244E+03 0.  0.
         23    2    1    2    0    0 -0.47764320068E+02 -0.28866312523E+01  0.16293765308E+03  0.19227844425E+03  0.90180698711E+02 0.  0.
          5    1    3    3  502    0 -0.28727691602E+02 -0.37397422618E+02  0.82663852411E+02  0.95260864885E+02  0.41800000000E+01 0.  1.
         -5    1    3    3    0  502  0.76492011670E+02  0.40284053871E+02  0.14283808184E+03  0.16701503786E+03  0.41800000000E+01 0.  1.
        -11    1    4    4    0    0  0.27043205535E+02  0.19435501943E+01  0.41906965237E+02  0.49912985167E+02  0.00000000000E+00 0.  1.
         11    1    4    4    0    0 -0.74807525603E+02 -0.48301814466E+01  0.12103068784E+03  0.14236545908E+03  0.00000000000E+00 0. -1.
</event>
<event>
 8    1  0.6443238E-009  0.1267907E+03  0.7561462E-02  0.1232297E+00
         -1   -1    0    0    0  501 -0.00000000000E+00  0.00000000000E+00  0.76338319739E+02  0.76338319739E+02  0.00000000000E+00 0.  1.
          1   -1    0    0  501    0  0.00000000000E+00 -0.00000000000E+00 -0.33144886046E+03  0.33144886046E+03  0.00000000000E+00 0. -1.
         25    2    1    2    0    0  0.10689435625E+03 -0.23518659165E+02 -0.18463065053E+03  0.24842778806E+03  0.12509339725E+03 0.  0.
         23    2    1    2    0    0 -0.10689435625E+03  0.23518659165E+02 -0.70479890190E+02  0.15935939214E+03  0.91915560242E+02 0.  0.
          5    1    3    3  502    0  0.96506818631E+02 -0.43400458863E+02 -0.19611665938E+03  0.22288199200E+03  0.41800000000E+01 0.  1.
         -5    1    3    3    0  502  0.10387537622E+02  0.19881799697E+02  0.11486008848E+02  0.25545796059E+02  0.41800000000E+01 0.  1.
        -11    1    4    4    0    0 -0.10291393023E+03  0.19510825960E+01 -0.20743039521E+02  0.10500170212E+03  0.00000000000E+00 0.  1.
         11    1    4    4    0    0 -0.39804260228E+01  0.21567576569E+02 -0.49736850669E+02  0.54357690025E+02  0.00000000000E+00 0. -1.
</event>
<event>
 8    1  0.6443238E-009  0.6445655E+02  0.7561462E-02  0.1380027E+00
          3   -1    0    0  501    0  0.00000000000E+00  0.00000000000E+00  0.39472879388E+03  0.39472879388E+03  0.00000000000E+00 0. -1.
         -3   -1    0    0    0  501 -0.00000000000E+00 -0.00000000000E+00 -0.34349423726E+02  0.34349423726E+02  0.00000000000E+00 0.  1.
         25    2    1    2    0    0  0.61095430377E+01 -0.31230972986E+02  0.15074978529E+03  0.19845868524E+03  0.12509057435E+03 0.  0.
         23    2    1    2    0    0 -0.61095430377E+01  0.31230972986E+02  0.20962958486E+03  0.23061953237E+03  0.90708906234E+02 0.  0.
          5    1    3    3  502    0  0.12283084202E+02 -0.20871869426E+02 -0.17217583616E+02  0.30007110431E+02  0.41800000000E+01 0. -1.
         -5    1    3    3    0  502 -0.61735411642E+01 -0.10359103560E+02  0.16796736891E+03  0.16845157481E+03  0.41800000000E+01 0. -1.
        -11    1    4    4    0    0  0.11274902435E+02  0.58312666163E+02  0.99438586784E+02  0.11582539878E+03  0.00000000000E+00 0.  1.
         11    1    4    4    0    0 -0.17384445473E+02 -0.27081693177E+02  0.11019099808E+03  0.11479413359E+03  0.00000000000E+00 0. -1.
</event>
<event>
 8    1  0.6443238E-009  0.6842906E+02  0.7561462E-02  0.1365518E+00
         -2   -1    0    0    0  501 -0.00000000000E+00  0.00000000000E+00  0.12784197348E+03  0.12784197348E+03  0.00000000000E+00 0.  1.
          2   -1    0    0  501    0  0.00000000000E+00 -0.00000000000E+00 -0.12417790692E+03  0.12417790692E+03  0.00000000000E+00 0. -1.
         25    2    1    2    0    0  0.34943493205E+02  0.51838342289E+02  0.16946568664E+02  0.14086717945E+03  0.12509242427E+03 0.  0.
         23    2    1    2    0    0 -0.34943493205E+02 -0.51838342289E+02 -0.13282502099E+02  0.11115270095E+03  0.90940841303E+02 0.  0.
          5    1    3    3  502    0  0.13916311145E+01 -0.40923906610E+01  0.61484706600E+02  0.61778036908E+02  0.41800000000E+01 0. -1.
         -5    1    3    3    0  502  0.33551862091E+02  0.55930732950E+02 -0.44538137936E+02  0.79089142547E+02  0.41800000000E+01 0. -1.
        -11    1    4    4    0    0 -0.68481326535E+01 -0.27429015819E+02 -0.50907064229E+02  0.58230378824E+02  0.00000000000E+00 0. -1.
         11    1    4    4    0    0 -0.28095360552E+02 -0.24409326470E+02  0.37624562130E+02  0.52922322121E+02  0.00000000000E+00 0.  1.
</event>
<event>
 8    1  0.6443238E-009  0.9621976E+02  0.7561462E-02  0.1288452E+00
         -1   -1    0    0    0  501 -0.00000000000E+00  0.00000000000E+00  0.46568149985E+02  0.46568149985E+02  0.00000000000E+00 0.  1.
          1   -1    0    0  501    0  0.00000000000E+00 -0.00000000000E+00 -0.39561476763E+03  0.39561476763E+03  0.00000000000E+00 0. -1.
         25    2    1    2    0    0 -0.68200544017E+01  0.58401898870E+02 -0.28006535269E+03  0.31231510559E+03  0.12508728341E+03 0.  0.
         23    2    1    2    0    0  0.68200544017E+01 -0.58401898870E+02 -0.68981264954E+02  0.12986781202E+03  0.93005046909E+02 0.  0.
          5    1    3    3  502    0  0.36991061115E+02  0.21427087056E+02 -0.22647317688E+02  0.48557512916E+02  0.41800000000E+01 0.  1.
         -5    1    3    3    0  502 -0.43811115517E+02  0.36974811814E+02 -0.25741803500E+03  0.26375759268E+03  0.41800000000E+01 0.  1.
        -11    1    4    4    0    0  0.34318218814E+02 -0.54254187628E+02 -0.10417530958E+02  0.65036773974E+02  0.00000000000E+00 0.  1.
         11    1    4    4    0    0 -0.27498164412E+02 -0.41477112422E+01 -0.58563733996E+02  0.64831038046E+02  0.00000000000E+00 0. -1.
</event>
<event>
 8    1  0.6443238E-009  0.1707677E+03  0.7561462E-02  0.1177050E+00
          1   -1    0    0  501    0  0.00000000000E+00  0.00000000000E+00  0.50590237525E+03  0.50590237525E+03  0.00000000000E+00 0. -1.
         -1   -1    0    0    0  501 -0.00000000000E+00 -0.00000000000E+00 -0.73209468318E+02  0.73209468318E+02  0.00000000000E+00 0.  1.
         25    2    1    2    0    0 -0.12628965956E+02 -0.15762510074E+03  0.23399561169E+03  0.30888077550E+03  0.12509286158E+03 0.  0.
         23    2    1    2    0    0  0.12628965956E+02  0.15762510074E+03  0.19869729524E+03  0.27023106806E+03  0.92406990243E+02 0.  0.
          5    1    3    3  502    0 -0.86335016891E+01 -0.87841837927E+02  0.22053105729E+03  0.23757555739E+03  0.41800000000E+01 0.  1.
         -5    1    3    3    0  502 -0.39954642673E+01 -0.69783262816E+02  0.13464554398E+02  0.71305218106E+02  0.41800000000E+01 0.  1.
        -11    1    4    4    0    0  0.52943079047E+02  0.90445585266E+02  0.11429240671E+03  0.15506813904E+03  0.00000000000E+00 0.  1.
         11    1    4    4    0    0 -0.40314113091E+02  0.67179515478E+02  0.84404888532E+02  0.11516292903E+03  0.00000000000E+00 0. -1.
</event>
<event>
 8    1  0.6443238E-009  0.9547736E+02  0.7561462E-02  0.1290105E+00
         -1   -1    0    0    0  501 -0.00000000000E+00  0.00000000000E+00  0.25685393352E+03  0.25685393352E+03  0.00000000000E+00 0.  1.
          1   -1    0    0  501    0  0.00000000000E+00 -0.00000000000E+00 -0.69247408260E+02  0.69247408260E+02  0.00000000000E+00 0. -1.
         25    2    1    2    0    0  0.27301721179E+02 -0.44835541207E+02  0.17367831839E+03  0.22037885197E+03  0.12508825037E+03 0.  0.
         23    2    1    2    0    0 -0.27301721179E+02  0.44835541207E+02  0.13928206864E+02  0.10572248981E+03  0.90706340299E+02 0.  0.
          5    1    3    3  502    0 -0.11523698255E+02 -0.65643788359E+02  0.36208371164E+02  0.75963287936E+02  0.41800000000E+01 0.  1.
         -5    1    3    3    0  502  0.38825419435E+02  0.20808247152E+02  0.13746994723E+03  0.14441556403E+03  0.41800000000E+01 0.  1.
        -11    1    4    4    0    0 -0.30913835907E+02 -0.38110368989E+01  0.39773229523E+02  0.50518304004E+02  0.00000000000E+00 0.  1.
         11    1    4    4    0    0  0.36121147279E+01  0.48646578105E+02 -0.25845022659E+02  0.55204185805E+02  0.00000000000E+00 0. -1.
</event>
<event>
 8    1  0.6443238E-009  0.1165722E+03  0.7561462E-02  0.1248861E+00
         -1   -1    0    0    0  501 -0.00000000000E+00  0.00000000000E+00  0.11169800052E+02  0.11169800052E+02  0.00000000000E+00 0.  1.
          1   -1    0    0  501    0  0.00000000000E+00 -0.00000000000E+00 -0.19398777459E+04  0.19398777459E+04  0.00000000000E+00 0. -1.
         25    2    1    2    0    0 -0.47315084460E+02 -0.87528008458E+01 -0.16124878746E+04  0.16180482440E+04  0.12509054793E+03 0.  0.
         23    2    1    2    0    0  0.47315084460E+02  0.87528008458E+01 -0.31622007124E+03  0.33299930202E+03  0.92617886786E+02 0.  0.
          5    1    3    3  502    0  0.12191877183E+02 -0.55488533321E+02 -0.58373389787E+03  0.58650690969E+03  0.41800000000E+01 0.  1.
         -5    1    3    3    0  502 -0.59506961643E+02  0.46735732475E+02 -0.10287539768E+04  0.10315413343E+04  0.41800000000E+01 0.  1.
        -11    1    4    4    0    0 -0.75300560720E+01 -0.31486372834E+02 -0.14893123466E+03  0.15240933723E+03  0.00000000000E+00 0. -1.
         11    1    4    4    0    0  0.54845140532E+02  0.40239173680E+02 -0.16728883658E+03  0.18058996479E+03  0.00000000000E+00 0.  1.
</event>
<event>
 8    1  0.6443238E-009  0.1624576E+03  0.7561462E-02  0.1185950E+00
          2   -1    0    0  501    0  0.00000000000E+00  0.00000000000E+00  0.86713411707E+03  0.86713411707E+03  0.00000000000E+00 0. -1.
         -2   -1    0    0    0  501 -0.00000000000E+00 -0.00000000000E+00 -0.31166481551E+02  0.31166481551E+02  0.00000000000E+00 0.  1.
         25    2    1    2    0    0  0.12014470185E+03 -0.26270522647E+02  0.41425455358E+03  0.44986422555E+03  0.12508435767E+03 0.  0.
         23    2    1    2    0    0 -0.12014470185E+03  0.26270522647E+02  0.42171308195E+03  0.44843637307E+03  0.90157459290E+02 0.  0.
          5    1    3    3  502    0 -0.43723710331E+01  0.34030553334E+02  0.11633771523E+03  0.12136363777E+03  0.41800000000E+01 0.  1.
         -5    1    3    3    0  502  0.12451707288E+03 -0.60301075981E+02  0.29791683834E+03  0.32850058778E+03  0.41800000000E+01 0.  1.
        -11    1    4    4    0    0 -0.79083428714E+02 -0.27991500239E+02  0.25164506927E+03  0.26526016224E+03  0.00000000000E+00 0.  1.
         11    1    4    4    0    0 -0.41061273132E+02  0.54262022886E+02  0.17006801267E+03  0.18317621083E+03  0.00000000000E+00 0. -1.
</event>
<event>
 8    1  0.6443238E-009  0.1670895E+03  0.7561462E-02  0.1180917E+00
         -2   -1    0    0    0  501 -0.00000000000E+00  0.00000000000E+00  0.91025663019E+02  0.91025663019E+02  0.00000000000E+00 0.  1.
          2   -1    0    0  501    0  0.00000000000E+00 -0.00000000000E+00 -0.34876906174E+03  0.34876906174E+03  0.00000000000E+00 0. -1.
         25    2    1    2    0    0 -0.76666018166E+02  0.12150469169E+03 -0.18335241753E+03  0.26439911052E+03  0.12509081576E+03 0.  0.
         23    2    1    2    0    0  0.76666018166E+02 -0.12150469169E+03 -0.74390981198E+02  0.17539561424E+03  0.67738725745E+02 0.  0.
          5    1    3    3  502    0  0.10548410648E+02  0.76843505925E+02 -0.13332610036E+03  0.15430332079E+03  0.41800000000E+01 0. -1.
         -5    1    3    3    0  502 -0.87214428815E+02  0.44661185768E+02 -0.50026317167E+02  0.11009578973E+03  0.41800000000E+01 0. -1.
        -11    1    4    4    0    0  0.15813641728E+02 -0.87099592334E+02 -0.47795480903E+02  0.10060227753E+03  0.00000000000E+00 0. -1.
         11    1    4    4    0    0  0.60852376438E+02 -0.34405099359E+02 -0.26595500295E+02  0.74793336708E+02  0.00000000000E+00 0.  1.
</event>
<event>
 8    1  0.6443238E-009  0.9071910E+02  0.7561462E-02  0.1301120E+00
          1   -1    0    0  501    0  0.00000000000E+00  0.00000000000E+00  0.49473682085E+03  0.49473682085E+03  0.00000000000E+00 0. -1.
         -1   -1    0    0    0  501 -0.00000000000E+00 -0.00000000000E+00 -0.30932563889E+02  0.30932563889E+02  0.00000000000E+00 0.  1.
         25    2    1    2    0    0 -0.31257762031E+02  0.34434226038E+02  0.18968721613E+03  0.23193098198E+03  0.12509187356E+03 0.  0.
         23    2    1    2    0    0  0.31257762031E+02 -0.34434226038E+02  0.27411704083E+03  0.29373840275E+03  0.94759345544E+02 0.  0.
          5    1    3    3  502    0 -0.50860717653E+02  0.46702510432E+02  0.38981085711E+02  0.79403617827E+02  0.41800000000E+01 0.  1.
         -5    1    3    3    0  502  0.19602955622E+02 -0.12268284394E+02  0.15070613042E+03  0.15252736416E+03  0.41800000000E+01 0.  1.
        -11    1    4    4    0    0  0.24927465398E+02  0.21227272732E+02  0.18916991042E+03  0.19198237066E+03  0.00000000000E+00 0. -1.
         11    1    4    4    0    0  0.63302966329E+01 -0.55661498770E+02  0.84947130411E+02  0.10175603209E+03  0.00000000000E+00 0.  1.
</event>
<event>
 8    1  0.6443238E-009  0.9527015E+02  0.7561462E-02  0.1290569E+00
          2   -1    0    0  501    0  0.00000000000E+00  0.00000000000E+00  0.38475092948E+03  0.38475092948E+03  0.00000000000E+00 0. -1.
         -2   -1    0    0    0  501 -0.00000000000E+00 -0.00000000000E+00 -0.31592844863E+02  0.31592844863E+02  0.00000000000E+00 0.  1.
         25    2    1    2    0    0  0.30532067049E+01  0.88746694624E+01  0.22788726388E+03  0.26013072286E+03  0.12508919262E+03 0.  0.
         23    2    1    2    0    0 -0.30532067049E+01 -0.88746694624E+01  0.12527082073E+03  0.15621305147E+03  0.92852878765E+02 0.  0.
          5    1    3    3  502    0  0.54698708456E+02  0.36191915328E+02  0.13788228929E+03  0.15274423571E+03  0.41800000000E+01 0.  1.
         -5    1    3    3    0  502 -0.51645501751E+02 -0.27317245865E+02  0.90004974590E+02  0.10738648716E+03  0.41800000000E+01 0.  1.
        -11    1    4    4    0    0 -0.33741633777E+02 -0.10982422507E+02  0.99391472541E+01  0.36849668957E+02  0.00000000000E+00 0.  1.
         11    1    4    4    0    0  0.30688427072E+02  0.21077530444E+01  0.11533167348E+03  0.11936338252E+03  0.00000000000E+00 0. -1.
</event>
<event>
 8    1  0.6443238E-009  0.2854248E+03  0.7561462E-02  0.1092762E+00
          1   -1    0    0  501    0  0.00000000000E+00  0.00000000000E+00  0.12717724375E+04  0.12717724375E+04  0.00000000000E+00 0. -1.
         -1   -1    0    0    0  501 -0.00000000000E+00 -0.00000000000E+00 -0.64755432732E+02  0.64755432732E+02  0.00000000000E+00 0.  1.
         25    2    1    2    0    0  0.23539111140E+03  0.12521498104E+03  0.63552529688E+03  0.70044712451E+03  0.12508398958E+03 0.  0.
         23    2    1    2    0    0 -0.23539111140E+03 -0.12521498104E+03  0.57149170786E+03  0.63608074570E+03  0.83115438369E+02 0.  0.
          5    1    3    3  502    0  0.15133780602E+03  0.11423748033E+02  0.35972331173E+03  0.39045097893E+03  0.41800000000E+01 0.  1.
         -5    1    3    3    0  502  0.84053305377E+02  0.11379123301E+03  0.27580198516E+03  0.30999614557E+03  0.41800000000E+01 0.  1.
        -11    1    4    4    0    0 -0.98361871977E+02 -0.95876187931E+02  0.24703031241E+03  0.28265044935E+03  0.00000000000E+00 0. -1.
         11    1    4    4    0    0 -0.13702923942E+03 -0.29338793111E+02  0.32446139546E+03  0.35343029635E+03  0.00000000000E+00 0.  1.
</event>
<event>
 8    1  0.6443238E-009  0.1062185E+03  0.7561462E-02  0.1267737E+00
          1   -1    0    0  501    0  0.00000000000E+00  0.00000000000E+00  0.17142133130E+03  0.17142133130E+03  0.00000000000E+00 0. -1.
         -1   -1    0    0    0  501 -0.00000000000E+00 -0.00000000000E+00 -0.79898128985E+02  0.79898128985E+02  0.00000000000E+00 0.  1.
         25    2    1    2    0    0  0.83220448444E+01  0.27040229490E+02  0.90292904578E+02  0.15684216482E+03  0.12508487361E+03 0.  0.
         23    2    1    2    0    0 -0.83220448444E+01 -0.27040229490E+02  0.12302977382E+01  0.94477295465E+02  0.90133319503E+02 0.  0.
          5    1    3    3  502    0 -0.36013785410E+02  0.60302719641E+02  0.64938006043E+02  0.95748774219E+02  0.41800000000E+01 0.  1.
         -5    1    3    3    0  502  0.44335830254E+02 -0.33262490151E+02  0.25354898535E+02  0.61093390601E+02  0.41800000000E+01 0.  1.
        -11    1    4    4    0    0 -0.19507973166E+02  0.25875753614E+02 -0.18007155239E+02  0.37072540808E+02  0.00000000000E+00 0.  1.
         11    1    4    4    0    0  0.11185928322E+02 -0.52915983104E+02  0.19237452977E+02  0.57404754658E+02  0.00000000000E+00 0. -1.
</event>
<event>
 8    1  0.6443238E-009  0.9728991E+02  0.7561462E-02  0.1286100E+00
         -1   -1    0    0    0  501 -0.00000000000E+00  0.00000000000E+00  0.45745567249E+03  0.45745567249E+03  0.00000000000E+00 0.  1.
          1   -1    0    0  501    0  0.00000000000E+00 -0.00000000000E+00 -0.31962909545E+02  0.31962909545E+02  0.00000000000E+00 0. -1.
         25    2    1    2    0    0 -0.11731995441E+02 -0.39781010941E+02  0.16449599266E+03  0.21077505531E+03  0.12508806415E+03 0.  0.
         23    2    1    2    0    0  0.11731995441E+02  0.39781010941E+02  0.26099677029E+03  0.27864352672E+03  0.88333076106E+02 0.  0.
          5    1    3    3  502    0  0.44368856701E+02 -0.16223954550E+02  0.13488006767E+03  0.14297523282E+03  0.41800000000E+01 0. -1.
         -5    1    3    3    0  502 -0.56100852141E+02 -0.23557056391E+02  0.29615924986E+02  0.67799822489E+02  0.41800000000E+01 0. -1.
        -11    1    4    4    0    0 -0.79703014628E+01  0.58468103596E+02  0.10628782570E+03  0.12156951401E+03  0.00000000000E+00 0. -1.
         11    1    4    4    0    0  0.19702296903E+02 -0.18687092655E+02  0.15470894459E+03  0.15707401271E+03  0.00000000000E+00 0.  1.
</event>
<event>
 8    1  0.6443238E-009  0.1448628E+03  0.7561462E-02  0.1206932E+00
          1   -1    0    0  501    0  0.00000000000E+00  0.00000000000E+00  0.46007925379E+03  0.46007925379E+03  0.00000000000E+00 0. -1.
         -1   -1    0    0    0  501 -0.00000000000E+00 -0.00000000000E+00 -0.64098397806E+02  0.64098397806E+02  0.00000000000E+00 0.  1.
         25    2    1    2    0    0  0.11968562007E+03 -0.41863531046E+02  0.24301411497E+03  0.30129930220E+03  0.12509279175E+03 0.  0.
         23    2    1    2    0    0 -0.11968562007E+03  0.41863531046E+02  0.15296674101E+03  0.22287834939E+03  0.10098877111E+03 0.  0.
          5    1    3    3  502    0  0.56461194804E+02 -0.13354013654E+02  0.22083009259E+03  0.22836286562E+03  0.41800000000E+01 0. -1.
         -5    1    3    3    0  502  0.63224425267E+02 -0.28509517392E+02  0.22184022381E+02  0.72936436582E+02  0.41800000000E+01 0. -1.
        -11    1    4    4    0    0  0.70012068033E+01 -0.19928206238E+02  0.21220581298E+02  0.29940998167E+02  0.00000000000E+00 0. -1.
         11    1    4    4    0    0 -0.12668682687E+03  0.61791737284E+02  0.13174615971E+03  0.19293735123E+03  0.00000000000E+00 0.  1.
</event>
<event>
 8    1  0.6443238E-009  0.1394237E+03  0.7561462E-02  0.1214106E+00
         -1   -1    0    0    0  501 -0.00000000000E+00  0.00000000000E+00  0.11309797428E+04  0.11309797428E+04  0.00000000000E+00 0.  1.
          1   -1    0    0  501    0  0.00000000000E+00 -0.00000000000E+00 -0.25826917634E+02  0.25826917634E+02  0.00000000000E+00 0. -1.
         25    2    1    2    0    0  0.40575791058E+02  0.99280374381E+02  0.84358057145E+03  0.85952268179E+03  0.12509225571E+03 0.  0.
         23    2    1    2    0    0 -0.40575791058E+02 -0.99280374381E+02  0.26157225375E+03  0.29728397867E+03  0.91949619276E+02 0.  0.
          5    1    3    3  502    0  0.57394024267E+02  0.11443233567E+03  0.53640778156E+03  0.55148854384E+03  0.41800000000E+01 0.  1.
         -5    1    3    3    0  502 -0.16818233208E+02 -0.15151961285E+02  0.30717278988E+03  0.30803413795E+03  0.41800000000E+01 0.  1.
        -11    1    4    4    0    0 -0.60470065559E+02 -0.73574237706E+02  0.24017678485E+03  0.25836928080E+03  0.00000000000E+00 0. -1.
         11    1    4    4    0    0  0.19894274501E+02 -0.25706136675E+02  0.21395468906E+02  0.38914697871E+02  0.00000000000E+00 0.  1.
</event>
<event>
 8    1  0.6443238E-009  0.1473997E+03  0.7561462E-02  0.1203705E+00
         -1   -1    0    0    0  501 -0.00000000000E+00  0.00000000000E+00  0.67492629846E+02  0.67492629846E+02  0.00000000000E+00 0.  1.
          1   -1    0    0  501    0  0.00000000000E+00 -0.00000000000E+00 -0.44271886329E+03  0.44271886329E+03  0.00000000000E+00 0. -1.
         25    2    1    2    0    0  0.96431955558E+02 -0.54549991861E+02 -0.30984898350E+03  0.35203374116E+03  0.12508612503E+03 0.  0.
         23    2    1    2    0    0 -0.96431955558E+02  0.54549991861E+02 -0.65377249938E+02  0.15817775197E+03  0.92039082700E+02 0.  0.
          5    1    3    3  502    0  0.47723237780E+02 -0.92459514119E+02 -0.17435205494E+03  0.20308220167E+03  0.41800000000E+01 0. -1.
         -5    1    3    3    0  502  0.48708717778E+02  0.37909522258E+02 -0.13549692857E+03  0.14895153949E+03  0.41800000000E+01 0. -1.
        -11    1    4    4    0    0 -0.53667655161E+02  0.65480163104E+02 -0.69443608337E+01  0.84947590419E+02  0.00000000000E+00 0.  1.
         11    1    4    4    0    0 -0.42764300397E+02 -0.10930171243E+02 -0.58432889104E+02  0.73230161552E+02  0.00000000000E+00 0. -1.
</event>
<event>
 8    1  0.6443238E-009  0.1194674E+03  0.7561462E-02  0.1243978E+00
         -2   -1    0    0    0  501 -0.00000000000E+00  0.00000000000E+00  0.22114722156E+03  0.22114722156E+03  0.00000000000E+00 0. -1.
          2   -1    0    0  501    0  0.00000000000E+00 -0.00000000000E+00 -0.85601053439E+02  0.85601053439E+02  0.00000000000E+00 0.  1.
         25    2    1    2    0    0 -0.23865366004E+02  0.77791171826E+02  0.96135275373E+02  0.17751169619E+03  0.12508952396E+03 0.  0.
         23    2    1    2    0    0  0.23865366004E+02 -0.77791171826E+02  0.39410892749E+02  0.12923657881E+03  0.92346373651E+02 0.  0.
          5    1    3    3  502    0 -0.61974972949E+02  0.46510902685E+02  0.10087652194E+02  0.78252121169E+02  0.41800000000E+01 0.  1.
         -5    1    3    3    0  502  0.38109606945E+02  0.31280269141E+02  0.86047623179E+02  0.99259575023E+02  0.41800000000E+01 0.  1.
        -11    1    4    4    0    0 -0.47927343348E+01 -0.82649669593E+02  0.51779312684E+02  0.97647505899E+02  0.00000000000E+00 0. -1.
         11    1    4    4    0    0  0.28658100339E+02  0.48584977677E+01 -0.12368419935E+02  0.31589072909E+02  0.00000000000E+00 0.  1.
</event>
<event>
 8    1  0.6443238E-009  0.1161562E+03  0.7561462E-02  0.1249576E+00
         -2   -1    0    0    0  501 -0.00000000000E+00  0.00000000000E+00  0.14881324118E+02  0.14881324118E+02  0.00000000000E+00 0.  1.
          2   -1    0    0  501    0  0.00000000000E+00 -0.00000000000E+00 -0.14071222998E+04  0.14071222998E+04  0.00000000000E+00 0. -1.
         25    2    1    2    0    0 -0.80105661422E+02 -0.13210690120E+02 -0.11633070507E+04  0.11728264875E+04  0.12508891363E+03 0.  0.
         23    2    1    2    0    0  0.80105661422E+02  0.13210690120E+02 -0.22893392500E+03  0.24917713641E+03  0.55561353181E+02 0.  0.
          5    1    3    3  502    0 -0.86996943956E+02  0.32085936926E+02 -0.54830790222E+03  0.55610880558E+03  0.41800000000E+01 0. -1.
         -5    1    3    3    0  502  0.68912825338E+01 -0.45296627046E+02 -0.61499914847E+03  0.61671768194E+03  0.41800000000E+01 0. -1.
        -11    1    4    4    0    0  0.27337133753E+02 -0.17472740366E+02 -0.45716674911E+02  0.56059164306E+02  0.00000000000E+00 0.  1.
         11    1    4    4    0    0  0.52768527670E+02  0.30683430486E+02 -0.18321725009E+03  0.19311797211E+03  0.00000000000E+00 0. -1.
</event>
<event>
 8    1  0.6443238E-009  0.9807220E+02  0.7561462E-02  0.1284403E+00
          2   -1    0    0  501    0  0.00000000000E+00  0.00000000000E+00  0.75168057013E+03  0.75168057013E+03  0.00000000000E+00 0. -1.
         -2   -1    0    0    0  501 -0.00000000000E+00 -0.00000000000E+00 -0.17538910446E+02  0.17538910446E+02  0.00000000000E+00 0.  1.
         25    2    1    2    0    0 -0.35524859820E+02  0.53850710167E+01  0.46992615531E+03  0.48761693137E+03  0.12509462682E+03 0.  0.
         23    2    1    2    0    0  0.35524859820E+02 -0.53850710167E+01  0.26421550437E+03  0.28160254920E+03  0.90549148603E+02 0.  0.
          5    1    3    3  502    0 -0.30162128906E+02  0.50622028021E+02  0.39810907200E+03  0.40246819670E+03  0.41800000000E+01 0. -1.
         -5    1    3    3    0  502 -0.53627309137E+01 -0.45236957004E+02  0.71817083310E+02  0.85148734676E+02  0.41800000000E+01 0. -1.
        -11    1    4    4    0    0  0.49373930242E+02  0.26877291381E+02  0.11109063863E+03  0.12450423194E+03  0.00000000000E+00 0.  1.
         11    1    4    4    0    0 -0.13849070422E+02 -0.32262362398E+02  0.15312486574E+03  0.15709831726E+03  0.00000000000E+00 0. -1.
</event>
<event>
 8    1  0.6443238E-009  0.2049383E+03  0.7561462E-02  0.1145638E+00
         -2   -1    0    0    0  501 -0.00000000000E+00  0.00000000000E+00  0.22905169669E+03  0.22905169669E+03  0.00000000000E+00 0.  1.
          2   -1    0    0  501    0  0.00000000000E+00 -0.00000000000E+00 -0.19317085830E+03  0.19317085830E+03  0.00000000000E+00 0. -1.
         25    2    1    2    0    0 -0.20772781870E+02  0.18365768378E+03  0.12314449074E+01  0.22317632823E+03  0.12507799067E+03 0.  0.
         23    2    1    2    0    0  0.20772781870E+02 -0.18365768378E+03  0.34649393479E+02  0.19904622676E+03  0.65246966546E+02 0.  0.
          5    1    3    3  502    0  0.38261967247E+02  0.12601956972E+03 -0.29509331189E+02  0.13503030444E+03  0.41800000000E+01 0. -1.
         -5    1    3    3    0  502 -0.59034749117E+02  0.57638114053E+02  0.30740776096E+02  0.88146023789E+02  0.41800000000E+01 0. -1.
        -11    1    4    4    0    0  0.42993867373E+02 -0.14086532409E+03  0.32242434743E+02  0.15076832148E+03  0.00000000000E+00 0.  1.
         11    1    4    4    0    0 -0.22221085504E+02 -0.42792359683E+02  0.24069587363E+01  0.48277905283E+02  0.00000000000E+00 0. -1.
</event>
<event>
 8    1  0.6443238E-009  0.8325143E+02  0.7561462E-02  0.1320070E+00
          3   -1    0    0  501    0  0.00000000000E+00  0.00000000000E+00  0.35654900751E+03  0.35654900751E+03  0.00000000000E+00 0. -1.
         -3   -1    0    0    0  501 -0.00000000000E+00 -0.00000000000E+00 -0.33392829942E+02  0.33392829942E+02  0.00000000000E+00 0.  1.
         25    2    1    2    0    0 -0.16927564856E+02  0.92210116347E+00  0.18097705819E+03  0.22065994026E+03  0.12510284139E+03 0.  0.
         23    2    1    2    0    0  0.16927564856E+02 -0.92210116347E+00  0.14217911938E+03  0.16928189719E+03  0.90299867139E+02 0.  0.
          5    1    3    3  502    0  0.27684520699E+02 -0.81226932375E+01  0.17152101931E+03  0.17398087049E+03  0.41800000000E+01 0.  1.
         -5    1    3    3    0  502 -0.44612085555E+02  0.90447944010E+01  0.94560388759E+01  0.46679069770E+02  0.41800000000E+01 0.  1.
        -11    1    4    4    0    0  0.10258860617E+02 -0.45460650736E+02  0.66205499203E+02  0.80963467757E+02  0.00000000000E+00 0.  1.
         11    1    4    4    0    0  0.66687042396E+01  0.44538549573E+02  0.75973620176E+02  0.88318429430E+02  0.00000000000E+00 0. -1.
</event>
<event>
 8    1  0.6443238E-009  0.1415287E+03  0.7561462E-02  0.1211287E+00
          1   -1    0    0  501    0  0.00000000000E+00  0.00000000000E+00  0.62829013567E+03  0.62829013567E+03  0.00000000000E+00 0. -1.
         -1   -1    0    0    0  501 -0.00000000000E+00 -0.00000000000E+00 -0.57150583612E+02  0.57150583612E+02  0.00000000000E+00 0.  1.
         25    2    1    2    0    0  0.11313207578E+03 -0.55698344000E+02  0.45083038405E+03  0.48455816727E+03  0.12508960863E+03 0.  0.
         23    2    1    2    0    0 -0.11313207578E+03  0.55698344000E+02  0.12030916800E+03  0.20088255201E+03  0.99891599758E+02 0.  0.
          5    1    3    3  502    0 -0.52047386001E+01 -0.57630328069E+01  0.22150398832E+03  0.22167947829E+03  0.41800000000E+01 0.  1.
         -5    1    3    3    0  502  0.11833681438E+03 -0.49935311193E+02  0.22932639573E+03  0.26287868898E+03  0.41800000000E+01 0.  1.
        -11    1    4    4    0    0 -0.74937673966E+02  0.72257302616E+02  0.12051808783E+03  0.15925257377E+03  0.00000000000E+00 0. -1.
         11    1    4    4    0    0 -0.38194401814E+02 -0.16558958616E+02 -0.20891982456E+00  0.41629978235E+02  0.00000000000E+00 0.  1.
</event>
<event>
 8    1  0.6443238E-009  0.2079652E+03  0.7561462E-02  0.1143187E+00
          2   -1    0    0  501    0  0.00000000000E+00  0.00000000000E+00  0.41725740662E+03  0.41725740662E+03  0.00000000000E+00 0. -1.
         -2   -1    0    0    0  501 -0.00000000000E+00 -0.00000000000E+00 -0.11203956526E+03  0.11203956526E+03  0.00000000000E+00 0.  1.
         25    2    1    2    0    0 -0.13322381067E+03 -0.13114569221E+03  0.15786452110E+03  0.27480543774E+03  0.12509614412E+03 0.  0.
         23    2    1    2    0    0  0.13322381067E+03  0.13114569221E+03  0.14735332026E+03  0.25449153414E+03  0.90028682316E+02 0.  0.
          5    1    3    3  502    0  0.15885614623E+02 -0.38537445248E+02  0.61815784923E+02  0.74673630579E+02  0.41800000000E+01 0.  1.
         -5    1    3    3    0  502 -0.14910942529E+03 -0.92608246965E+02  0.96048736177E+02  0.20013180716E+03  0.41800000000E+01 0.  1.
        -11    1    4    4    0    0  0.64353117885E+02  0.10815828737E+03  0.55873164000E+02  0.13770021556E+03  0.00000000000E+00 0.  1.
         11    1    4    4    0    0  0.68870692783E+02  0.22987404841E+02  0.91480156265E+02  0.11679131858E+03  0.00000000000E+00 0. -1.
</event>
<event>
 8    1  0.6443238E-009  0.1055686E+03  0.7561462E-02  0.1269003E+00
          1   -1    0    0  501    0  0.00000000000E+00  0.00000000000E+00  0.37054292667E+02  0.37054292667E+02  0.00000000000E+00 0. -1.
         -1   -1    0    0    0  501 -0.00000000000E+00 -0.00000000000E+00 -0.44500187718E+03  0.44500187718E+03  0.00000000000E+00 0.  1.
         25    2    1    2    0    0 -0.12408705553E+02 -0.23979769329E+02 -0.34782011541E+03  0.37061756351E+03  0.12509812303E+03 0.  0.
         23    2    1    2    0    0  0.12408705553E+02  0.23979769329E+02 -0.60127469101E+02  0.11143860634E+03  0.89856803477E+02 0.  0.
          5    1    3    3  502    0  0.54226463180E+02 -0.76089581213E+01 -0.20320391587E+03  0.21049396518E+03  0.41800000000E+01 0.  1.
         -5    1    3    3    0  502 -0.66635168733E+02 -0.16370811207E+02 -0.14461619954E+03  0.16012359833E+03  0.41800000000E+01 0.  1.
        -11    1    4    4    0    0 -0.12723567084E+02 -0.27438244524E+02 -0.41299223955E+02  0.51189572388E+02  0.00000000000E+00 0.  1.
         11    1    4    4    0    0  0.25132272637E+02  0.51418013853E+02 -0.18828245146E+02  0.60249033949E+02  0.00000000000E+00 0. -1.
</event>
<event>
 8    1  0.6443238E-009  0.1024208E+03  0.7561462E-02  0.1275286E+00
          1   -1    0    0  501    0  0.00000000000E+00  0.00000000000E+00  0.22910273112E+03  0.22910273112E+03  0.00000000000E+00 0. -1.
         -1   -1    0    0    0  501 -0.00000000000E+00 -0.00000000000E+00 -0.56993947899E+02  0.56993947899E+02  0.00000000000E+00 0.  1.
         25    2    1    2    0    0  0.22607262097E+02 -0.12461846941E+02  0.64749604814E+02  0.14319655902E+03  0.12508539988E+03 0.  0.
         23    2    1    2    0    0 -0.22607262097E+02  0.12461846941E+02  0.10735917841E+03  0.14290012000E+03  0.90708683041E+02 0.  0.
          5    1    3    3  502    0 -0.40988347237E+02 -0.40744638647E+02  0.31377148202E+02  0.65895128933E+02  0.41800000000E+01 0.  1.
         -5    1    3    3    0  502  0.63595609334E+02  0.28282791706E+02  0.33372456611E+02  0.77301430087E+02  0.41800000000E+01 0.  1.
        -11    1    4    4    0    0 -0.12454252411E+01  0.41279454809E+02  0.97212260107E+02  0.10562086910E+03  0.00000000000E+00 0. -1.
         11    1    4    4    0    0 -0.21361836856E+02 -0.28817607868E+02  0.10146918303E+02  0.37279250906E+02  0.00000000000E+00 0.  1.
</event>
<event>
 8    1  0.6443238E-009  0.1284698E+03  0.7561462E-02  0.1229744E+00
          2   -1    0    0  501    0  0.00000000000E+00  0.00000000000E+00  0.22432801964E+03  0.22432801964E+03  0.00000000000E+00 0. -1.
         -2   -1    0    0    0  501 -0.00000000000E+00 -0.00000000000E+00 -0.10770013349E+03  0.10770013349E+03  0.00000000000E+00 0.  1.
         25    2    1    2    0    0  0.41455927157E+02 -0.10167558011E+03  0.34060317177E+02  0.16989149467E+03  0.12508595952E+03 0.  0.
         23    2    1    2    0    0 -0.41455927157E+02  0.10167558011E+03  0.82567568967E+02  0.16213665846E+03  0.86106765604E+02 0.  0.
          5    1    3    3  502    0  0.21479034513E+02 -0.34694178806E+01  0.61941085816E+02  0.65784164479E+02  0.41800000000E+01 0.  1.
         -5    1    3    3    0  502  0.19976892643E+02 -0.98206162232E+02 -0.27880768639E+02  0.10410733019E+03  0.41800000000E+01 0.  1.
        -11    1    4    4    0    0 -0.64130398739E+02  0.84260795970E+02  0.45316920116E+02  0.11517904770E+03  0.00000000000E+00 0.  1.
         11    1    4    4    0    0  0.22674471583E+02  0.17414784142E+02  0.37250648851E+02  0.46957610758E+02  0.00000000000E+00 0. -1.
</event>
<event>
 8    1  0.6443238E-009  0.1098498E+03  0.7561462E-02  0.1260848E+00
         -1   -1    0    0    0  501 -0.00000000000E+00  0.00000000000E+00  0.48568532816E+02  0.48568532816E+02  0.00000000000E+00 0. -1.
          1   -1    0    0  501    0  0.00000000000E+00 -0.00000000000E+00 -0.47221378416E+03  0.47221378416E+03  0.00000000000E+00 0.  1.
         25    2    1    2    0    0 -0.39722541955E+02  0.77689862339E+02 -0.32729613065E+03  0.36108784660E+03  0.12509228904E+03 0.  0.
         23    2    1    2    0    0  0.39722541955E+02 -0.77689862339E+02 -0.96349120696E+02  0.15969447037E+03  0.92766242564E+02 0.  0.
          5    1    3    3  502    0 -0.37651297570E+02  0.27093555371E+02 -0.29963991155E+03  0.30323790981E+03  0.41800000000E+01 0.  1.
         -5    1    3    3    0  502 -0.20712443851E+01  0.50596306968E+02 -0.27656219096E+02  0.57849936792E+02  0.41800000000E+01 0.  1.
        -11    1    4    4    0    0  0.60768094812E+02 -0.25242823958E+02 -0.73731081009E+02  0.98824257221E+02  0.00000000000E+00 0.  1.
         11    1    4    4    0    0 -0.21045552858E+02 -0.52447038381E+02 -0.22618039687E+02  0.60870213153E+02  0.00000000000E+00 0. -1.
</event>
<event>
 8    1  0.6443238E-009  0.1042119E+03  0.7561462E-02  0.1271680E+00
          2   -1    0    0  501    0  0.00000000000E+00  0.00000000000E+00  0.16860311784E+03  0.16860311784E+03  0.00000000000E+00 0. -1.
         -2   -1    0    0    0  501 -0.00000000000E+00 -0.00000000000E+00 -0.78592995593E+02  0.78592995593E+02  0.00000000000E+00 0.  1.
         25    2    1    2    0    0 -0.13842974184E+02  0.21680041861E+02  0.16560182088E+02  0.12877779308E+03  0.12509127952E+03 0.  0.
         23    2    1    2    0    0  0.13842974184E+02 -0.21680041861E+02  0.73449940162E+02  0.11841832035E+03  0.89254426983E+02 0.  0.
          5    1    3    3  502    0 -0.63090813197E+02  0.39655720761E+01 -0.18072495698E+02  0.65880679812E+02  0.41800000000E+01 0. -1.
         -5    1    3    3    0  502  0.49247839013E+02  0.17714469785E+02  0.34632677786E+02  0.62897113271E+02  0.41800000000E+01 0. -1.
        -11    1    4    4    0    0 -0.30232750334E+01 -0.55073134453E+02  0.48538234585E+02  0.73472107272E+02  0.00000000000E+00 0.  1.
         11    1    4    4    0    0  0.16866249218E+02  0.33393092592E+02  0.24911705577E+02  0.44946213081E+02  0.00000000000E+00 0. -1.
</event>
<event>
 8    1  0.6443238E-009  0.1087540E+03  0.7561462E-02  0.1262895E+00
          2   -1    0    0  501    0  0.00000000000E+00  0.00000000000E+00  0.26524176475E+03  0.26524176475E+03  0.00000000000E+00 0. -1.
         -2   -1    0    0    0  501 -0.00000000000E+00 -0.00000000000E+00 -0.92507208774E+02  0.92507208774E+02  0.00000000000E+00 0.  1.
         25    2    1    2    0    0 -0.21457366224E+02  0.37919442814E+02 -0.25986324926E+02  0.13498831307E+03  0.12509297692E+03 0.  0.
         23    2    1    2    0    0  0.21457366224E+02 -0.37919442814E+02  0.19872088090E+03  0.22276066046E+03  0.90741504452E+02 0.  0.
          5    1    3    3  502    0  0.73160214118E+01  0.79899184785E+02 -0.24136058526E+02  0.83889365356E+02  0.41800000000E+01 0.  1.
         -5    1    3    3    0  502 -0.28773387636E+02 -0.41979741971E+02 -0.18502664009E+01  0.51098947716E+02  0.41800000000E+01 0. -1.
        -11    1    4    4    0    0  0.34235849437E+02  0.10668932266E+02  0.14432471652E+03  0.14871295606E+03  0.00000000000E+00 0. -1.
         11    1    4    4    0    0 -0.12778483213E+02 -0.48588375080E+02  0.54396164389E+02  0.74047704396E+02  0.00000000000E+00 0.  1.
</event>
<event>
 8    1  0.6443238E-009  0.3182472E+03  0.7561462E-02  0.1076459E+00
          1   -1    0    0  501    0  0.00000000000E+00  0.00000000000E+00  0.19857531864E+04  0.19857531864E+04  0.00000000000E+00 0. -1.
         -1   -1    0    0    0  501 -0.00000000000E+00 -0.00000000000E+00 -0.54170319984E+02  0.54170319984E+02  0.00000000000E+00 0.  1.
         25    2    1    2    0    0 -0.21081750728E+03 -0.21910458024E+03  0.11685753914E+04  0.12139466074E+04  0.12508829538E+03 0.  0.
         23    2    1    2    0    0  0.21081750728E+03  0.21910458024E+03  0.76300747496E+03  0.82597689899E+03  0.87215780444E+02 0.  0.
          5    1    3    3  502    0 -0.21015157326E+03 -0.14926371157E+03  0.95614382553E+03  0.99028875932E+03  0.41800000000E+01 0.  1.
         -5    1    3    3    0  502 -0.66593401172E+00 -0.69840868670E+02  0.21243156590E+03  0.22365784805E+03  0.41800000000E+01 0.  1.
        -11    1    4    4    0    0  0.49921936805E+02  0.22725093643E+02  0.21713839133E+03  0.22395917182E+03  0.00000000000E+00 0.  1.
         11    1    4    4    0    0  0.16089557047E+03  0.19637948660E+03  0.54586908363E+03  0.60201772716E+03  0.00000000000E+00 0. -1.
</event>
<event>
 8    1  0.6443238E-009  0.8720125E+02  0.7561462E-02  0.1309774E+00
          2   -1    0    0  501    0  0.00000000000E+00  0.00000000000E+00  0.99324069048E+03  0.99324069048E+03  0.00000000000E+00 0.  1.
         -2   -1    0    0    0  501 -0.00000000000E+00 -0.00000000000E+00 -0.13965919154E+02  0.13965919154E+02  0.00000000000E+00 0. -1.
         25    2    1    2    0    0 -0.24472122032E+02 -0.44732237293E+02  0.53376206466E+03  0.55058934657E+03  0.12508728582E+03 0.  0.
         23    2    1    2    0    0  0.24472122032E+02  0.44732237293E+02  0.44551270667E+03  0.45661726307E+03  0.86127204289E+02 0.  0.
          5    1    3    3  502    0 -0.19060374651E+01 -0.50523064215E+02  0.52144506398E+03  0.52390709114E+03  0.41800000000E+01 0.  1.
         -5    1    3    3    0  502 -0.22566084567E+02  0.57908269225E+01  0.12317000682E+02  0.26682255432E+02  0.41800000000E+01 0.  1.
        -11    1    4    4    0    0  0.60359390934E+01 -0.26110643981E+02  0.11113892470E+03  0.11432435818E+03  0.00000000000E+00 0. -1.
         11    1    4    4    0    0  0.18436182938E+02  0.70842881274E+02  0.33437378197E+03  0.34229290489E+03  0.00000000000E+00 0.  1.
</event>
<event>
 8    1  0.6443238E-009  0.1328240E+03  0.7561462E-02  0.1223325E+00
          1   -1    0    0  501    0  0.00000000000E+00  0.00000000000E+00  0.65562793986E+03  0.65562793986E+03  0.00000000000E+00 0. -1.
         -1   -1    0    0    0  501 -0.00000000000E+00 -0.00000000000E+00 -0.44744733730E+02  0.44744733730E+02  0.00000000000E+00 0.  1.
         25    2    1    2    0    0  0.21677365606E+02  0.11597044193E+03  0.43122454954E+03  0.46424320612E+03  0.12509232881E+03 0.  0.
         23    2    1    2    0    0 -0.21677365606E+02 -0.11597044193E+03  0.17965865659E+03  0.23612946747E+03  0.97779552758E+02 0.  0.
          5    1    3    3  502    0  0.14299429264E+02  0.30010582884E+02  0.11047004537E+02  0.35279136491E+02  0.41800000000E+01 0.  1.
         -5    1    3    3    0  502  0.73779363422E+01  0.85959859043E+02  0.42017754500E+03  0.42896406963E+03  0.41800000000E+01 0.  1.
        -11    1    4    4    0    0 -0.41371625307E+02 -0.16789600811E+02  0.24497417904E+02  0.50927650249E+02  0.00000000000E+00 0.  1.
         11    1    4    4    0    0  0.19694259701E+02 -0.99180841117E+02  0.15516123869E+03  0.18520181722E+03  0.00000000000E+00 0. -1.
</event>
<event>
 8    1  0.6443238E-009  0.1280773E+03  0.7561462E-02  0.1230337E+00
         -1   -1    0    0    0  501 -0.00000000000E+00  0.00000000000E+00  0.34434785630E+03  0.34434785630E+03  0.00000000000E+00 0.  1.
          1   -1    0    0  501    0  0.00000000000E+00 -0.00000000000E+00 -0.72610932067E+02  0.72610932067E+02  0.00000000000E+00 0. -1.
         25    2    1    2    0    0  0.83312558844E+02  0.35349950887E+01  0.41867164759E+02  0.15609282511E+03  0.12513445534E+03 0.  0.
         23    2    1    2    0    0 -0.83312558844E+02 -0.35349950887E+01  0.22986975947E+03  0.26086596326E+03  0.90870599291E+02 0.  0.
          5    1    3    3  502    0 -0.13394554380E+02 -0.31021266923E+02  0.41019556182E+02  0.53308624799E+02  0.41800000000E+01 0. -1.
         -5    1    3    3    0  502  0.96707113225E+02  0.34556262012E+02  0.84760857680E+00  0.10278420031E+03  0.41800000000E+01 0. -1.
        -11    1    4    4    0    0 -0.10148505492E+02  0.35135552325E+02  0.42720577097E+02  0.56236526461E+02  0.00000000000E+00 0. -1.
         11    1    4    4    0    0 -0.73164053352E+02 -0.38670547414E+02  0.18714918237E+03  0.20462943679E+03  0.00000000000E+00 0.  1.
</event>
<event>
 8    1  0.6443238E-009  0.1135475E+03  0.7561462E-02  0.1254138E+00
          2   -1    0    0  501    0  0.00000000000E+00  0.00000000000E+00  0.20202078630E+03  0.20202078630E+03  0.00000000000E+00 0.  1.
         -2   -1    0    0    0  501 -0.00000000000E+00 -0.00000000000E+00 -0.25702119513E+03  0.25702119513E+03  0.00000000000E+00 0. -1.
         25    2    1    2    0    0 -0.32836196211E+02  0.66878341408E+02  0.15874589033E+03  0.21540581825E+03  0.12509388676E+03 0.  0.
         23    2    1    2    0    0  0.32836196211E+02 -0.66878341408E+02 -0.21374629916E+03  0.24363616319E+03  0.90111992963E+02 0.  0.
          5    1    3    3  502    0  0.29015660545E+02 -0.18844804502E+02  0.66358043579E+02  0.74952635452E+02  0.41800000000E+01 0. -1.
         -5    1    3    3    0  502 -0.61851856756E+02  0.85723145910E+02  0.92387846755E+02  0.14045318279E+03  0.41800000000E+01 0. -1.
        -11    1    4    4    0    0  0.40268156167E+02 -0.33864297317E+02 -0.38612295458E+02  0.65262733581E+02  0.00000000000E+00 0.  1.
         11    1    4    4    0    0 -0.74319599559E+01 -0.33014044091E+02 -0.17513400370E+03  0.17837342960E+03  0.00000000000E+00 0. -1.
</event>
<event>
 8    1  0.6443238E-009  0.1104267E+03  0.7561462E-02  0.1259782E+00
          2   -1    0    0  501    0  0.00000000000E+00  0.00000000000E+00  0.16859468018E+04  0.16859468018E+04  0.00000000000E+00 0. -1.
         -2   -1    0    0    0  501 -0.00000000000E+00 -0.00000000000E+00 -0.81159371633E+01  0.81159371633E+01  0.00000000000E+00 0.  1.
         25    2    1    2    0    0 -0.13290640299E+02 -0.33175868915E+02  0.11438697941E+04  0.11512437255E+04  0.12508689142E+03 0.  0.
         23    2    1    2    0    0  0.13290640299E+02  0.33175868915E+02  0.53396107061E+03  0.54281901347E+03  0.90888817016E+02 0.  0.
          5    1    3    3  502    0 -0.64739843614E+02 -0.30356576796E+02  0.83611525449E+03  0.83917754993E+03  0.41800000000E+01 0. -1.
         -5    1    3    3    0  502  0.51449203316E+02 -0.28192921189E+01  0.30775453958E+03  0.31206617562E+03  0.41800000000E+01 0. -1.
        -11    1    4    4    0    0  0.49546262369E+02  0.17902397783E+01  0.25736718132E+03  0.26209903299E+03  0.00000000000E+00 0. -1.
         11    1    4    4    0    0 -0.36255622071E+02  0.31385629137E+02  0.27659388929E+03  0.28071998048E+03  0.00000000000E+00 0.  1.
</event>
<event>
 8    1  0.6443238E-009  0.1197627E+03  0.7561462E-02  0.1243489E+00
         -2   -1    0    0    0  501 -0.00000000000E+00  0.00000000000E+00  0.34276092994E+03  0.34276092994E+03  0.00000000000E+00 0. -1.
          2   -1    0    0  501    0  0.00000000000E+00 -0.00000000000E+00 -0.55483600204E+02  0.55483600204E+02  0.00000000000E+00 0.  1.
         25    2    1    2    0    0 -0.45271605534E+02 -0.64206883948E+02  0.11971140694E+03  0.19011828670E+03  0.12506838040E+03 0.  0.
         23    2    1    2    0    0  0.45271605534E+02  0.64206883948E+02  0.16756592280E+03  0.20812624344E+03  0.95216345815E+02 0.  0.
          5    1    3    3  502    0  0.25939327373E+02 -0.57316215322E+02  0.95571670065E+02  0.11449634825E+03  0.41800000000E+01 0.  1.
         -5    1    3    3    0  502 -0.71210932907E+02 -0.68906686256E+01  0.24139736871E+02  0.75621938455E+02  0.41800000000E+01 0.  1.
        -11    1    4    4    0    0  0.50625045752E+02  0.11609083481E+02  0.28269460540E+02  0.59133987485E+02  0.00000000000E+00 0.  1.
         11    1    4    4    0    0 -0.53534402188E+01  0.52597800467E+02  0.13929646226E+03  0.14899225595E+03  0.00000000000E+00 0. -1.
</event>
<event>
 8    1  0.6443238E-009  0.1683842E+03  0.7561462E-02  0.1179543E+00
         -2   -1    0    0    0  501 -0.00000000000E+00  0.00000000000E+00  0.13067857436E+03  0.13067857436E+03  0.00000000000E+00 0.  1.
          2   -1    0    0  501    0  0.00000000000E+00 -0.00000000000E+00 -0.28629076008E+03  0.28629076008E+03  0.00000000000E+00 0. -1.
         25    2    1    2    0    0  0.98490978129E+01  0.13765898670E+03  0.41677500212E+01  0.18630826941E+03  0.12508556976E+03 0.  0.
         23    2    1    2    0    0 -0.98490978129E+01 -0.13765898670E+03 -0.15977993574E+03  0.23066106503E+03  0.92886477539E+02 0.  0.
          5    1    3    3  502    0  0.48613025307E+02  0.13607752785E+03 -0.97268535727E+01  0.14488755604E+03  0.41800000000E+01 0.  1.
         -5    1    3    3    0  502 -0.38763927494E+02  0.15814588493E+01  0.13894603594E+02  0.41420713368E+02  0.41800000000E+01 0.  1.
        -11    1    4    4    0    0 -0.33902590519E+02 -0.11588395964E+03 -0.80817778510E+02  0.14529277707E+03  0.00000000000E+00 0.  1.
         11    1    4    4    0    0  0.24053492706E+02 -0.21775027058E+02 -0.78962157231E+02  0.85368287960E+02  0.00000000000E+00 0. -1.
</event>
<event>
 8    1  0.6443238E-009  0.7315460E+02  0.7561462E-02  0.1349683E+00
         -2   -1    0    0    0  501 -0.00000000000E+00  0.00000000000E+00  0.20635587488E+03  0.20635587488E+03  0.00000000000E+00 0.  1.
          2   -1    0    0  501    0  0.00000000000E+00 -0.00000000000E+00 -0.61988678953E+02  0.61988678953E+02  0.00000000000E+00 0. -1.
         25    2    1    2    0    0 -0.14689664976E+02 -0.25883532789E+02  0.82362815378E+02  0.15269992208E+03  0.12509152377E+03 0.  0.
         23    2    1    2    0    0  0.14689664976E+02  0.25883532789E+02  0.62004380550E+02  0.11564463176E+03  0.92969855978E+02 0.  0.
          5    1    3    3  502    0  0.85223459197E+01 -0.41258010301E+02 -0.19793921828E+02  0.46734628866E+02  0.41800000000E+01 0.  1.
         -5    1    3    3    0  502 -0.23212010896E+02  0.15374477511E+02  0.10215673721E+03  0.10596529321E+03  0.41800000000E+01 0.  1.
        -11    1    4    4    0    0 -0.14874479391E+02 -0.17721732270E+02  0.58426345191E+02  0.62840653594E+02  0.00000000000E+00 0.  1.
         11    1    4    4    0    0  0.29564144367E+02  0.43605265059E+02  0.35780353596E+01  0.52803978165E+02  0.00000000000E+00 0. -1.
</event>
<event>
 8    1  0.6443238E-009  0.8295825E+02  0.7561462E-02  0.1320860E+00
         -1   -1    0    0    0  501 -0.00000000000E+00  0.00000000000E+00  0.15743961332E+03  0.15743961332E+03  0.00000000000E+00 0.  1.
          1   -1    0    0  501    0  0.00000000000E+00 -0.00000000000E+00 -0.11549389409E+03  0.11549389409E+03  0.00000000000E+00 0. -1.
         25    2    1    2    0    0  0.20653463622E+02 -0.11097903338E+02  0.10201755976E+03  0.16310634435E+03  0.12508544300E+03 0.  0.
         23    2    1    2    0    0 -0.20653463622E+02  0.11097903338E+02 -0.60071840536E+02  0.10982716306E+03  0.88902478603E+02 0.  0.
          5    1    3    3  502    0 -0.18345023783E+02  0.18293699147E+02  0.11031769314E+03  0.11339605437E+03  0.41800000000E+01 0. -1.
         -5    1    3    3    0  502  0.38998487405E+02 -0.29391602485E+02 -0.83001333784E+01  0.49710289987E+02  0.41800000000E+01 0. -1.
        -11    1    4    4    0    0  0.34524068854E+02  0.77452217520E+01 -0.32543865013E+02  0.48072891947E+02  0.00000000000E+00 0. -1.
         11    1    4    4    0    0 -0.55177532476E+02  0.33526815858E+01 -0.27527975523E+02  0.61754271110E+02  0.00000000000E+00 0.  1.
</event>
<event>
 8    1  0.6443238E-009  0.9601469E+02  0.7561462E-02  0.1288907E+00
         -1   -1    0    0    0  501 -0.00000000000E+00  0.00000000000E+00  0.11757349192E+03  0.11757349192E+03  0.00000000000E+00 0.  1.
          1   -1    0    0  501    0  0.00000000000E+00 -0.00000000000E+00 -0.15820223779E+03  0.15820223779E+03  0.00000000000E+00 0. -1.
         25    2    1    2    0    0 -0.49610811698E+02  0.49944617591E+02  0.21234806535E+02  0.14510779387E+03  0.12509859059E+03 0.  0.
         23    2    1    2    0    0  0.49610811698E+02 -0.49944617591E+02 -0.61863552401E+02  0.13066793584E+03  0.91056646537E+02 0.  0.
          5    1    3    3  502    0 -0.32843522197E+02  0.11050070878E+02 -0.50683653487E+02  0.61539468210E+02  0.41800000000E+01 0. -1.
         -5    1    3    3    0  502 -0.16767289501E+02  0.38894546713E+02  0.71918460022E+02  0.83568325657E+02  0.41800000000E+01 0. -1.
        -11    1    4    4    0    0  0.18833824636E+02  0.26297042371E+02 -0.23237548986E+02  0.39827516503E+02  0.00000000000E+00 0. -1.
         11    1    4    4    0    0  0.30776987062E+02 -0.76241659962E+02 -0.38626003415E+02  0.90840419342E+02  0.00000000000E+00 0.  1.
</event>
<event>
 8    1  0.6443238E-009  0.1036136E+03  0.7561462E-02  0.1272876E+00
         -3   -1    0    0    0  501 -0.00000000000E+00  0.00000000000E+00  0.26364168044E+03  0.26364168044E+03  0.00000000000E+00 0.  1.
          3   -1    0    0  501    0  0.00000000000E+00 -0.00000000000E+00 -0.47935024116E+02  0.47935024116E+02  0.00000000000E+00 0. -1.
         25    2    1    2    0    0 -0.30487850854E+02  0.90560547208E+01  0.13052315737E+03  0.18355495399E+03  0.12507839681E+03 0.  0.
         23    2    1    2    0    0  0.30487850854E+02 -0.90560547208E+01  0.85183498958E+02  0.12802175057E+03  0.90121134850E+02 0.  0.
          5    1    3    3  502    0 -0.43343857567E+02 -0.48585694332E+02  0.43923794352E+02  0.78651330521E+02  0.41800000000E+01 0.  1.
         -5    1    3    3    0  502  0.12856006713E+02  0.57641749053E+02  0.86599363017E+02  0.10490362347E+03  0.41800000000E+01 0.  1.
        -11    1    4    4    0    0  0.30030372047E+02 -0.41004995426E+02  0.18516847532E+02  0.54093498109E+02  0.00000000000E+00 0. -1.
         11    1    4    4    0    0  0.45747880720E+00  0.31948940705E+02  0.66666651427E+02  0.73928252458E+02  0.00000000000E+00 0.  1.
</event>
<event>
 8    1  0.6443238E-009  0.1815073E+03  0.7561462E-02  0.1166352E+00
         -2   -1    0    0    0  501 -0.00000000000E+00  0.00000000000E+00  0.36333399683E+02  0.36333399683E+02  0.00000000000E+00 0.  1.
          2   -1    0    0  501    0  0.00000000000E+00 -0.00000000000E+00 -0.11418869139E+04  0.11418869139E+04  0.00000000000E+00 0. -1.
         25    2    1    2    0    0  0.34026994146E+02  0.16867879045E+03 -0.55627037517E+03  0.59556275870E+03  0.12509156075E+03 0.  0.
         23    2    1    2    0    0 -0.34026994146E+02 -0.16867879045E+03 -0.54928313907E+03  0.58265755491E+03  0.90374159742E+02 0.  0.
          5    1    3    3  502    0 -0.20983665157E+00  0.17989609768E+02 -0.26647691736E+03  0.26711624806E+03  0.41800000000E+01 0.  1.
         -5    1    3    3    0  502  0.34236830798E+02  0.15068918069E+03 -0.28979345781E+03  0.32844651063E+03  0.41800000000E+01 0.  1.
        -11    1    4    4    0    0 -0.47182780025E+02 -0.43769140813E+02 -0.24860860114E+03  0.25680379472E+03  0.00000000000E+00 0.  1.
         11    1    4    4    0    0  0.13155785879E+02 -0.12490964964E+03 -0.30067453792E+03  0.32585376019E+03  0.00000000000E+00 0. -1.
</event>
<event>
 8    1  0.6443238E-009  0.1474426E+03  0.7561462E-02  0.1203651E+00
          2   -1    0    0  501    0  0.00000000000E+00  0.00000000000E+00  0.11793872067E+04  0.11793872067E+04  0.00000000000E+00 0. -1.
         -2   -1    0    0    0  501 -0.00000000000E+00 -0.00000000000E+00 -0.39974708663E+02  0.39974708663E+02  0.00000000000E+00 0.  1.
         25    2    1    2    0    0  0.74158295239E+02  0.11616612824E+03  0.95385267394E+03  0.97184196407E+03  0.12509139635E+03 0.  0.
         23    2    1    2    0    0 -0.74158295239E+02 -0.11616612824E+03  0.18555982412E+03  0.24751995131E+03  0.88541831186E+02 0.  0.
          5    1    3    3  502    0  0.46051549037E+02  0.10075482650E+03  0.91319574615E+03  0.91990011600E+03  0.41800000000E+01 0.  1.
         -5    1    3    3    0  502  0.28106746203E+02  0.15411301738E+02  0.40656927787E+02  0.51941848066E+02  0.41800000000E+01 0.  1.
        -11    1    4    4    0    0 -0.81159207293E+02 -0.76868384187E+02  0.17244097972E+03  0.20550293648E+03  0.00000000000E+00 0. -1.
         11    1    4    4    0    0  0.70009120533E+01 -0.39297744049E+02  0.13118844394E+02  0.42017014829E+02  0.00000000000E+00 0.  1.
</event>
<event>
 8    1  0.6443238E-009  0.1539816E+03  0.7561462E-02  0.1195664E+00
          1   -1    0    0  501    0  0.00000000000E+00  0.00000000000E+00  0.79198050455E+03  0.79198050455E+03  0.00000000000E+00 0. -1.
         -1   -1    0    0    0  501 -0.00000000000E+00 -0.00000000000E+00 -0.55348588502E+02  0.55348588502E+02  0.00000000000E+00 0.  1.
         25    2    1    2    0    0  0.15028136476E+01  0.13360076339E+03  0.62366997870E+03  0.64997189151E+03  0.12509114671E+03 0.  0.
         23    2    1    2    0    0 -0.15028136476E+01 -0.13360076339E+03  0.11296193735E+03  0.19735720155E+03  0.91312886747E+02 0.  0.
          5    1    3    3  502    0 -0.49706481166E+02  0.99195780794E+02  0.49384926444E+03  0.50617695086E+03  0.41800000000E+01 0. -1.
         -5    1    3    3    0  502  0.51209294813E+02  0.34404982598E+02  0.12982071427E+03  0.14379494065E+03  0.41800000000E+01 0. -1.
        -11    1    4    4    0    0  0.92717184251E+01 -0.60796292901E+02 -0.12200319249E+01  0.61511319860E+02  0.00000000000E+00 0. -1.
         11    1    4    4    0    0 -0.10774532073E+02 -0.72804470491E+02  0.11418196927E+03  0.13584588169E+03  0.00000000000E+00 0.  1.
</event>
<event>
 8    1  0.6443238E-009  0.1831422E+03  0.7561462E-02  0.1164796E+00
          2   -1    0    0  501    0  0.00000000000E+00  0.00000000000E+00  0.48344598299E+03  0.48344598299E+03  0.00000000000E+00 0.  1.
         -2   -1    0    0    0  501 -0.00000000000E+00 -0.00000000000E+00 -0.14159025310E+03  0.14159025310E+03  0.00000000000E+00 0. -1.
         25    2    1    2    0    0 -0.58210115799E+02 -0.15359660477E+03  0.38112414792E+03  0.43345603847E+03  0.12509271195E+03 0.  0.
         23    2    1    2    0    0  0.58210115799E+02  0.15359660477E+03 -0.39268418025E+02  0.19158019763E+03  0.90446829091E+02 0.  0.
          5    1    3    3  502    0 -0.72608205475E+02 -0.14346453356E+03  0.38286278142E+03  0.41527750443E+03  0.41800000000E+01 0. -1.
         -5    1    3    3    0  502  0.14398089676E+02 -0.10132071211E+02 -0.17386335003E+01  0.18178534039E+02  0.41800000000E+01 0. -1.
        -11    1    4    4    0    0 -0.21103053167E+02  0.10121136844E+02 -0.22359203085E+01  0.23511180396E+02  0.00000000000E+00 0.  1.
         11    1    4    4    0    0  0.79313168965E+02  0.14347546792E+03 -0.37032497716E+02  0.16806901723E+03  0.00000000000E+00 0. -1.
</event>
<event>
 8    1  0.6443238E-009  0.1281577E+03  0.7561462E-02  0.1230215E+00
          1   -1    0    0  501    0  0.00000000000E+00  0.00000000000E+00  0.38892228636E+03  0.38892228636E+03  0.00000000000E+00 0. -1.
         -1   -1    0    0    0  501 -0.00000000000E+00 -0.00000000000E+00 -0.66571174744E+02  0.66571174744E+02  0.00000000000E+00 0.  1.
         25    2    1    2    0    0  0.17274497137E+02  0.11282683221E+03  0.22168787638E+03  0.27896979138E+03  0.12510126957E+03 0.  0.
         23    2    1    2    0    0 -0.17274497137E+02 -0.11282683221E+03  0.10066323523E+03  0.17652366972E+03  0.89438340362E+02 0.  0.
          5    1    3    3  502    0  0.99660687152E+01  0.25771007613E+02 -0.11271757962E+02  0.30132910357E+02  0.41800000000E+01 0.  1.
         -5    1    3    3    0  502  0.73084284213E+01  0.87055824601E+02  0.23295963434E+03  0.24883688102E+03  0.41800000000E+01 0.  1.
        -11    1    4    4    0    0  0.10230684979E+02 -0.11294016124E+03  0.96094252736E+02  0.14864135476E+03  0.00000000000E+00 0. -1.
         11    1    4    4    0    0 -0.27505182115E+02  0.11332902743E+00  0.45689824970E+01  0.27882314963E+02  0.00000000000E+00 0.  1.
</event>
<event>
 8    1  0.6443238E-009  0.1394704E+03  0.7561462E-02  0.1214043E+00
          2   -1    0    0  501    0  0.00000000000E+00  0.00000000000E+00  0.82254226817E+03  0.82254226817E+03  0.00000000000E+00 0. -1.
         -2   -1    0    0    0  501 -0.00000000000E+00 -0.00000000000E+00 -0.26437166374E+02  0.26437166374E+02  0.00000000000E+00 0.  1.
         25    2    1    2    0    0 -0.15749599799E+02 -0.96539552426E+02  0.39847792225E+03  0.42895232955E+03  0.12509001334E+03 0.  0.
         23    2    1    2    0    0  0.15749599799E+02  0.96539552426E+02  0.39762717955E+03  0.42002710499E+03  0.93527856448E+02 0.  0.
          5    1    3    3  502    0  0.25837741936E+02 -0.11137785222E+03  0.29081662884E+03  0.31251303794E+03  0.41800000000E+01 0.  1.
         -5    1    3    3    0  502 -0.41587341735E+02  0.14838299796E+02  0.10766129341E+03  0.11643929162E+03  0.41800000000E+01 0.  1.
        -11    1    4    4    0    0 -0.27907422288E+02  0.38461826821E+02  0.26091740311E+03  0.26520940328E+03  0.00000000000E+00 0. -1.
         11    1    4    4    0    0  0.43657022087E+02  0.58077725604E+02  0.13670977644E+03  0.15481770171E+03  0.00000000000E+00 0.  1.
</event>
<event>
 8    1  0.6443238E-009  0.2061948E+03  0.7561462E-02  0.1144615E+00
         -2   -1    0    0    0  501 -0.00000000000E+00  0.00000000000E+00  0.41649724015E+02  0.41649724015E+02  0.00000000000E+00 0.  1.
          2   -1    0    0  501    0  0.00000000000E+00 -0.00000000000E+00 -0.11122931185E+04  0.11122931185E+04  0.00000000000E+00 0. -1.
         25    2    1    2    0    0  0.13175574301E+03  0.13061788270E+03 -0.57165264641E+03  0.61388558118E+03  0.12509257183E+03 0.  0.
         23    2    1    2    0    0 -0.13175574301E+03 -0.13061788270E+03 -0.49899074804E+03  0.54005726131E+03  0.90826602733E+02 0.  0.
          5    1    3    3  502    0  0.90198785337E+02  0.15182873964E+03 -0.46363791995E+03  0.49615056210E+03  0.41800000000E+01 0. -1.
         -5    1    3    3    0  502  0.41556957675E+02 -0.21210856945E+02 -0.10801472646E+03  0.11773501907E+03  0.41800000000E+01 0. -1.
        -11    1    4    4    0    0 -0.38161537242E+02 -0.62150809770E+02 -0.30884968162E+03  0.31734390165E+03  0.00000000000E+00 0. -1.
         11    1    4    4    0    0 -0.93594205770E+02 -0.68467072928E+02 -0.19014106642E+03  0.22271335965E+03  0.00000000000E+00 0.  1.
</event>
<event>
 8    1  0.6443238E-009  0.1647363E+03  0.7561462E-02  0.1183451E+00
          1   -1    0    0  501    0  0.00000000000E+00  0.00000000000E+00  0.40330498383E+03  0.40330498383E+03  0.00000000000E+00 0. -1.
         -1   -1    0    0    0  501 -0.00000000000E+00 -0.00000000000E+00 -0.11115388954E+03  0.11115388954E+03  0.00000000000E+00 0.  1.
         25    2    1    2    0    0  0.13590283230E+03  0.16453824814E+01  0.30395228256E+03  0.35567682520E+03  0.12508687702E+03 0.  0.
         23    2    1    2    0    0 -0.13590283230E+03 -0.16453824814E+01 -0.11801188267E+02  0.15878204817E+03  0.81241514425E+02 0.  0.
          5    1    3    3  502    0  0.33585803398E+02 -0.53549321024E+02  0.70066645995E+02  0.94458156096E+02  0.41800000000E+01 0. -1.
         -5    1    3    3    0  502  0.10231702890E+03  0.55194703506E+02  0.23388563656E+03  0.26121866911E+03  0.41800000000E+01 0. -1.
        -11    1    4    4    0    0 -0.50266098183E+02 -0.31245775775E+02 -0.30014488083E+02  0.66361499570E+02  0.00000000000E+00 0.  1.
         11    1    4    4    0    0 -0.85636734117E+02  0.29600393294E+02  0.18213299816E+02  0.92420548601E+02  0.00000000000E+00 0. -1.
</event>
<event>
 8    1  0.6443238E-009  0.1454036E+03  0.7561462E-02  0.1206238E+00
          2   -1    0    0  501    0  0.00000000000E+00  0.00000000000E+00  0.46937377694E+03  0.46937377694E+03  0.00000000000E+00 0. -1.
         -2   -1    0    0    0  501 -0.00000000000E+00 -0.00000000000E+00 -0.54828242223E+02  0.54828242223E+02  0.00000000000E+00 0.  1.
         25    2    1    2    0    0 -0.88335810130E+02  0.74438308031E+02  0.26119774564E+03  0.31179492410E+03  0.12509010879E+03 0.  0.
         23    2    1    2    0    0  0.88335810130E+02 -0.74438308031E+02  0.15334778909E+03  0.21240709507E+03  0.90867775162E+02 0.  0.
          5    1    3    3  502    0  0.22539111563E+02 -0.49098807465E+01  0.90778783489E+01  0.25139585405E+02  0.41800000000E+01 0.  1.
         -5    1    3    3    0  502 -0.11087492169E+03  0.79348188777E+02  0.25211986729E+03  0.28665533870E+03  0.41800000000E+01 0.  1.
        -11    1    4    4    0    0  0.15628957233E+02 -0.52850298308E+02  0.11476713358E+03  0.12731423049E+03  0.00000000000E+00 0.  1.
         11    1    4    4    0    0  0.72706852896E+02 -0.21588009723E+02  0.38580655502E+02  0.85092864571E+02  0.00000000000E+00 0. -1.
</event>
<event>
 8    1  0.6443238E-009  0.1205840E+03  0.7561462E-02  0.1242137E+00
          2   -1    0    0  501    0  0.00000000000E+00  0.00000000000E+00  0.54514596384E+03  0.54514596384E+03  0.00000000000E+00 0. -1.
         -2   -1    0    0    0  501 -0.00000000000E+00 -0.00000000000E+00 -0.43342550553E+02  0.43342550553E+02  0.00000000000E+00 0.  1.
         25    2    1    2    0    0  0.10459846717E+03 -0.27821883424E+02  0.30060149528E+03  0.34310606799E+03  0.12508244639E+03 0.  0.
         23    2    1    2    0    0 -0.10459846717E+03  0.27821883424E+02  0.20120191801E+03  0.24538244641E+03  0.89528971077E+02 0.  0.
          5    1    3    3  502    0  0.36335642863E+02 -0.61042144594E+01  0.32547976239E+01  0.37223735492E+02  0.41800000000E+01 0.  1.
         -5    1    3    3    0  502  0.68262824306E+02 -0.21717668965E+02  0.29734669766E+03  0.30588233250E+03  0.41800000000E+01 0.  1.
        -11    1    4    4    0    0 -0.61262641396E+02 -0.23092780848E+02  0.58520481412E+02  0.87812496279E+02  0.00000000000E+00 0.  1.
         11    1    4    4    0    0 -0.43335825772E+02  0.50914664272E+02  0.14268143660E+03  0.15756995013E+03  0.00000000000E+00 0. -1.
</event>
<event>
 8    1  0.6443238E-009  0.1263293E+03  0.7561462E-02  0.1233006E+00
         -2   -1    0    0    0  501 -0.00000000000E+00  0.00000000000E+00  0.23226313350E+03  0.23226313350E+03  0.00000000000E+00 0.  1.
          2   -1    0    0  501    0  0.00000000000E+00 -0.00000000000E+00 -0.82023537991E+02  0.82023537991E+02  0.00000000000E+00 0. -1.
         25    2    1    2    0    0 -0.31164917623E+02  0.74709859491E+02  0.11307124607E+03  0.18704442407E+03  0.12509074583E+03 0.  0.
         23    2    1    2    0    0  0.31164917623E+02 -0.74709859491E+02  0.37168349447E+02  0.12724224743E+03  0.90864119068E+02 0.  0.
          5    1    3    3  502    0 -0.59708708168E+02  0.30420192581E+01  0.86726842574E+02  0.10542011827E+03  0.41800000000E+01 0. -1.
         -5    1    3    3    0  502  0.28543790545E+02  0.71667840233E+02  0.26344403491E+02  0.81624305802E+02  0.41800000000E+01 0. -1.
        -11    1    4    4    0    0 -0.27588741264E+02 -0.34954505830E+02  0.34361957509E+02  0.56246779874E+02  0.00000000000E+00 0.  1.
         11    1    4    4    0    0  0.58753658887E+02 -0.39755353661E+02  0.28063919384E+01  0.70995467553E+02  0.00000000000E+00 0. -1.
</event>
<event>
 8    1  0.6443238E-009  0.1358526E+03  0.7561462E-02  0.1219021E+00
         -1   -1    0    0    0  501 -0.00000000000E+00  0.00000000000E+00  0.28359392612E+02  0.28359392612E+02  0.00000000000E+00 0.  1.
          1   -1    0    0  501    0  0.00000000000E+00 -0.00000000000E+00 -0.75090199456E+03  0.75090199456E+03  0.00000000000E+00 0. -1.
         25    2    1    2    0    0 -0.94575854080E+02  0.20044667042E+02 -0.36807685058E+03  0.40059228770E+03  0.12508889711E+03 0.  0.
         23    2    1    2    0    0  0.94575854080E+02 -0.20044667042E+02 -0.35446575138E+03  0.37866909948E+03  0.91640259443E+02 0.  0.
          5    1    3    3  502    0  0.27024558765E+02 -0.20169320132E+01 -0.12380097746E+03  0.12680121928E+03  0.41800000000E+01 0.  1.
         -5    1    3    3    0  502 -0.12160041285E+03  0.22061599055E+02 -0.24427587312E+03  0.27379106842E+03  0.41800000000E+01 0.  1.
        -11    1    4    4    0    0  0.60352998532E+02 -0.47460407390E+02 -0.13908414394E+03  0.15886904606E+03  0.00000000000E+00 0.  1.
         11    1    4    4    0    0  0.34222855548E+02  0.27415740347E+02 -0.21538160744E+03  0.21980005342E+03  0.00000000000E+00 0. -1.
</event>
<event>
 8    1  0.6443238E-009  0.1720899E+03  0.7561462E-02  0.1175686E+00
         -1   -1    0    0    0  501 -0.00000000000E+00  0.00000000000E+00  0.14450016324E+04  0.14450016324E+04  0.00000000000E+00 0.  1.
          1   -1    0    0  501    0  0.00000000000E+00 -0.00000000000E+00 -0.21811542994E+02  0.21811542994E+02  0.00000000000E+00 0. -1.
         25    2    1    2    0    0 -0.13953680221E+03 -0.18429911253E+01  0.83139775906E+03  0.85225743091E+03  0.12508628615E+03 0.  0.
         23    2    1    2    0    0  0.13953680221E+03  0.18429911253E+01  0.59179233035E+03  0.61455574449E+03  0.89368255199E+02 0.  0.
          5    1    3    3  502    0 -0.75429356878E+02  0.61299017903E+02  0.44045023869E+03  0.45106656121E+03  0.41800000000E+01 0. -1.
         -5    1    3    3    0  502 -0.64107445328E+02 -0.63142009028E+02  0.39094752037E+03  0.40119086970E+03  0.41800000000E+01 0. -1.
        -11    1    4    4    0    0  0.10130295239E+03  0.33999419904E+02  0.48533219718E+03  0.49695632638E+03  0.00000000000E+00 0.  1.
         11    1    4    4    0    0  0.38233849813E+02 -0.32156428779E+02  0.10646013318E+03  0.11759941811E+03  0.00000000000E+00 0. -1.
</event>
<event>
 8    1  0.6443238E-009  0.1072490E+03  0.7561462E-02  0.1265751E+00
         -2   -1    0    0    0  501 -0.00000000000E+00  0.00000000000E+00  0.29961175145E+02  0.29961175145E+02  0.00000000000E+00 0.  1.
          2   -1    0    0  501    0  0.00000000000E+00 -0.00000000000E+00 -0.10730469847E+04  0.10730469847E+04  0.00000000000E+00 0. -1.
         25    2    1    2    0    0  0.67460289166E+02  0.35110764306E+02 -0.92707686088E+03  0.93856431717E+03  0.12509122714E+03 0.  0.
         23    2    1    2    0    0 -0.67460289166E+02 -0.35110764306E+02 -0.11600894869E+03  0.16444384269E+03  0.88317862502E+02 0.  0.
          5    1    3    3  502    0  0.36965171430E+02 -0.14264320843E+02 -0.77045242366E+03  0.77148188850E+03  0.41800000000E+01 0. -1.
         -5    1    3    3    0  502  0.30495117736E+02  0.49375085149E+02 -0.15662443722E+03  0.16708242868E+03  0.41800000000E+01 0. -1.
        -11    1    4    4    0    0 -0.83224609651E+02 -0.60904677890E+01 -0.85764793274E+02  0.11966214612E+03  0.00000000000E+00 0.  1.
         11    1    4    4    0    0  0.15764320485E+02 -0.29020296517E+02 -0.30244155415E+02  0.44781696563E+02  0.00000000000E+00 0. -1.
</event>
<event>
 8    1  0.6443238E-009  0.7372551E+02  0.7561462E-02  0.1347864E+00
         -2   -1    0    0    0  501 -0.00000000000E+00  0.00000000000E+00  0.51049932017E+02  0.51049932017E+02  0.00000000000E+00 0.  1.
          2   -1    0    0  501    0  0.00000000000E+00 -0.00000000000E+00 -0.26249192513E+03  0.26249192513E+03  0.00000000000E+00 0. -1.
         25    2    1    2    0    0 -0.40317826383E+02  0.14992702862E+02 -0.13188186880E+03  0.18679112694E+03  0.12509112487E+03 0.  0.
         23    2    1    2    0    0  0.40317826383E+02 -0.14992702862E+02 -0.79560124316E+02  0.12675073021E+03  0.88801047093E+02 0.  0.
          5    1    3    3  502    0 -0.21544543434E+02  0.50509758903E+02 -0.69692540643E+01  0.55510773715E+02  0.41800000000E+01 0. -1.
         -5    1    3    3    0  502 -0.18773282949E+02 -0.35517056041E+02 -0.12491261473E+03  0.13128035322E+03  0.41800000000E+01 0. -1.
        -11    1    4    4    0    0  0.37366346070E+02 -0.67702249907E+00  0.77987098196E+01  0.38177507160E+02  0.00000000000E+00 0.  1.
         11    1    4    4    0    0  0.29514803125E+01 -0.14315680363E+02 -0.87358834136E+02  0.88573223052E+02  0.00000000000E+00 0. -1.
</event>
<event>
 8    1  0.6443238E-009  0.1083453E+03  0.7561462E-02  0.1263665E+00
          1   -1    0    0  501    0  0.00000000000E+00  0.00000000000E+00  0.64015503561E+03  0.64015503561E+03  0.00000000000E+00 0. -1.
         -1   -1    0    0    0  501 -0.00000000000E+00 -0.00000000000E+00 -0.20488969700E+02  0.20488969700E+02  0.00000000000E+00 0.  1.
         25    2    1    2    0    0 -0.12198436097E+02 -0.23463130862E+02  0.43149298820E+03  0.45003642549E+03  0.12508902850E+03 0.  0.
         23    2    1    2    0    0  0.12198436097E+02  0.23463130862E+02  0.18817307771E+03  0.21060757982E+03  0.90813683711E+02 0.  0.
          5    1    3    3  502    0 -0.38518113516E+02  0.40483473177E+02  0.14945332571E+03  0.15961304970E+03  0.41800000000E+01 0.  1.
         -5    1    3    3    0  502  0.26319677419E+02 -0.63946604039E+02  0.28203966249E+03  0.29042337579E+03  0.41800000000E+01 0.  1.
        -11    1    4    4    0    0 -0.32424102666E+02  0.32434207985E+02  0.67224935329E+02  0.81378696299E+02  0.00000000000E+00 0.  1.
         11    1    4    4    0    0  0.44622538763E+02 -0.89710771234E+01  0.12094814238E+03  0.12922888352E+03  0.00000000000E+00 0. -1.
</event>
<event>
 8    1  0.6443238E-009  0.9543646E+02  0.7561462E-02  0.1290196E+00
          4   -1    0    0  501    0  0.00000000000E+00  0.00000000000E+00  0.13893023899E+03  0.13893023899E+03  0.00000000000E+00 0.  1.
         -4   -1    0    0    0  501 -0.00000000000E+00 -0.00000000000E+00 -0.11464352545E+03  0.11464352545E+03  0.00000000000E+00 0. -1.
         25    2    1    2    0    0  0.33680343018E+02 -0.51861613002E+01 -0.40704714268E+02  0.13589121341E+03  0.12509311070E+03 0.  0.
         23    2    1    2    0    0 -0.33680343018E+02  0.51861613002E+01  0.64991427808E+02  0.11768255103E+03  0.92000192142E+02 0.  0.
          5    1    3    3  502    0  0.67708396011E+02 -0.40979251921E+02 -0.17492034242E+02  0.81161380227E+02  0.41800000000E+01 0. -1.
         -5    1    3    3    0  502 -0.34028052993E+02  0.35793090621E+02 -0.23212680026E+02  0.54729833187E+02  0.41800000000E+01 0. -1.
        -11    1    4    4    0    0 -0.36893789993E+01  0.25543193971E+02  0.75625169278E+02  0.79907649847E+02  0.00000000000E+00 0.  1.
         11    1    4    4    0    0 -0.29990964018E+02 -0.20357032671E+02 -0.10633741471E+02  0.37774901185E+02  0.00000000000E+00 0. -1.
</event>
<event>
 8    1  0.6443238E-009  0.9284573E+02  0.7561462E-02  0.1296103E+00
         -3   -1    0    0    0  501 -0.00000000000E+00  0.00000000000E+00  0.65351965026E+02  0.65351965026E+02  0.00000000000E+00 0.  1.
          3   -1    0    0  501    0  0.00000000000E+00 -0.00000000000E+00 -0.21457637510E+03  0.21457637510E+03  0.00000000000E+00 0. -1.
         25    2    1    2    0    0  0.22928918216E+02 -0.18442271595E+02 -0.39938744974E+02  0.13456692965E+03  0.12508917832E+03 0.  0.
         23    2    1    2    0    0 -0.22928918216E+02  0.18442271595E+02 -0.10928566510E+03  0.14536141047E+03  0.91218037618E+02 0.  0.
          5    1    3    3  502    0 -0.35328507837E+00  0.47170570334E+02 -0.44080713027E+02  0.64697520639E+02  0.41800000000E+01 0.  1.
         -5    1    3    3    0  502  0.23282203294E+02 -0.65612841929E+02  0.41419680526E+01  0.69869409011E+02  0.41800000000E+01 0.  1.
        -11    1    4    4    0    0  0.71576949340E+01 -0.19146894999E+02  0.52610624049E+01  0.21107225362E+02  0.00000000000E+00 0.  1.
         11    1    4    4    0    0 -0.30086613150E+02  0.37589166594E+02 -0.11454672750E+03  0.12425418511E+03  0.00000000000E+00 0. -1.
</event>
<event>
 8    1  0.6443238E-009  0.1035236E+03  0.7561462E-02  0.1273056E+00
          2   -1    0    0  501    0  0.00000000000E+00  0.00000000000E+00  0.85794925157E+02  0.85794925157E+02  0.00000000000E+00 0. -1.
         -2   -1    0    0    0  501 -0.00000000000E+00 -0.00000000000E+00 -0.27254697171E+03  0.27254697171E+03  0.00000000000E+00 0.  1.
         25    2    1    2    0    0  0.69168945810E+01  0.11692128640E+02  0.22113121259E+02  0.12775227376E+03  0.12508838482E+03 0.  0.
         23    2    1    2    0    0 -0.69168945810E+01 -0.11692128640E+02 -0.20886516781E+03  0.23058962311E+03  0.96759323363E+02 0.  0.
          5    1    3    3  502    0 -0.46387115391E+02 -0.24298457436E+02  0.33495535498E+02  0.62302510434E+02  0.41800000000E+01 0.  1.
         -5    1    3    3    0  502  0.53304009972E+02  0.35990586076E+02 -0.11382414239E+02  0.65449763324E+02  0.41800000000E+01 0.  1.
        -11    1    4    4    0    0 -0.40961833633E+02  0.18137796161E+02 -0.59263293863E+02  0.74289901491E+02  0.00000000000E+00 0.  1.
         11    1    4    4    0    0  0.34044939052E+02 -0.29829924801E+02 -0.14960187395E+03  0.15629972162E+03  0.00000000000E+00 0. -1.
</event>
<event>
 8    1  0.6443238E-009  0.9821102E+02  0.7561462E-02  0.1284104E+00
          1   -1    0    0  501    0  0.00000000000E+00  0.00000000000E+00  0.15983231806E+03  0.15983231806E+03  0.00000000000E+00 0. -1.
         -1   -1    0    0    0  501 -0.00000000000E+00 -0.00000000000E+00 -0.11957554529E+03  0.11957554529E+03  0.00000000000E+00 0.  1.
         25    2    1    2    0    0 -0.70590117959E+02  0.43337586617E+02  0.45978431859E+02  0.15691926361E+03  0.12509407632E+03 0.  0.
         23    2    1    2    0    0  0.70590117959E+02 -0.43337586617E+02 -0.57216590920E+01  0.12248859974E+03  0.90053364830E+02 0.  0.
          5    1    3    3  502    0 -0.20581688084E+02  0.95015399579E+00 -0.42091487804E+02  0.47049701621E+02  0.41800000000E+01 0.  1.
         -5    1    3    3    0  502 -0.50008429875E+02  0.42387432621E+02  0.88069919664E+02  0.10986956199E+03  0.41800000000E+01 0.  1.
        -11    1    4    4    0    0  0.79797588728E+02 -0.16700527905E+02  0.20423156990E+02  0.84045631300E+02  0.00000000000E+00 0. -1.
         11    1    4    4    0    0 -0.92074707691E+01 -0.26637058712E+02 -0.26144816082E+02  0.38442968444E+02  0.00000000000E+00 0.  1.
</event>
<event>
 8    1  0.6443238E-009  0.1170079E+03  0.7561462E-02  0.1248116E+00
         -3   -1    0    0    0  501 -0.00000000000E+00  0.00000000000E+00  0.79271610613E+03  0.79271610613E+03  0.00000000000E+00 0.  1.
          3   -1    0    0  501    0  0.00000000000E+00 -0.00000000000E+00 -0.26218664535E+02  0.26218664535E+02  0.00000000000E+00 0. -1.
         25    2    1    2    0    0 -0.47632965644E+02  0.58094721516E+02  0.47483507358E+03  0.49674864952E+03  0.12508787959E+03 0.  0.
         23    2    1    2    0    0  0.47632965644E+02 -0.58094721516E+02  0.29166236801E+03  0.32218612114E+03  0.11442492585E+03 0.  0.
          5    1    3    3  502    0  0.24492252885E+02 -0.21767558849E+02  0.17666542771E+03  0.17972713434E+03  0.41800000000E+01 0. -1.
         -5    1    3    3    0  502 -0.72125218529E+02  0.79862280365E+02  0.29816964586E+03  0.31702151518E+03  0.41800000000E+01 0. -1.
        -11    1    4    4    0    0  0.39546613216E+01 -0.48385534818E+02  0.30752846983E+02  0.57467703307E+02  0.00000000000E+00 0. -1.
         11    1    4    4    0    0  0.43678304323E+02 -0.97091866985E+01  0.26090952103E+03  0.26471841783E+03  0.00000000000E+00 0.  1.
</event>
<event>
 8    1  0.6443238E-009  0.6584977E+02  0.7561462E-02  0.1374803E+00
         -2   -1    0    0    0  501 -0.00000000000E+00  0.00000000000E+00  0.37292319400E+02  0.37292319400E+02  0.00000000000E+00 0.  1.
          2   -1    0    0  501    0  0.00000000000E+00 -0.00000000000E+00 -0.51498065919E+03  0.51498065919E+03  0.00000000000E+00 0. -1.
         25    2    1    2    0    0 -0.29222324495E+01  0.13814466647E+02 -0.43067150219E+03  0.44869071775E+03  0.12508412555E+03 0.  0.
         23    2    1    2    0    0  0.29222324495E+01 -0.13814466647E+02 -0.47016837597E+02  0.10358226084E+03  0.91210321848E+02 0.  0.
          5    1    3    3  502    0 -0.13086723555E+02  0.46358618750E+02 -0.39915585726E+03  0.40207369306E+03  0.41800000000E+01 0. -1.
         -5    1    3    3    0  502  0.10164491106E+02 -0.32544152103E+02 -0.31515644929E+02  0.46617024689E+02  0.41800000000E+01 0. -1.
        -11    1    4    4    0    0 -0.90461262994E+01 -0.28588052887E+02 -0.68571104227E+02  0.74840533829E+02  0.00000000000E+00 0. -1.
         11    1    4    4    0    0  0.11968358749E+02  0.14773586240E+02  0.21554266630E+02  0.28741727009E+02  0.00000000000E+00 0.  1.
</event>
<event>
 8    1  0.6443238E-009  0.2791196E+03  0.7561462E-02  0.1096171E+00
         -1   -1    0    0    0  501 -0.00000000000E+00  0.00000000000E+00  0.63747780151E+03  0.63747780151E+03  0.00000000000E+00 0.  1.
          1   -1    0    0  501    0  0.00000000000E+00 -0.00000000000E+00 -0.14051550497E+03  0.14051550497E+03  0.00000000000E+00 0. -1.
         25    2    1    2    0    0 -0.27102298586E+03  0.16398750892E+02  0.33638012518E+03  0.45002380755E+03  0.12508981115E+03 0.  0.
         23    2    1    2    0    0  0.27102298586E+03 -0.16398750892E+02  0.16058217136E+03  0.32796949893E+03  0.89749543598E+02 0.  0.
          5    1    3    3  502    0 -0.13906268793E+02 -0.31027132050E+01  0.97090671585E+02  0.98219560424E+02  0.41800000000E+01 0. -1.
         -5    1    3    3    0  502 -0.25711671707E+03  0.19501464097E+02  0.23928945359E+03  0.35180424713E+03  0.41800000000E+01 0. -1.
        -11    1    4    4    0    0  0.11665885996E+03  0.36643268120E+02  0.59552515612E+02  0.13600926741E+03  0.00000000000E+00 0. -1.
         11    1    4    4    0    0  0.15436412590E+03 -0.53042019012E+02  0.10102965575E+03  0.19196023152E+03  0.00000000000E+00 0.  1.
</event>
<event>
 8    1  0.6443238E-009  0.1372858E+03  0.7561462E-02  0.1217029E+00
         -2   -1    0    0    0  501 -0.00000000000E+00  0.00000000000E+00  0.62741576650E+03  0.62741576650E+03  0.00000000000E+00 0.  1.
          2   -1    0    0  501    0  0.00000000000E+00 -0.00000000000E+00 -0.41411389096E+02  0.41411389096E+02  0.00000000000E+00 0. -1.
         25    2    1    2    0    0  0.67709733270E+01  0.12037428404E+03  0.30929682551E+03  0.35474910418E+03  0.12508631543E+03 0.  0.
         23    2    1    2    0    0 -0.67709733270E+01 -0.12037428404E+03  0.27670755189E+03  0.31407805141E+03  0.86845487889E+02 0.  0.
          5    1    3    3  502    0 -0.42109611531E+02  0.78474964490E+02  0.92151063332E+02  0.12822180122E+03  0.41800000000E+01 0. -1.
         -5    1    3    3    0  502  0.48880584858E+02  0.41899319553E+02  0.21714576218E+03  0.22652730296E+03  0.41800000000E+01 0. -1.
        -11    1    4    4    0    0 -0.55098185771E+01 -0.29209295194E+02  0.17491998371E+03  0.17742756755E+03  0.00000000000E+00 0.  1.
         11    1    4    4    0    0 -0.12611547499E+01 -0.91164988848E+02  0.10178756818E+03  0.13665048386E+03  0.00000000000E+00 0. -1.
</event>
<event>
 8    1  0.6443238E-009  0.1903308E+03  0.7561462E-02  0.1158163E+00
         -2   -1    0    0    0  501 -0.00000000000E+00  0.00000000000E+00  0.64700258625E+02  0.64700258625E+02  0.00000000000E+00 0. -1.
          2   -1    0    0  501    0  0.00000000000E+00 -0.00000000000E+00 -0.66926955325E+03  0.66926955325E+03  0.00000000000E+00 0.  1.
         25    2    1    2    0    0  0.89467484094E+02 -0.15209544068E+03 -0.32009412051E+03  0.38632332758E+03  0.12509202076E+03 0.  0.
         23    2    1    2    0    0 -0.89467484094E+02  0.15209544068E+03 -0.28447517411E+03  0.34764648430E+03  0.93778993233E+02 0.  0.
          5    1    3    3  502    0  0.18143062122E+02 -0.18605411868E+01  0.64939963138E+01  0.19805976492E+02  0.41800000000E+01 0. -1.
         -5    1    3    3    0  502  0.71324421972E+02 -0.15023489949E+03 -0.32658811683E+03  0.36651735109E+03  0.41800000000E+01 0. -1.
        -11    1    4    4    0    0 -0.69179789836E+02  0.36477832269E+02 -0.14986078280E+03  0.16904061580E+03  0.00000000000E+00 0.  1.
         11    1    4    4    0    0 -0.20287694258E+02  0.11561760841E+03 -0.13461439131E+03  0.17860586850E+03  0.00000000000E+00 0. -1.
</event>
<event>
 8    1  0.6443238E-009  0.1406557E+03  0.7561462E-02  0.1212449E+00
          1   -1    0    0  501    0  0.00000000000E+00  0.00000000000E+00  0.50695728687E+03  0.50695728687E+03  0.00000000000E+00 0. -1.
         -1   -1    0    0    0  501 -0.00000000000E+00 -0.00000000000E+00 -0.54850539965E+02  0.54850539965E+02  0.00000000000E+00 0.  1.
         25    2    1    2    0    0  0.10127713199E+03 -0.54995302499E+02  0.15228747054E+03  0.22830002318E+03  0.12509151106E+03 0.  0.
         23    2    1    2    0    0 -0.10127713199E+03  0.54995302499E+02  0.29981927637E+03  0.33350780366E+03  0.89745840340E+02 0.  0.
          5    1    3    3  502    0 -0.22665405571E+02 -0.15053097641E+01  0.61157218059E+02  0.65373268909E+02  0.41800000000E+01 0.  1.
         -5    1    3    3    0  502  0.12394253756E+03 -0.53489992734E+02  0.91130252486E+02  0.16292675427E+03  0.41800000000E+01 0.  1.
        -11    1    4    4    0    0 -0.63323569715E+02  0.56933599741E+02  0.27557057366E+03  0.28842754779E+03  0.00000000000E+00 0. -1.
         11    1    4    4    0    0 -0.37953562276E+02 -0.19382972427E+01  0.24248702710E+02  0.45080255864E+02  0.00000000000E+00 0.  1.
</event>
<event>
 8    1  0.6443238E-009  0.1222743E+03  0.7561462E-02  0.1239392E+00
         -2   -1    0    0    0  501 -0.00000000000E+00  0.00000000000E+00  0.12941681002E+03  0.12941681002E+03  0.00000000000E+00 0.  1.
          2   -1    0    0  501    0  0.00000000000E+00 -0.00000000000E+00 -0.14520291301E+03  0.14520291301E+03  0.00000000000E+00 0. -1.
         25    2    1    2    0    0 -0.39436938407E+02  0.48907503978E+02  0.47906365075E+02  0.14795697423E+03  0.12509608448E+03 0.  0.
         23    2    1    2    0    0  0.39436938407E+02 -0.48907503978E+02 -0.63692468065E+02  0.12666274881E+03  0.89663288984E+02 0.  0.
          5    1    3    3  502    0 -0.84859183616E+01  0.86539669008E+02  0.13343078994E+02  0.88071762101E+02  0.41800000000E+01 0. -1.
         -5    1    3    3    0  502 -0.30951020045E+02 -0.37632165030E+02  0.34563286080E+02  0.59885212126E+02  0.41800000000E+01 0. -1.
        -11    1    4    4    0    0 -0.85836165914E+01  0.21622409755E+02 -0.72857554704E+01  0.24378049761E+02  0.00000000000E+00 0.  1.
         11    1    4    4    0    0  0.48020554998E+02 -0.70529913733E+02 -0.56406712594E+02  0.10228469905E+03  0.00000000000E+00 0. -1.
</event>
<event>
 8    1  0.6443238E-009  0.9380910E+02  0.7561462E-02  0.1293881E+00
         -2   -1    0    0    0  501 -0.00000000000E+00  0.00000000000E+00  0.66313722478E+02  0.66313722478E+02  0.00000000000E+00 0.  1.
          2   -1    0    0  501    0  0.00000000000E+00 -0.00000000000E+00 -0.32130682564E+03  0.32130682564E+03  0.00000000000E+00 0. -1.
         25    2    1    2    0    0  0.70140433384E+02  0.46488012259E+02 -0.51502293956E+02  0.15934104526E+03  0.12512500446E+03 0.  0.
         23    2    1    2    0    0 -0.70140433384E+02 -0.46488012259E+02 -0.20349080921E+03  0.22827950286E+03  0.60184768140E+02 0.  0.
          5    1    3    3  502    0  0.56777406416E+02  0.41830291412E+02  0.29826346936E+02  0.76684617300E+02  0.41800000000E+01 0. -1.
         -5    1    3    3    0  502  0.13363026968E+02  0.46577208473E+01 -0.81328640892E+02  0.82656427957E+02  0.41800000000E+01 0. -1.
        -11    1    4    4    0    0 -0.32513021297E+02 -0.54764747616E+02 -0.14328189853E+03  0.15679916002E+03  0.00000000000E+00 0. -1.
         11    1    4    4    0    0 -0.37627412087E+02  0.82767353566E+01 -0.60208910678E+02  0.71480342847E+02  0.00000000000E+00 0.  1.
</event>
<event>
 8    1  0.6443238E-009  0.1317208E+03  0.7561462E-02  0.1224925E+00
         -2   -1    0    0    0  501 -0.00000000000E+00  0.00000000000E+00  0.31458068935E+02  0.31458068935E+02  0.00000000000E+00 0.  1.
          2   -1    0    0  501    0  0.00000000000E+00 -0.00000000000E+00 -0.89620077384E+03  0.89620077384E+03  0.00000000000E+00 0. -1.
         25    2    1    2    0    0  0.11788928945E+03 -0.54564092608E+02 -0.53323785929E+03  0.56290678709E+03  0.12508521737E+03 0.  0.
         23    2    1    2    0    0 -0.11788928945E+03  0.54564092608E+02 -0.33150484561E+03  0.36475205568E+03  0.79205269339E+02 0.  0.
          5    1    3    3  502    0  0.47826710692E+02 -0.97037588368E+01 -0.41599203630E+02  0.64261367351E+02  0.41800000000E+01 0.  1.
         -5    1    3    3    0  502  0.70062578755E+02 -0.44860333772E+02 -0.49163865566E+03  0.49864541974E+03  0.41800000000E+01 0.  1.
        -11    1    4    4    0    0 -0.92183560061E+02  0.34036119031E+02 -0.14368882727E+03  0.17407683713E+03  0.00000000000E+00 0.  1.
         11    1    4    4    0    0 -0.25705729386E+02  0.20527973578E+02 -0.18781601834E+03  0.19067521855E+03  0.00000000000E+00 0. -1.
</event>
<event>
 8    1  0.6443238E-009  0.1125695E+03  0.7561462E-02  0.1255884E+00
          3   -1    0    0  501    0  0.00000000000E+00  0.00000000000E+00  0.35011799575E+02  0.35011799575E+02  0.00000000000E+00 0. -1.
         -3   -1    0    0    0  501 -0.00000000000E+00 -0.00000000000E+00 -0.43217673382E+03  0.43217673382E+03  0.00000000000E+00 0.  1.
         25    2    1    2    0    0  0.51602487650E+02 -0.22488964631E+01 -0.17164692579E+03  0.21858074197E+03  0.12508796649E+03 0.  0.
         23    2    1    2    0    0 -0.51602487650E+02  0.22488964631E+01 -0.22551800845E+03  0.24860779142E+03  0.90992238958E+02 0.  0.
          5    1    3    3  502    0 -0.17195721128E+02  0.44066257530E+02 -0.36227263027E+02  0.59727839943E+02  0.41800000000E+01 0. -1.
         -5    1    3    3    0  502  0.68798208778E+02 -0.46315153993E+02 -0.13541966276E+03  0.15885290203E+03  0.41800000000E+01 0. -1.
        -11    1    4    4    0    0 -0.48367206038E+02  0.36258106420E+02 -0.86997685270E+02  0.10593693475E+03  0.00000000000E+00 0. -1.
         11    1    4    4    0    0 -0.32352816116E+01 -0.34009209957E+02 -0.13852032318E+03  0.14267085667E+03  0.00000000000E+00 0.  1.
</event>
<event>
 8    1  0.6443238E-009  0.1511473E+03  0.7561462E-02  0.1199070E+00
         -1   -1    0    0    0  501 -0.00000000000E+00  0.00000000000E+00  0.15442528479E+03  0.15442528479E+03  0.00000000000E+00 0.  1.
          1   -1    0    0  501    0  0.00000000000E+00 -0.00000000000E+00 -0.17668846703E+03  0.17668846703E+03  0.00000000000E+00 0. -1.
         25    2    1    2    0    0 -0.89919164294E+01  0.11225212576E+03 -0.63099370188E+02  0.17975135537E+03  0.12509046703E+03 0.  0.
         23    2    1    2    0    0  0.89919164294E+01 -0.11225212576E+03  0.40836187951E+02  0.15136239646E+03  0.92528841541E+02 0.  0.
          5    1    3    3  502    0 -0.59102246872E+02  0.19268542922E+02 -0.18257437864E+02  0.64924254089E+02  0.41800000000E+01 0. -1.
         -5    1    3    3    0  502  0.50110330442E+02  0.92983582835E+02 -0.44841932323E+02  0.11482710128E+03  0.41800000000E+01 0. -1.
        -11    1    4    4    0    0 -0.27786740718E+02 -0.82251713359E+02 -0.28358690728E+01  0.86864776886E+02  0.00000000000E+00 0.  1.
         11    1    4    4    0    0  0.36778657147E+02 -0.30000412398E+02  0.43672057024E+02  0.64497619571E+02  0.00000000000E+00 0. -1.
</event>
<event>
 8    1  0.6443238E-009  0.7554500E+02  0.7561462E-02  0.1342192E+00
          2   -1    0    0  501    0  0.00000000000E+00  0.00000000000E+00  0.73853407995E+03  0.73853407995E+03  0.00000000000E+00 0. -1.
         -2   -1    0    0    0  501 -0.00000000000E+00 -0.00000000000E+00 -0.18812381059E+02  0.18812381059E+02  0.00000000000E+00 0.  1.
         25    2    1    2    0    0 -0.35531516499E+02 -0.22340572989E+02  0.42472510832E+03  0.44474910671E+03  0.12509500555E+03 0.  0.
         23    2    1    2    0    0  0.35531516499E+02  0.22340572989E+02  0.29499659057E+03  0.31259735430E+03  0.94512050030E+02 0.  0.
          5    1    3    3  502    0 -0.32356944980E+02 -0.75764359956E+01  0.42752202106E+03  0.42883204774E+03  0.41800000000E+01 0. -1.
         -5    1    3    3    0  502 -0.31745715185E+01 -0.14764136994E+02 -0.27969127422E+01  0.15917058974E+02  0.41800000000E+01 0. -1.
        -11    1    4    4    0    0  0.40513417724E+02 -0.29330366308E+02  0.11844024606E+03  0.12856787814E+03  0.00000000000E+00 0.  1.
         11    1    4    4    0    0 -0.49819012248E+01  0.51670939297E+02  0.17655634452E+03  0.18402947616E+03  0.00000000000E+00 0. -1.
</event>
<event>
 8    1  0.6443238E-009  0.1217351E+03  0.7561462E-02  0.1240262E+00
         -1   -1    0    0    0  501 -0.00000000000E+00  0.00000000000E+00  0.32458924650E+02  0.32458924650E+02  0.00000000000E+00 0.  1.
          1   -1    0    0  501    0  0.00000000000E+00 -0.00000000000E+00 -0.51338745584E+03  0.51338745584E+03  0.00000000000E+00 0. -1.
         25    2    1    2    0    0  0.69314285214E+02 -0.26825785854E+00 -0.25344428486E+03  0.29100640276E+03  0.12508468661E+03 0.  0.
         23    2    1    2    0    0 -0.69314285214E+02  0.26825785854E+00 -0.22748424633E+03  0.25483997772E+03  0.91595795872E+02 0.  0.
          5    1    3    3  502    0  0.76096761718E+02  0.46054263793E+02 -0.20501599476E+03  0.22351899889E+03  0.41800000000E+01 0.  1.
         -5    1    3    3    0  502 -0.67824765040E+01 -0.46322521652E+02 -0.48428290100E+02  0.67487403874E+02  0.41800000000E+01 0.  1.
        -11    1    4    4    0    0 -0.10759644304E+02  0.36843535759E+02 -0.12884304619E+03  0.13443863517E+03  0.00000000000E+00 0. -1.
         11    1    4    4    0    0 -0.58554640910E+02 -0.36575277901E+02 -0.98641200134E+02  0.12040134256E+03  0.00000000000E+00 0.  1.
</event>
<event>
 8    1  0.6443238E-009  0.2617571E+03  0.7561462E-02  0.1106092E+00
         -2   -1    0    0    0  501 -0.00000000000E+00  0.00000000000E+00  0.43245407169E+02  0.43245407169E+02  0.00000000000E+00 0.  1.
          2   -1    0    0  501    0  0.00000000000E+00 -0.00000000000E+00 -0.17925648848E+04  0.17925648848E+04  0.00000000000E+00 0. -1.
         25    2    1    2    0    0  0.11265354646E+03  0.21103629805E+03 -0.59335062217E+03  0.65187319761E+03  0.12508622750E+03 0.  0.
         23    2    1    2    0    0 -0.11265354646E+03 -0.21103629805E+03 -0.11559688555E+04  0.11839370944E+04  0.90641645987E+02 0.  0.
          5    1    3    3  502    0  0.13849714244E+03  0.17907519859E+03 -0.46810877944E+03  0.51999296823E+03  0.41800000000E+01 0. -1.
         -5    1    3    3    0  502 -0.25843595986E+02  0.31961099455E+02 -0.12524184273E+03  0.13188022939E+03  0.41800000000E+01 0. -1.
        -11    1    4    4    0    0 -0.50171545692E+01 -0.10352198440E+03 -0.45811992571E+03  0.46969760424E+03  0.00000000000E+00 0.  1.
         11    1    4    4    0    0 -0.10763639189E+03 -0.10751431364E+03 -0.69784892978E+03  0.71423949015E+03  0.00000000000E+00 0. -1.
</event>
<event>
 8    1  0.6443238E-009  0.1694519E+03  0.7561462E-02  0.1178421E+00
          1   -1    0    0  501    0  0.00000000000E+00  0.00000000000E+00  0.37328185335E+03  0.37328185335E+03  0.00000000000E+00 0. -1.
         -1   -1    0    0    0  501 -0.00000000000E+00 -0.00000000000E+00 -0.82697857155E+02  0.82697857155E+02  0.00000000000E+00 0.  1.
         25    2    1    2    0    0 -0.63222882915E+02 -0.12277785473E+03  0.14909901234E+03  0.23864020717E+03  0.12508836260E+03 0.  0.
         23    2    1    2    0    0  0.63222882915E+02  0.12277785473E+03  0.14148498385E+03  0.21733950333E+03  0.90260315302E+02 0.  0.
          5    1    3    3  502    0 -0.62789549650E+02 -0.14569237270E+03  0.14503507364E+03  0.21499172076E+03  0.41800000000E+01 0. -1.
         -5    1    3    3    0  502 -0.43333326439E+00  0.22914517971E+02  0.40639387022E+01  0.23648486407E+02  0.41800000000E+01 0. -1.
        -11    1    4    4    0    0  0.42080354995E+02  0.12832409777E+03  0.14133302802E+03  0.19548108644E+03  0.00000000000E+00 0. -1.
         11    1    4    4    0    0  0.21142527920E+02 -0.55462430354E+01  0.15195582363E+00  0.21858416896E+02  0.00000000000E+00 0.  1.
</event>
<event>
 8    1  0.6443238E-009  0.1178077E+03  0.7561462E-02  0.1246758E+00
          1   -1    0    0  501    0  0.00000000000E+00  0.00000000000E+00  0.40299876300E+03  0.40299876300E+03  0.00000000000E+00 0. -1.
         -1   -1    0    0    0  501 -0.00000000000E+00 -0.00000000000E+00 -0.57540304705E+02  0.57540304705E+02  0.00000000000E+00 0.  1.
         25    2    1    2    0    0 -0.34622613752E+02  0.70069433640E+02  0.80090590028E+02  0.16784122234E+03  0.12509085655E+03 0.  0.
         23    2    1    2    0    0  0.34622613752E+02 -0.70069433640E+02  0.26536786827E+03  0.29269784536E+03  0.95621505200E+02 0.  0.
          5    1    3    3  502    0 -0.60322179080E+02  0.58481959973E+02  0.10176803343E+03  0.13203450291E+03  0.41800000000E+01 0. -1.
         -5    1    3    3    0  502  0.25699565327E+02  0.11587473667E+02 -0.21677443402E+02  0.35806719432E+02  0.41800000000E+01 0. -1.
        -11    1    4    4    0    0  0.58938542043E+02 -0.12149286445E+02  0.11665822163E+03  0.13126498990E+03  0.00000000000E+00 0.  1.
         11    1    4    4    0    0 -0.24315928291E+02 -0.57920147195E+02  0.14870964664E+03  0.16143285547E+03  0.00000000000E+00 0. -1.
</event>
<event>
 8    1  0.6443238E-009  0.9441539E+02  0.7561462E-02  0.1292498E+00
          2   -1    0    0  501    0  0.00000000000E+00  0.00000000000E+00  0.15945989232E+03  0.15945989232E+03  0.00000000000E+00 0. -1.
         -2   -1    0    0    0  501 -0.00000000000E+00 -0.00000000000E+00 -0.11413839622E+03  0.11413839622E+03  0.00000000000E+00 0.  1.
         25    2    1    2    0    0  0.85564934974E+01  0.75992912309E+01 -0.56332593350E+02  0.13766946324E+03  0.12509419342E+03 0.  0.
         23    2    1    2    0    0 -0.85564934974E+01 -0.75992912309E+01  0.10165408945E+03  0.13592882530E+03  0.89510495681E+02 0.  0.
          5    1    3    3  502    0  0.19461700892E+02  0.63328662517E+02 -0.17189302122E+02  0.68572748269E+02  0.41800000000E+01 0. -1.
         -5    1    3    3    0  502 -0.10905207394E+02 -0.55729371286E+02 -0.39143291228E+02  0.69096714975E+02  0.41800000000E+01 0. -1.
        -11    1    4    4    0    0 -0.36804890840E+02 -0.36781989138E+01  0.77525426367E+01  0.37791944305E+02  0.00000000000E+00 0.  1.
         11    1    4    4    0    0  0.28248397342E+02 -0.39210923171E+01  0.93901546813E+02  0.98136880994E+02  0.00000000000E+00 0. -1.
</event>
<event>
 8    1  0.6443238E-009  0.1099908E+03  0.7561462E-02  0.1260587E+00
          3   -1    0    0  501    0  0.00000000000E+00  0.00000000000E+00  0.12563372827E+03  0.12563372827E+03  0.00000000000E+00 0. -1.
         -3   -1    0    0    0  501 -0.00000000000E+00 -0.00000000000E+00 -0.11262319614E+03  0.11262319614E+03  0.00000000000E+00 0.  1.
         25    2    1    2    0    0 -0.34427182179E+02  0.15613211008E+01 -0.26666454902E+02  0.13246619170E+03  0.12509405873E+03 0.  0.
         23    2    1    2    0    0  0.34427182179E+02 -0.15613211008E+01  0.39676987028E+02  0.10579073271E+03  0.91813654929E+02 0.  0.
          5    1    3    3  502    0 -0.80910301396E+02 -0.94367817488E+01 -0.20665205881E+02  0.84143049956E+02  0.41800000000E+01 0. -1.
         -5    1    3    3    0  502  0.46483119217E+02  0.10998102850E+02 -0.60012490211E+01  0.48323141746E+02  0.41800000000E+01 0. -1.
        -11    1    4    4    0    0  0.55493427738E+02  0.21243702050E+02  0.44679457797E+02  0.74344262374E+02  0.00000000000E+00 0. -1.
         11    1    4    4    0    0 -0.21066245559E+02 -0.22805023150E+02 -0.50024707689E+01  0.31446470337E+02  0.00000000000E+00 0.  1.
</event>
<event>
 8    1  0.6443238E-009  0.1010765E+03  0.7561462E-02  0.1278048E+00
         -1   -1    0    0    0  501 -0.00000000000E+00  0.00000000000E+00  0.27211167675E+02  0.27211167675E+02  0.00000000000E+00 0.  1.
          1   -1    0    0  501    0  0.00000000000E+00 -0.00000000000E+00 -0.60742697080E+03  0.60742697080E+03  0.00000000000E+00 0. -1.
         25    2    1    2    0    0 -0.42037407521E+02 -0.43629792091E+02 -0.23906696291E+03  0.27653459591E+03  0.12509063752E+03 0.  0.
         23    2    1    2    0    0  0.42037407521E+02  0.43629792091E+02 -0.34114884022E+03  0.35810354257E+03  0.90470512459E+02 0.  0.
          5    1    3    3  502    0  0.36138282138E+02 -0.16633735499E+02 -0.14859574344E+03  0.15388574970E+03  0.41800000000E+01 0. -1.
         -5    1    3    3    0  502 -0.78175689660E+02 -0.26996056592E+02 -0.90471219466E+02  0.12264884621E+03  0.41800000000E+01 0. -1.
        -11    1    4    4    0    0 -0.10650932138E+02 -0.42658857922E+00 -0.57647989837E+00  0.10675048585E+02  0.00000000000E+00 0.  1.
         11    1    4    4    0    0  0.52688339659E+02  0.44056380670E+02 -0.34057236032E+03  0.34742849398E+03  0.00000000000E+00 0. -1.
</event>
<event>
 8    1  0.6443238E-009  0.1137532E+03  0.7561462E-02  0.1253773E+00
          2   -1    0    0  501    0  0.00000000000E+00  0.00000000000E+00  0.43684422026E+02  0.43684422026E+02  0.00000000000E+00 0.  1.
         -2   -1    0    0    0  501 -0.00000000000E+00 -0.00000000000E+00 -0.37171280154E+03  0.37171280154E+03  0.00000000000E+00 0. -1.
         25    2    1    2    0    0  0.34579787479E+02  0.49835416722E+02 -0.15503664476E+03  0.20823669633E+03  0.12508728959E+03 0.  0.
         23    2    1    2    0    0 -0.34579787479E+02 -0.49835416722E+02 -0.17299173476E+03  0.20716052724E+03  0.96488410133E+02 0.  0.
          5    1    3    3  502    0  0.78375673015E+02  0.26429245078E+02 -0.64807535418E+02  0.10516054471E+03  0.41800000000E+01 0. -1.
         -5    1    3    3    0  502 -0.43795885536E+02  0.23406171644E+02 -0.90229109344E+02  0.10307615163E+03  0.41800000000E+01 0. -1.
        -11    1    4    4    0    0 -0.25553747453E+02  0.14841818994E+02 -0.11843530267E+03  0.12206635294E+03  0.00000000000E+00 0. -1.
         11    1    4    4    0    0 -0.90260400259E+01 -0.64677235716E+02 -0.54556432081E+02  0.85094174300E+02  0.00000000000E+00 0.  1.
</event>
<event>
 8    1  0.6443238E-009  0.1156611E+03  0.7561462E-02  0.1250431E+00
          2   -1    0    0  501    0  0.00000000000E+00  0.00000000000E+00  0.52020874351E+02  0.52020874351E+02  0.00000000000E+00 0. -1.
         -2   -1    0    0    0  501 -0.00000000000E+00 -0.00000000000E+00 -0.28651755579E+03  0.28651755579E+03  0.00000000000E+00 0.  1.
         25    2    1    2    0    0  0.46184036594E+02  0.49406269584E+01 -0.98887873775E+02  0.16608229583E+03  0.12508853815E+03 0.  0.
         23    2    1    2    0    0 -0.46184036594E+02 -0.49406269584E+01 -0.13560880767E+03  0.17245613432E+03  0.95885319606E+02 0.  0.
          5    1    3    3  502    0 -0.10302156250E+02  0.55996969464E+02 -0.39362629805E+02  0.69344675626E+02  0.41800000000E+01 0. -1.
         -5    1    3    3    0  502  0.56486192845E+02 -0.51056342506E+02 -0.59525243969E+02  0.96737620199E+02  0.41800000000E+01 0. -1.
        -11    1    4    4    0    0 -0.72018010540E+02 -0.35943152244E+01 -0.64346080821E+02  0.96643318760E+02  0.00000000000E+00 0. -1.
         11    1    4    4    0    0  0.25833973945E+02 -0.13463117340E+01 -0.71262726845E+02  0.75812815556E+02  0.00000000000E+00 0.  1.
</event>
<event>
 8    1  0.6443238E-009  0.1440383E+03  0.7561462E-02  0.1207996E+00
          2   -1    0    0  501    0  0.00000000000E+00  0.00000000000E+00  0.11335411216E+03  0.11335411216E+03  0.00000000000E+00 0. -1.
         -2   -1    0    0    0  501 -0.00000000000E+00 -0.00000000000E+00 -0.33058506283E+03  0.33058506283E+03  0.00000000000E+00 0.  1.
         25    2    1    2    0    0 -0.15063149009E+02  0.11555798627E+03 -0.24466351283E+03  0.29847832584E+03  0.12509408395E+03 0.  0.
         23    2    1    2    0    0  0.15063149009E+02 -0.11555798627E+03  0.27432562159E+02  0.14546084914E+03  0.82618197257E+02 0.  0.
          5    1    3    3  502    0  0.36822020102E+02  0.10492457686E+03 -0.20084600491E+03  0.22961188576E+03  0.41800000000E+01 0. -1.
         -5    1    3    3    0  502 -0.51885169111E+02  0.10633409408E+02 -0.43817507919E+02  0.68866440082E+02  0.41800000000E+01 0. -1.
        -11    1    4    4    0    0  0.26887607766E+02 -0.47394267152E+02 -0.23712952254E+02  0.59426123168E+02  0.00000000000E+00 0.  1.
         11    1    4    4    0    0 -0.11824458757E+02 -0.68163719116E+02  0.51145514414E+02  0.86034725973E+02  0.00000000000E+00 0. -1.
</event>
<event>
 8    1  0.6443238E-009  0.8786863E+02  0.7561462E-02  0.1308097E+00
         -2   -1    0    0    0  501 -0.00000000000E+00  0.00000000000E+00  0.37523311046E+03  0.37523311046E+03  0.00000000000E+00 0. -1.
          2   -1    0    0  501    0  0.00000000000E+00 -0.00000000000E+00 -0.43827923793E+02  0.43827923793E+02  0.00000000000E+00 0.  1.
         25    2    1    2    0    0 -0.28586691542E+01 -0.13202859691E+02  0.28853169035E+03  0.31476973434E+03  0.12508781645E+03 0.  0.
         23    2    1    2    0    0  0.28586691542E+01  0.13202859691E+02  0.42873496314E+02  0.10429129992E+03  0.94106594129E+02 0.  0.
          5    1    3    3  502    0 -0.41496313522E+02 -0.18368521654E+02  0.33043756786E+02  0.56291286059E+02  0.41800000000E+01 0. -1.
         -5    1    3    3    0  502  0.38637644368E+02  0.51656619629E+01  0.25548793357E+03  0.25847844828E+03  0.41800000000E+01 0. -1.
        -11    1    4    4    0    0 -0.42406832007E+02 -0.38677721882E+01  0.50466441898E+01  0.42880854471E+02  0.00000000000E+00 0.  1.
         11    1    4    4    0    0  0.45265501161E+02  0.17070631879E+02  0.37826852124E+02  0.61410445445E+02  0.00000000000E+00 0. -1.
</event>
<event>
 8    1  0.6443238E-009  0.1360064E+03  0.7561462E-02  0.1218806E+00
         -2   -1    0    0    0  501 -0.00000000000E+00  0.00000000000E+00  0.37931876404E+03  0.37931876404E+03  0.00000000000E+00 0.  1.
          2   -1    0    0  501    0  0.00000000000E+00 -0.00000000000E+00 -0.72448967195E+02  0.72448967195E+02  0.00000000000E+00 0. -1.
         25    2    1    2    0    0  0.41191012614E+02 -0.79728094640E+02  0.28594887720E+03  0.32475808307E+03  0.12509110102E+03 0.  0.
         23    2    1    2    0    0 -0.41191012614E+02  0.79728094640E+02  0.20920919645E+02  0.12700964816E+03  0.87409937952E+02 0.  0.
          5    1    3    3  502    0  0.77809886746E+02 -0.26453103430E+02  0.11081879080E+03  0.13803051094E+03  0.41800000000E+01 0. -1.
         -5    1    3    3    0  502 -0.36618874132E+02 -0.53274991210E+02  0.17513008640E+03  0.18672757213E+03  0.41800000000E+01 0. -1.
        -11    1    4    4    0    0 -0.63683375287E+02  0.30067173093E+02  0.71940979663E+01  0.70790975634E+02  0.00000000000E+00 0. -1.
         11    1    4    4    0    0  0.22492362673E+02  0.49660921548E+02  0.13726821679E+02  0.56218672529E+02  0.00000000000E+00 0.  1.
</event>
<event>
 8    1  0.6443238E-009  0.1051990E+03  0.7561462E-02  0.1269728E+00
         -2   -1    0    0    0  501 -0.00000000000E+00  0.00000000000E+00  0.11056816947E+03  0.11056816947E+03  0.00000000000E+00 0.  1.
          2   -1    0    0  501    0  0.00000000000E+00 -0.00000000000E+00 -0.15060217816E+03  0.15060217816E+03  0.00000000000E+00 0. -1.
         25    2    1    2    0    0 -0.47475305240E+02  0.38987773583E+02  0.18582355201E+02  0.14058825980E+03  0.12508318741E+03 0.  0.
         23    2    1    2    0    0  0.47475305240E+02 -0.38987773583E+02 -0.58616363885E+02  0.12058208783E+03  0.85616649626E+02 0.  0.
          5    1    3    3  502    0 -0.63292649357E+01  0.78776625834E+02  0.24618542213E+02  0.82881610705E+02  0.41800000000E+01 0. -1.
         -5    1    3    3    0  502 -0.41146040304E+02 -0.39788852252E+02 -0.60361870120E+01  0.57706649096E+02  0.41800000000E+01 0. -1.
        -11    1    4    4    0    0  0.13190231809E+02 -0.37274177541E+02 -0.73269795026E+02  0.83257488490E+02  0.00000000000E+00 0. -1.
         11    1    4    4    0    0  0.34285073431E+02 -0.17135960417E+01  0.14653431140E+02  0.37324599338E+02  0.00000000000E+00 0.  1.
</event>
<event>
 8    1  0.6443238E-009  0.9651821E+02  0.7561462E-02  0.1287793E+00
          2   -1    0    0  501    0  0.00000000000E+00  0.00000000000E+00  0.87919524715E+03  0.87919524715E+03  0.00000000000E+00 0. -1.
         -2   -1    0    0    0  501 -0.00000000000E+00 -0.00000000000E+00 -0.13229997068E+02  0.13229997068E+02  0.00000000000E+00 0.  1.
         25    2    1    2    0    0  0.21972409721E+02  0.14439223689E+02  0.67912166324E+03  0.69104584984E+03  0.12508738995E+03 0.  0.
         23    2    1    2    0    0 -0.21972409721E+02 -0.14439223689E+02  0.18684358684E+03  0.20137939438E+03  0.70369429216E+02 0.  0.
          5    1    3    3  502    0  0.61340596670E+02  0.43305597769E+02  0.48714125693E+03  0.49291187873E+03  0.41800000000E+01 0.  1.
         -5    1    3    3    0  502 -0.39368186949E+02 -0.28866374079E+02  0.19198040631E+03  0.19813397110E+03  0.41800000000E+01 0.  1.
        -11    1    4    4    0    0 -0.21266667757E+02  0.23038218780E+02  0.46257111228E+02  0.55881580340E+02  0.00000000000E+00 0.  1.
         11    1    4    4    0    0 -0.70574196392E+00 -0.37477442469E+02  0.14058647561E+03  0.14549781404E+03  0.00000000000E+00 0. -1.
</event>
<event>
 8    1  0.6443238E-009  0.1166166E+03  0.7561462E-02  0.1248785E+00
         -1   -1    0    0    0  501 -0.00000000000E+00  0.00000000000E+00  0.10005708803E+04  0.10005708803E+04  0.00000000000E+00 0.  1.
          1   -1    0    0  501    0  0.00000000000E+00 -0.00000000000E+00 -0.28975324084E+02  0.28975324084E+02  0.00000000000E+00 0. -1.
         25    2    1    2    0    0 -0.59234187582E+02 -0.85046766625E+02  0.75939584119E+03  0.77657676530E+03  0.12509111599E+03 0.  0.
         23    2    1    2    0    0  0.59234187582E+02  0.85046766625E+02  0.21219971498E+03  0.25296943904E+03  0.90681732206E+02 0.  0.
          5    1    3    3  502    0  0.41528780994E+01  0.44307648388E+01  0.41618105759E+03  0.41624634914E+03  0.41800000000E+01 0.  1.
         -5    1    3    3    0  502 -0.63387065682E+02 -0.89477531464E+02  0.34321478360E+03  0.36033041616E+03  0.41800000000E+01 0.  1.
        -11    1    4    4    0    0 -0.17361420925E+01  0.40693330326E+02  0.17779700221E+02  0.44441861598E+02  0.00000000000E+00 0. -1.
         11    1    4    4    0    0  0.60970329675E+02  0.44353436299E+02  0.19442001476E+03  0.20852757744E+03  0.00000000000E+00 0.  1.
</event>
<event>
 8    1  0.6443238E-009  0.2101173E+03  0.7561462E-02  0.1141473E+00
          2   -1    0    0  501    0  0.00000000000E+00  0.00000000000E+00  0.33946625630E+03  0.33946625630E+03  0.00000000000E+00 0. -1.
         -2   -1    0    0    0  501 -0.00000000000E+00 -0.00000000000E+00 -0.15903207598E+03  0.15903207598E+03  0.00000000000E+00 0.  1.
         25    2    1    2    0    0 -0.18846842231E+03  0.69518335289E+02  0.13821323750E+03  0.27405014207E+03  0.12508971260E+03 0.  0.
         23    2    1    2    0    0  0.18846842231E+03 -0.69518335289E+02  0.42220942821E+02  0.22444819022E+03  0.90781258684E+02 0.  0.
          5    1    3    3  502    0  0.34037307960E+01  0.20259432770E+02  0.55523263673E+02  0.59349264598E+02  0.41800000000E+01 0. -1.
         -5    1    3    3    0  502 -0.19187215311E+03  0.49258902519E+02  0.82689973823E+02  0.21470087747E+03  0.41800000000E+01 0. -1.
        -11    1    4    4    0    0  0.75079671531E+02 -0.22472478443E+02 -0.27759122662E+02  0.83141675804E+02  0.00000000000E+00 0.  1.
         11    1    4    4    0    0  0.11338875078E+03 -0.47045856846E+02  0.69980065484E+02  0.14130651441E+03  0.00000000000E+00 0. -1.
</event>
<event>
 8    1  0.6443238E-009  0.1122738E+03  0.7561462E-02  0.1256416E+00
         -1   -1    0    0    0  501 -0.00000000000E+00  0.00000000000E+00  0.54172495198E+03  0.54172495198E+03  0.00000000000E+00 0.  1.
          1   -1    0    0  501    0  0.00000000000E+00 -0.00000000000E+00 -0.43553844850E+02  0.43553844850E+02  0.00000000000E+00 0. -1.
         25    2    1    2    0    0  0.23195937225E+02  0.85151015169E+02  0.38102598802E+03  0.41063069511E+03  0.12509203546E+03 0.  0.
         23    2    1    2    0    0 -0.23195937225E+02 -0.85151015169E+02  0.11714511911E+03  0.17464810172E+03  0.94816842458E+02 0.  0.
          5    1    3    3  502    0  0.39076672839E+01  0.72417380073E+02  0.38025404333E+03  0.38713067131E+03  0.41800000000E+01 0.  1.
         -5    1    3    3    0  502  0.19288269941E+02  0.12733635096E+02  0.77194468650E+00  0.23500023802E+02  0.41800000000E+01 0.  1.
        -11    1    4    4    0    0  0.19617059253E+02 -0.83284435322E+02  0.88519299096E+02  0.12311292578E+03  0.00000000000E+00 0.  1.
         11    1    4    4    0    0 -0.42812996478E+02 -0.18665798476E+01  0.28625820017E+02  0.51535175942E+02  0.00000000000E+00 0. -1.
</event>
<event>
 8    1  0.6443238E-009  0.2135362E+03  0.7561462E-02  0.1138796E+00
         -2   -1    0    0    0  501 -0.00000000000E+00  0.00000000000E+00  0.14162676375E+03  0.14162676375E+03  0.00000000000E+00 0.  1.
          2   -1    0    0  501    0  0.00000000000E+00 -0.00000000000E+00 -0.39686423883E+03  0.39686423883E+03  0.00000000000E+00 0. -1.
         25    2    1    2    0    0 -0.12956811634E+01  0.21142229288E+03 -0.15844021136E+03  0.29232124553E+03  0.12508934924E+03 0.  0.
         23    2    1    2    0    0  0.12956811634E+01 -0.21142229288E+03 -0.96797263722E+02  0.24616975705E+03  0.80800831092E+02 0.  0.
          5    1    3    3  502    0  0.13391643042E+02  0.36584189161E+02 -0.99904496014E+02  0.10731318523E+03  0.41800000000E+01 0.  1.
         -5    1    3    3    0  502 -0.14687324205E+02  0.17483810372E+03 -0.58535715345E+02  0.18500806030E+03  0.41800000000E+01 0.  1.
        -11    1    4    4    0    0  0.98654538508E+01 -0.68367335118E+02  0.66909977560E+01  0.69398769022E+02  0.00000000000E+00 0.  1.
         11    1    4    4    0    0 -0.85697726874E+01 -0.14305495776E+03 -0.10348826148E+03  0.17677098803E+03  0.00000000000E+00 0. -1.
</event>
<event>
 8    1  0.6443238E-009  0.8989595E+02  0.7561462E-02  0.1303104E+00
         -1   -1    0    0    0  501 -0.00000000000E+00  0.00000000000E+00  0.68775726953E+02  0.68775726953E+02  0.00000000000E+00 0.  1.
          1   -1    0    0  501    0  0.00000000000E+00 -0.00000000000E+00 -0.18920702144E+03  0.18920702144E+03  0.00000000000E+00 0. -1.
         25    2    1    2    0    0 -0.23486878579E+02 -0.19928372514E+02 -0.76897173299E+02  0.15003394356E+03  0.12509290733E+03 0.  0.
         23    2    1    2    0    0  0.23486878579E+02  0.19928372514E+02 -0.43534121191E+02  0.10794880483E+03  0.93856013446E+02 0.  0.
          5    1    3    3  502    0 -0.56132263247E+02  0.17904818986E+02 -0.10096984494E+01  0.59075421379E+02  0.41800000000E+01 0.  1.
         -5    1    3    3    0  502  0.32645384667E+02 -0.37833191501E+02 -0.75887474850E+02  0.90958522186E+02  0.41800000000E+01 0.  1.
        -11    1    4    4    0    0  0.45321535593E+02  0.91752135444E+01  0.11606651367E+02  0.47675365631E+02  0.00000000000E+00 0.  1.
         11    1    4    4    0    0 -0.21834657013E+02  0.10753158970E+02 -0.55140772557E+02  0.60273439199E+02  0.00000000000E+00 0. -1.
</event>
<event>
 8    1  0.6443238E-009  0.1249614E+03  0.7561462E-02  0.1235130E+00
         -1   -1    0    0    0  501 -0.00000000000E+00  0.00000000000E+00  0.45911152379E+02  0.45911152379E+02  0.00000000000E+00 0.  1.
          1   -1    0    0  501    0  0.00000000000E+00 -0.00000000000E+00 -0.35650749461E+03  0.35650749461E+03  0.00000000000E+00 0. -1.
         25    2    1    2    0    0  0.44498085434E+01  0.63170633437E+02 -0.13442048268E+03  0.19423415106E+03  0.12509080521E+03 0.  0.
         23    2    1    2    0    0 -0.44498085434E+01 -0.63170633437E+02 -0.17617585955E+03  0.20818449593E+03  0.91063280928E+02 0.  0.
          5    1    3    3  502    0 -0.51723485882E+02  0.65817830006E+02 -0.79797354850E+02  0.11572552000E+03  0.41800000000E+01 0.  1.
         -5    1    3    3    0  502  0.56173294425E+02 -0.26471965689E+01 -0.54623127831E+02  0.78508631056E+02  0.41800000000E+01 0.  1.
        -11    1    4    4    0    0 -0.19167195269E+02 -0.82909608286E+02 -0.14839727356E+03  0.17106471091E+03  0.00000000000E+00 0. -1.
         11    1    4    4    0    0  0.14717386725E+02  0.19738974848E+02 -0.27778585990E+02  0.37119785017E+02  0.00000000000E+00 0.  1.
</event>
<event>
 8    1  0.6443238E-009  0.1065871E+03  0.7561462E-02  0.1267024E+00
          1   -1    0    0  501    0  0.00000000000E+00  0.00000000000E+00  0.36138718981E+02  0.36138718981E+02  0.00000000000E+00 0. -1.
         -1   -1    0    0    0  501 -0.00000000000E+00 -0.00000000000E+00 -0.33967289308E+03  0.33967289308E+03  0.00000000000E+00 0.  1.
         25    2    1    2    0    0 -0.20548215520E+02 -0.13833767615E+02 -0.17145241780E+03  0.21367514484E+03  0.12509010219E+03 0.  0.
         23    2    1    2    0    0  0.20548215520E+02  0.13833767615E+02 -0.13208175630E+03  0.16213646722E+03  0.90714063780E+02 0.  0.
          5    1    3    3  502    0  0.48206587666E+02 -0.13592317953E+02 -0.36354694874E+02  0.62030334846E+02  0.41800000000E+01 0.  1.
         -5    1    3    3    0  502 -0.68754803187E+02 -0.24144966253E+00 -0.13509772292E+03  0.15164480999E+03  0.41800000000E+01 0.  1.
        -11    1    4    4    0    0 -0.10479560604E+02  0.47269566833E+02 -0.68721025538E+02  0.84064335422E+02  0.00000000000E+00 0. -1.
         11    1    4    4    0    0  0.31027776124E+02 -0.33435799218E+02 -0.63360730761E+02  0.78072131796E+02  0.00000000000E+00 0.  1.
</event>
<event>
 8    1  0.6443238E-009  0.2445782E+03  0.7561462E-02  0.1116780E+00
          3   -1    0    0  501    0  0.00000000000E+00  0.00000000000E+00  0.76128401005E+02  0.76128401005E+02  0.00000000000E+00 0. -1.
         -3   -1    0    0    0  501 -0.00000000000E+00 -0.00000000000E+00 -0.14925260346E+04  0.14925260346E+04  0.00000000000E+00 0.  1.
         25    2    1    2    0    0 -0.21238194267E+03 -0.89724879807E+02 -0.12321946087E+04  0.12598048459E+04  0.12509217539E+03 0.  0.
         23    2    1    2    0    0  0.21238194267E+03  0.89724879807E+02 -0.18420302487E+03  0.30884958971E+03  0.91108018656E+02 0.  0.
          5    1    3    3  502    0 -0.21862887213E+03 -0.10424341452E+03 -0.11928415514E+04  0.12171909104E+04  0.41800000000E+01 0. -1.
         -5    1    3    3    0  502  0.62469294627E+01  0.14518534713E+02 -0.39353057284E+02  0.42613935461E+02  0.41800000000E+01 0. -1.
        -11    1    4    4    0    0  0.14897994285E+03  0.63705877072E+02 -0.71852597388E+02  0.17724631984E+03  0.00000000000E+00 0. -1.
         11    1    4    4    0    0  0.63401999815E+02  0.26019002735E+02 -0.11235042748E+03  0.13160326987E+03  0.00000000000E+00 0.  1.
</event>
<event>
 8    1  0.6443238E-009  0.1496152E+03  0.7561462E-02  0.1200947E+00
         -3   -1    0    0    0  501 -0.00000000000E+00  0.00000000000E+00  0.27281544598E+02  0.27281544598E+02  0.00000000000E+00 0.  1.
          3   -1    0    0  501    0  0.00000000000E+00 -0.00000000000E+00 -0.83437907005E+03  0.83437907005E+03  0.00000000000E+00 0. -1.
         25    2    1    2    0    0 -0.90866449435E+02  0.51732656358E+02 -0.39915707602E+03  0.43116915002E+03  0.12508990857E+03 0.  0.
         23    2    1    2    0    0  0.90866449435E+02 -0.51732656358E+02 -0.40794044943E+03  0.43049146463E+03  0.89300120196E+02 0.  0.
          5    1    3    3  502    0  0.25967423484E+02 -0.12113358207E+02 -0.55527404013E+02  0.62624320562E+02  0.41800000000E+01 0.  1.
         -5    1    3    3    0  502 -0.11683387292E+03  0.63846014565E+02 -0.34362967200E+03  0.36854482946E+03  0.41800000000E+01 0.  1.
        -11    1    4    4    0    0  0.23455072074E+02  0.25436829206E+02 -0.88695687554E+02  0.95205554862E+02  0.00000000000E+00 0.  1.
         11    1    4    4    0    0  0.67411377361E+02 -0.77169485564E+02 -0.31924476188E+03  0.33528590976E+03  0.00000000000E+00 0. -1.
</event>
<event>
 8    1  0.6443238E-009  0.1984184E+03  0.7561462E-02  0.1151080E+00
         -2   -1    0    0    0  501 -0.00000000000E+00  0.00000000000E+00  0.26743275061E+02  0.26743275061E+02  0.00000000000E+00 0.  1.
          2   -1    0    0  501    0  0.00000000000E+00 -0.00000000000E+00 -0.16886660755E+04  0.16886660755E+04  0.00000000000E+00 0. -1.
         25    2    1    2    0    0 -0.71991781887E+02 -0.16171015493E+03 -0.71308284843E+03  0.74529730737E+03  0.12509171348E+03 0.  0.
         23    2    1    2    0    0  0.71991781887E+02  0.16171015493E+03 -0.94883995205E+03  0.97011204323E+03  0.97401904240E+02 0.  0.
          5    1    3    3  502    0  0.18978687624E+02 -0.26377597600E+02 -0.29021807709E+03  0.29206159095E+03  0.41800000000E+01 0. -1.
         -5    1    3    3    0  502 -0.90970469511E+02 -0.13533255733E+03 -0.42286477134E+03  0.45323571642E+03  0.41800000000E+01 0. -1.
        -11    1    4    4    0    0 -0.17427389932E+02  0.72794548937E+02 -0.40330658893E+03  0.41019381388E+03  0.00000000000E+00 0. -1.
         11    1    4    4    0    0  0.89419171819E+02  0.88915605996E+02 -0.54553336312E+03  0.55991822935E+03  0.00000000000E+00 0.  1.
</event>
<event>
 8    1  0.6443238E-009  0.5695390E+02  0.7561462E-02  0.1411078E+00
          2   -1    0    0  501    0  0.00000000000E+00  0.00000000000E+00  0.39237298605E+03  0.39237298605E+03  0.00000000000E+00 0. -1.
         -2   -1    0    0    0  501 -0.00000000000E+00 -0.00000000000E+00 -0.33679075816E+02  0.33679075816E+02  0.00000000000E+00 0.  1.
         25    2    1    2    0    0  0.10447457768E+01 -0.27921969269E+02  0.14951869298E+03  0.19693849311E+03  0.12509277619E+03 0.  0.
         23    2    1    2    0    0 -0.10447457768E+01  0.27921969269E+02  0.20917521726E+03  0.22911356876E+03  0.89207780007E+02 0.  0.
          5    1    3    3  502    0 -0.12914205984E+02 -0.93748988895E+01  0.16685355676E+03  0.16766707264E+03  0.41800000000E+01 0. -1.
         -5    1    3    3    0  502  0.13958951761E+02 -0.18547070380E+02 -0.17334863779E+02  0.29271420467E+02  0.41800000000E+01 0. -1.
        -11    1    4    4    0    0  0.33531367595E+02  0.16795374030E+02  0.35360266446E+02  0.51544016576E+02  0.00000000000E+00 0.  1.
         11    1    4    4    0    0 -0.34576113372E+02  0.11126595240E+02  0.17381495081E+03  0.17756955218E+03  0.00000000000E+00 0. -1.
</event>
<event>
 8    1  0.6443238E-009  0.1967313E+03  0.7561462E-02  0.1152526E+00
          1   -1    0    0  501    0  0.00000000000E+00  0.00000000000E+00  0.58729497695E+03  0.58729497695E+03  0.00000000000E+00 0. -1.
         -1   -1    0    0    0  501 -0.00000000000E+00 -0.00000000000E+00 -0.79076802597E+02  0.79076802597E+02  0.00000000000E+00 0.  1.
         25    2    1    2    0    0 -0.93398740509E+02  0.15061412423E+03  0.35633706565E+03  0.41717054514E+03  0.12508884934E+03 0.  0.
         23    2    1    2    0    0  0.93398740509E+02 -0.15061412423E+03  0.15188110870E+03  0.24920123441E+03  0.87323793453E+02 0.  0.
          5    1    3    3  502    0 -0.11684177239E+03  0.10853683120E+03  0.21450242644E+03  0.26732191614E+03  0.41800000000E+01 0.  1.
         -5    1    3    3    0  502  0.23443031876E+02  0.42077293033E+02  0.14183463921E+03  0.14984862900E+03  0.41800000000E+01 0.  1.
        -11    1    4    4    0    0  0.74766348535E+02 -0.68560903210E+02  0.12475836409E+03  0.16079568941E+03  0.00000000000E+00 0.  1.
         11    1    4    4    0    0  0.18632391974E+02 -0.82053221023E+02  0.27122744607E+02  0.88405544995E+02  0.00000000000E+00 0. -1.
</event>
<event>
 8    1  0.6443238E-009  0.1069110E+03  0.7561462E-02  0.1266400E+00
          1   -1    0    0  501    0  0.00000000000E+00  0.00000000000E+00  0.80680241210E+03  0.80680241210E+03  0.00000000000E+00 0. -1.
         -1   -1    0    0    0  501 -0.00000000000E+00 -0.00000000000E+00 -0.23906455028E+02  0.23906455028E+02  0.00000000000E+00 0.  1.
         25    2    1    2    0    0 -0.74701809068E+02  0.67215139080E+01  0.38041378242E+03  0.40741468769E+03  0.12508614177E+03 0.  0.
         23    2    1    2    0    0  0.74701809068E+02 -0.67215139080E+01  0.40248217465E+03  0.42329417944E+03  0.10751986982E+03 0.  0.
          5    1    3    3  502    0 -0.52291997861E+02  0.46856367449E+02  0.33626597459E+03  0.34354366576E+03  0.41800000000E+01 0.  1.
         -5    1    3    3    0  502 -0.22409811207E+02 -0.40134853541E+02  0.44147807830E+02  0.63871021937E+02  0.41800000000E+01 0.  1.
        -11    1    4    4    0    0  0.22877943040E+02  0.27082663899E+02  0.32246936116E+02  0.47924272039E+02  0.00000000000E+00 0.  1.
         11    1    4    4    0    0  0.51823866028E+02 -0.33804177807E+02  0.37023523853E+03  0.37536990740E+03  0.00000000000E+00 0. -1.
</event>
<event>
 8    1  0.6443238E-009  0.2323195E+03  0.7561462E-02  0.1125018E+00
         -3   -1    0    0    0  501 -0.00000000000E+00  0.00000000000E+00  0.41904218130E+02  0.41904218130E+02  0.00000000000E+00 0.  1.
          3   -1    0    0  501    0  0.00000000000E+00 -0.00000000000E+00 -0.14680518366E+04  0.14680518366E+04  0.00000000000E+00 0. -1.
         25    2    1    2    0    0  0.11850534237E+03  0.18584637136E+03 -0.64516703857E+03  0.69315918773E+03  0.12508701758E+03 0.  0.
         23    2    1    2    0    0 -0.11850534237E+03 -0.18584637136E+03 -0.78098057992E+03  0.81679686702E+03  0.92973468445E+02 0.  0.
          5    1    3    3  502    0  0.55494128822E+02  0.17028006080E+03 -0.37966736480E+03  0.41980909678E+03  0.41800000000E+01 0.  1.
         -5    1    3    3    0  502  0.63011213550E+02  0.15566310561E+02 -0.26549967376E+03  0.27335009096E+03  0.41800000000E+01 0.  1.
        -11    1    4    4    0    0 -0.91043171476E+02 -0.14606948570E+03 -0.71237753241E+03  0.73287577556E+03  0.00000000000E+00 0. -1.
         11    1    4    4    0    0 -0.27462170896E+02 -0.39776885655E+02 -0.68603047516E+02  0.83921091457E+02  0.00000000000E+00 0.  1.
</event>
<event>
 8    1  0.6443238E-009  0.1402930E+03  0.7561462E-02  0.1212935E+00
         -3   -1    0    0    0  501 -0.00000000000E+00  0.00000000000E+00  0.66426763587E+03  0.66426763587E+03  0.00000000000E+00 0.  1.
          3   -1    0    0  501    0  0.00000000000E+00 -0.00000000000E+00 -0.32048349154E+02  0.32048349154E+02  0.00000000000E+00 0. -1.
         25    2    1    2    0    0 -0.56175466775E+02  0.71122576528E+02  0.27807527590E+03  0.31811175824E+03  0.12512045279E+03 0.  0.
         23    2    1    2    0    0  0.56175466775E+02 -0.71122576528E+02  0.35414401082E+03  0.37820422678E+03  0.96986353674E+02 0.  0.
          5    1    3    3  502    0 -0.65036251601E+02 -0.12141502761E+02  0.86388747135E+02  0.10889269095E+03  0.41800000000E+01 0.  1.
         -5    1    3    3    0  502  0.88607848253E+01  0.83264079289E+02  0.19168652876E+03  0.20921906729E+03  0.41800000000E+01 0.  1.
        -11    1    4    4    0    0  0.35257498563E+02 -0.93438250246E+02  0.29770840635E+03  0.31401288671E+03  0.00000000000E+00 0.  1.
         11    1    4    4    0    0  0.20917968213E+02  0.22315673718E+02  0.56435604470E+02  0.64191340066E+02  0.00000000000E+00 0. -1.
</event>
<event>
 8    1  0.6443238E-009  0.1578701E+03  0.7561462E-02  0.1191123E+00
          2   -1    0    0  501    0  0.00000000000E+00  0.00000000000E+00  0.27913941255E+03  0.27913941255E+03  0.00000000000E+00 0. -1.
         -2   -1    0    0    0  501 -0.00000000000E+00 -0.00000000000E+00 -0.10091555380E+03  0.10091555380E+03  0.00000000000E+00 0.  1.
         25    2    1    2    0    0  0.11753942158E+03 -0.31289428438E+02  0.52184650926E+02  0.18211356467E+03  0.12509024217E+03 0.  0.
         23    2    1    2    0    0 -0.11753942158E+03  0.31289428438E+02  0.12603920782E+03  0.19794140168E+03  0.92197465446E+02 0.  0.
          5    1    3    3  502    0 -0.24483718632E+02 -0.32083076301E+00  0.22876289205E+02  0.33769104493E+02  0.41800000000E+01 0. -1.
         -5    1    3    3    0  502  0.14202314021E+03 -0.30968597675E+02  0.29308361721E+02  0.14834446017E+03  0.41800000000E+01 0. -1.
        -11    1    4    4    0    0 -0.11173573613E+03 -0.19347732937E+01  0.11945194945E+03  0.16357685137E+03  0.00000000000E+00 0. -1.
         11    1    4    4    0    0 -0.58036854471E+01  0.33224201731E+02  0.65872583749E+01  0.34364550315E+02  0.00000000000E+00 0.  1.
</event>
<event>
 8    1  0.6443238E-009  0.6400754E+02  0.7561462E-02  0.1381744E+00
          1   -1    0    0  501    0  0.00000000000E+00  0.00000000000E+00  0.19305801992E+03  0.19305801992E+03  0.00000000000E+00 0. -1.
         -1   -1    0    0    0  501 -0.00000000000E+00 -0.00000000000E+00 -0.93553208816E+02  0.93553208816E+02  0.00000000000E+00 0.  1.
         25    2    1    2    0    0  0.53369146046E+02  0.99997471699E+01  0.11722014182E+03  0.17982048653E+03  0.12508631034E+03 0.  0.
         23    2    1    2    0    0 -0.53369146046E+02 -0.99997471699E+01 -0.17715330714E+02  0.10679074221E+03  0.90233968029E+02 0.  0.
          5    1    3    3  502    0  0.37363730016E+02 -0.17377417151E+02 -0.14797901554E+02  0.43982647010E+02  0.41800000000E+01 0. -1.
         -5    1    3    3    0  502  0.16005416030E+02  0.27377164320E+02  0.13201804338E+03  0.13583783952E+03  0.41800000000E+01 0. -1.
        -11    1    4    4    0    0 -0.13614033051E+02 -0.51686732048E+01  0.36552192854E+02  0.39346154590E+02  0.00000000000E+00 0. -1.
         11    1    4    4    0    0 -0.39755112995E+02 -0.48310739651E+01 -0.54267523569E+02  0.67444587620E+02  0.00000000000E+00 0.  1.
</event>
<event>
 8    1  0.6443238E-009  0.1420904E+03  0.7561462E-02  0.1210544E+00
         -3   -1    0    0    0  501 -0.00000000000E+00  0.00000000000E+00  0.41196513292E+03  0.41196513292E+03  0.00000000000E+00 0.  1.
          3   -1    0    0  501    0  0.00000000000E+00 -0.00000000000E+00 -0.60716954234E+02  0.60716954234E+02  0.00000000000E+00 0. -1.
         25    2    1    2    0    0 -0.89764432887E+02  0.45322328183E+02  0.98244666579E+02  0.18818039923E+03  0.12509229113E+03 0.  0.
         23    2    1    2    0    0  0.89764432887E+02 -0.45322328183E+02  0.25300351210E+03  0.28450168792E+03  0.82575216927E+02 0.  0.
          5    1    3    3  502    0 -0.62236625588E+02 -0.35980293580E+02  0.61571419952E+02  0.94744346774E+02  0.41800000000E+01 0.  1.
         -5    1    3    3    0  502 -0.27527807299E+02  0.81302621763E+02  0.36673246627E+02  0.93436052455E+02  0.41800000000E+01 0.  1.
        -11    1    4    4    0    0  0.10305740469E+03 -0.33284668697E+02  0.23655552639E+03  0.26016766689E+03  0.00000000000E+00 0.  1.
         11    1    4    4    0    0 -0.13292971806E+02 -0.12037659486E+02  0.16447985719E+02  0.24334021031E+02  0.00000000000E+00 0. -1.
</event>
<event>
 8    1  0.6443238E-009  0.1128263E+03  0.7561462E-02  0.1255424E+00
         -1   -1    0    0    0  501 -0.00000000000E+00  0.00000000000E+00  0.14034285707E+03  0.14034285707E+03  0.00000000000E+00 0.  1.
          1   -1    0    0  501    0  0.00000000000E+00 -0.00000000000E+00 -0.10660638197E+03  0.10660638197E+03  0.00000000000E+00 0. -1.
         25    2    1    2    0    0  0.48719210598E+02  0.24463021217E+02  0.64600341011E+01  0.13660473016E+03  0.12508844620E+03 0.  0.
         23    2    1    2    0    0 -0.48719210598E+02 -0.24463021217E+02  0.27276440997E+02  0.11034450888E+03  0.91977744685E+02 0.  0.
          5    1    3    3  502    0  0.50375282748E+02 -0.40405339479E+02 -0.17940105356E+02  0.67153409076E+02  0.41800000000E+01 0. -1.
         -5    1    3    3    0  502 -0.16560721497E+01  0.64868360696E+02  0.24400139457E+02  0.69451321081E+02  0.41800000000E+01 0. -1.
        -11    1    4    4    0    0  0.79615389427E+01  0.21509172641E+02 -0.13631852009E+02  0.26680667144E+02  0.00000000000E+00 0. -1.
         11    1    4    4    0    0 -0.56680749541E+02 -0.45972193859E+02  0.40908293007E+02  0.83663841733E+02  0.00000000000E+00 0.  1.
</event>
<event>
 8    1  0.6443238E-009  0.1185446E+03  0.7561462E-02  0.1245517E+00
          2   -1    0    0  501    0  0.00000000000E+00  0.00000000000E+00  0.20813881435E+02  0.20813881435E+02  0.00000000000E+00 0.  1.
         -2   -1    0    0    0  501 -0.00000000000E+00 -0.00000000000E+00 -0.11600613791E+04  0.11600613791E+04  0.00000000000E+00 0. -1.
         25    2    1    2    0    0 -0.31859441884E+02  0.99401700551E+02 -0.76188074644E+03  0.77910518220E+03  0.12508753342E+03 0.  0.
         23    2    1    2    0    0  0.31859441884E+02 -0.99401700551E+02 -0.37736675124E+03  0.40177007836E+03  0.90098883508E+02 0.  0.
          5    1    3    3  502    0 -0.50511066548E+01  0.12613243547E+02 -0.52768016502E+03  0.52787160991E+03  0.41800000000E+01 0. -1.
         -5    1    3    3    0  502 -0.26808335229E+02  0.86788457005E+02 -0.23420058142E+03  0.25123357229E+03  0.41800000000E+01 0. -1.
        -11    1    4    4    0    0  0.49630254074E+02 -0.25235669384E+02 -0.21943016157E+03  0.22638373824E+03  0.00000000000E+00 0. -1.
         11    1    4    4    0    0 -0.17770812190E+02 -0.74166031168E+02 -0.15793658967E+03  0.17538634012E+03  0.00000000000E+00 0.  1.
</event>
<event>
 8    1  0.6443238E-009  0.1677098E+03  0.7561462E-02  0.1180257E+00
         -1   -1    0    0    0  501 -0.00000000000E+00  0.00000000000E+00  0.56359273301E+02  0.56359273301E+02  0.00000000000E+00 0.  1.
          1   -1    0    0  501    0  0.00000000000E+00 -0.00000000000E+00 -0.58967571348E+03  0.58967571348E+03  0.00000000000E+00 0. -1.
         25    2    1    2    0    0  0.47955401290E+02  0.13800801099E+03 -0.26731252489E+03  0.32931926778E+03  0.12509701259E+03 0.  0.
         23    2    1    2    0    0 -0.47955401290E+02 -0.13800801099E+03 -0.26600391529E+03  0.31671571900E+03  0.90580528266E+02 0.  0.
          5    1    3    3  502    0 -0.44016357487E+01  0.10707014390E+03 -0.84260887936E+02  0.13638460231E+03  0.41800000000E+01 0. -1.
         -5    1    3    3    0  502  0.52357037039E+02  0.30937867091E+02 -0.18305163695E+03  0.19293466547E+03  0.41800000000E+01 0. -1.
        -11    1    4    4    0    0 -0.70616347001E+02 -0.92425624652E+02 -0.21618385834E+03  0.24548854385E+03  0.00000000000E+00 0. -1.
         11    1    4    4    0    0  0.22660945711E+02 -0.45582386342E+02 -0.49820056953E+02  0.71227175151E+02  0.00000000000E+00 0.  1.
</event>
<event>
 8    1  0.6443238E-009  0.6807322E+02  0.7561462E-02  0.1366770E+00
         -2   -1    0    0    0  501 -0.00000000000E+00  0.00000000000E+00  0.37555266050E+02  0.37555266050E+02  0.00000000000E+00 0.  1.
          2   -1    0    0  501    0  0.00000000000E+00 -0.00000000000E+00 -0.37790952283E+03  0.37790952283E+03  0.00000000000E+00 0. -1.
         25    2    1    2    0    0 -0.18012228511E+02  0.29615183279E+02 -0.13339069800E+03  0.18611760784E+03  0.12508071865E+03 0.  0.
         23    2    1    2    0    0  0.18012228511E+02 -0.29615183279E+02 -0.20696355878E+03  0.22934718104E+03  0.92545747243E+02 0.  0.
          5    1    3    3  502    0 -0.15412257734E+02  0.13854498128E+02 -0.15638587700E+03  0.15780842732E+03  0.41800000000E+01 0. -1.
         -5    1    3    3    0  502 -0.25999707766E+01  0.15760685151E+02  0.22995179001E+02  0.28309180521E+02  0.41800000000E+01 0. -1.
        -11    1    4    4    0    0 -0.17382766071E+02 -0.53195181949E+02 -0.12678647538E+03  0.13858823283E+03  0.00000000000E+00 0. -1.
         11    1    4    4    0    0  0.35394994582E+02  0.23579998669E+02 -0.80177083394E+02  0.90758948210E+02  0.00000000000E+00 0.  1.
</event>
<event>
 8    1  0.6443238E-009  0.1610418E+03  0.7561462E-02  0.1187526E+00
          2   -1    0    0  501    0  0.00000000000E+00  0.00000000000E+00  0.88161245762E+03  0.88161245762E+03  0.00000000000E+00 0. -1.
         -2   -1    0    0    0  501 -0.00000000000E+00 -0.00000000000E+00 -0.32446481444E+02  0.32446481444E+02  0.00000000000E+00 0.  1.
         25    2    1    2    0    0  0.37858115430E+02 -0.11571472923E+03  0.33110511951E+03  0.37430149257E+03  0.12509145338E+03 0.  0.
         23    2    1    2    0    0 -0.37858115430E+02  0.11571472923E+03  0.51806085666E+03  0.53975744649E+03  0.90154946471E+02 0.  0.
          5    1    3    3  502    0 -0.45823035659E+01 -0.12884117927E+03  0.26219397226E+03  0.29220574681E+03  0.41800000000E+01 0.  1.
         -5    1    3    3    0  502  0.42440418996E+02  0.13126450044E+02  0.68911147257E+02  0.82095745758E+02  0.41800000000E+01 0.  1.
        -11    1    4    4    0    0 -0.65187476406E+02  0.74169531046E+02  0.29040792532E+03  0.30673651479E+03  0.00000000000E+00 0.  1.
         11    1    4    4    0    0  0.27329360976E+02  0.41545198184E+02  0.22765293134E+03  0.23302093170E+03  0.00000000000E+00 0. -1.
</event>
<event>
 8    1  0.6443238E-009  0.9039979E+02  0.7561462E-02  0.1301886E+00
          2   -1    0    0  501    0  0.00000000000E+00  0.00000000000E+00  0.59242512844E+03  0.59242512844E+03  0.00000000000E+00 0.  1.
         -2   -1    0    0    0  501 -0.00000000000E+00 -0.00000000000E+00 -0.21336621482E+02  0.21336621482E+02  0.00000000000E+00 0. -1.
         25    2    1    2    0    0  0.18712704629E+02 -0.20986710014E+02  0.38913397438E+03  0.40971491235E+03  0.12510176687E+03 0.  0.
         23    2    1    2    0    0 -0.18712704629E+02  0.20986710014E+02  0.18195453258E+03  0.20404683757E+03  0.87960517763E+02 0.  0.
          5    1    3    3  502    0  0.22881780244E+02 -0.66421073639E+02  0.31336767841E+03  0.32117302060E+03  0.41800000000E+01 0.  1.
         -5    1    3    3    0  502 -0.41690756156E+01  0.45434363624E+02  0.75766295969E+02  0.88541891748E+02  0.41800000000E+01 0.  1.
        -11    1    4    4    0    0 -0.24340640677E+02  0.38868282174E+02  0.17934984077E+03  0.18512043520E+03  0.00000000000E+00 0.  1.
         11    1    4    4    0    0  0.56279360484E+01 -0.17881572160E+02  0.26046918123E+01  0.18926402366E+02  0.00000000000E+00 0. -1.
</event>
<event>
 8    1  0.6443238E-009  0.2158402E+03  0.7561462E-02  0.1137023E+00
         -2   -1    0    0    0  501 -0.00000000000E+00  0.00000000000E+00  0.71951308789E+02  0.71951308789E+02  0.00000000000E+00 0.  1.
          2   -1    0    0  501    0  0.00000000000E+00 -0.00000000000E+00 -0.71820892812E+03  0.71820892812E+03  0.00000000000E+00 0. -1.
         25    2    1    2    0    0 -0.14704349983E+03  0.12821573769E+03 -0.26369922308E+03  0.35106369510E+03  0.12508945413E+03 0.  0.
         23    2    1    2    0    0  0.14704349983E+03 -0.12821573769E+03 -0.38255839625E+03  0.43909654180E+03  0.91617576076E+02 0.  0.
          5    1    3    3  502    0  0.19925695319E+02  0.27156545870E+01 -0.40086441934E+02  0.45042239517E+02  0.41800000000E+01 0. -1.
         -5    1    3    3    0  502 -0.16696919515E+03  0.12550008310E+03 -0.22361278114E+03  0.30602145559E+03  0.41800000000E+01 0. -1.
        -11    1    4    4    0    0  0.65063989382E+02 -0.91801459983E+02 -0.13474723410E+03  0.17554955958E+03  0.00000000000E+00 0.  1.
         11    1    4    4    0    0  0.81979510452E+02 -0.36414277707E+02 -0.24781116215E+03  0.26354698223E+03  0.00000000000E+00 0. -1.
</event>
<event>
 8    1  0.6443238E-009  0.3259102E+03  0.7561462E-02  0.1072961E+00
          2   -1    0    0  501    0  0.00000000000E+00  0.00000000000E+00  0.13415572664E+04  0.13415572664E+04  0.00000000000E+00 0. -1.
         -2   -1    0    0    0  501 -0.00000000000E+00 -0.00000000000E+00 -0.96547215647E+02  0.96547215647E+02  0.00000000000E+00 0.  1.
         25    2    1    2    0    0 -0.22646055615E+03  0.21339146870E+03  0.33659436823E+03  0.47514610453E+03  0.12509096500E+03 0.  0.
         23    2    1    2    0    0  0.22646055615E+03 -0.21339146870E+03  0.90841568251E+03  0.96295837750E+03  0.72453310186E+02 0.  0.
          5    1    3    3  502    0 -0.19553864047E+01 -0.13887613663E+02  0.73824268974E+01  0.16390911388E+02  0.41800000000E+01 0. -1.
         -5    1    3    3    0  502 -0.22450516974E+03  0.22727908237E+03  0.32921194133E+03  0.45875519315E+03  0.41800000000E+01 0. -1.
        -11    1    4    4    0    0  0.19430193311E+03 -0.20877941994E+03  0.84262450353E+03  0.88958312785E+03  0.00000000000E+00 0.  1.
         11    1    4    4    0    0  0.32158623043E+02 -0.46120487587E+01  0.65791178984E+02  0.73375249655E+02  0.00000000000E+00 0. -1.
</event>
<event>
 8    1  0.6443238E-009  0.8356045E+02  0.7561462E-02  0.1319241E+00
         -2   -1    0    0    0  501 -0.00000000000E+00  0.00000000000E+00  0.13343363834E+02  0.13343363834E+02  0.00000000000E+00 0.  1.
          2   -1    0    0  501    0  0.00000000000E+00 -0.00000000000E+00 -0.13238376331E+04  0.13238376331E+04  0.00000000000E+00 0. -1.
         25    2    1    2    0    0  0.25480988405E+02 -0.51902085487E+02 -0.96147505477E+03  0.97130080579E+03  0.12509143506E+03 0.  0.
         23    2    1    2    0    0 -0.25480988405E+02  0.51902085487E+02 -0.34901921453E+03  0.36588019118E+03  0.93331639554E+02 0.  0.
          5    1    3    3  502    0  0.26048348024E+02 -0.52630227660E+02 -0.17167110739E+03  0.18148525784E+03  0.41800000000E+01 0. -1.
         -5    1    3    3    0  502 -0.56735961955E+00  0.72814217353E+00 -0.78980394738E+03  0.78981554795E+03  0.41800000000E+01 0. -1.
        -11    1    4    4    0    0 -0.44496109363E+02  0.66487660449E+02 -0.20830892251E+03  0.22314372037E+03  0.00000000000E+00 0.  1.
         11    1    4    4    0    0  0.19015120958E+02 -0.14585574962E+02 -0.14071029201E+03  0.14273647082E+03  0.00000000000E+00 0. -1.
</event>
<event>
 8    1  0.6443238E-009  0.8994404E+02  0.7561462E-02  0.1302987E+00
         -1   -1    0    0    0  501 -0.00000000000E+00  0.00000000000E+00  0.16593064543E+02  0.16593064543E+02  0.00000000000E+00 0.  1.
          1   -1    0    0  501    0  0.00000000000E+00 -0.00000000000E+00 -0.85956198554E+03  0.85956198554E+03  0.00000000000E+00 0. -1.
         25    2    1    2    0    0  0.10754950243E+02 -0.57573514888E+01 -0.65036576979E+03  0.66239860503E+03  0.12508981324E+03 0.  0.
         23    2    1    2    0    0 -0.10754950243E+02  0.57573514888E+01 -0.19260315120E+03  0.21375644505E+03  0.91907714023E+02 0.  0.
          5    1    3    3  502    0 -0.54840850483E+01 -0.48497058217E+02 -0.11409260983E+03  0.12416374617E+03  0.41800000000E+01 0. -1.
         -5    1    3    3    0  502  0.16239035292E+02  0.42739706728E+02 -0.53627315996E+03  0.53823485886E+03  0.41800000000E+01 0. -1.
        -11    1    4    4    0    0 -0.24132288456E+02  0.40844567257E+02 -0.63259406285E+02  0.79072109521E+02  0.00000000000E+00 0.  1.
         11    1    4    4    0    0  0.13377338213E+02 -0.35087215768E+02 -0.12934374492E+03  0.13468433553E+03  0.00000000000E+00 0. -1.
</event>
<event>
 8    1  0.6443238E-009  0.1085963E+03  0.7561462E-02  0.1263192E+00
         -1   -1    0    0    0  501 -0.00000000000E+00  0.00000000000E+00  0.12678229315E+03  0.12678229315E+03  0.00000000000E+00 0. -1.
          1   -1    0    0  501    0  0.00000000000E+00 -0.00000000000E+00 -0.10290324389E+03  0.10290324389E+03  0.00000000000E+00 0.  1.
         25    2    1    2    0    0  0.86227278300E+01  0.28952201544E+02 -0.61735530701E+01  0.12883869366E+03  0.12509482331E+03 0.  0.
         23    2    1    2    0    0 -0.86227278300E+01 -0.28952201544E+02  0.30052602332E+02  0.10084684337E+03  0.91402108848E+02 0.  0.
          5    1    3    3  502    0  0.42084527170E+02  0.61843917959E+02  0.16255851034E+02  0.76664872716E+02  0.41800000000E+01 0. -1.
         -5    1    3    3    0  502 -0.33461799340E+02 -0.32891716415E+02 -0.22429404104E+02  0.52173820948E+02  0.41800000000E+01 0. -1.
        -11    1    4    4    0    0  0.38915055051E+02  0.10885351632E+01  0.48777275263E+01  0.39234661260E+02  0.00000000000E+00 0. -1.
         11    1    4    4    0    0 -0.47537782881E+02 -0.30040736707E+02  0.25174874805E+02  0.61612182112E+02  0.00000000000E+00 0.  1.
</event>
<event>
 8    1  0.6443238E-009  0.1307254E+03  0.7561462E-02  0.1226383E+00
          2   -1    0    0  501    0  0.00000000000E+00  0.00000000000E+00  0.97197443201E+02  0.97197443201E+02  0.00000000000E+00 0. -1.
         -2   -1    0    0    0  501 -0.00000000000E+00 -0.00000000000E+00 -0.26547229130E+03  0.26547229130E+03  0.00000000000E+00 0.  1.
         25    2    1    2    0    0  0.46105622630E+01  0.85552864174E+02 -0.18300403643E+03  0.23765371523E+03  0.12509301003E+03 0.  0.
         23    2    1    2    0    0 -0.46105622630E+01 -0.85552864174E+02  0.14729188330E+02  0.12501601928E+03  0.89841561842E+02 0.  0.
          5    1    3    3  502    0 -0.25354611229E+02 -0.25157663918E+02 -0.55195829658E+02  0.65877282701E+02  0.41800000000E+01 0.  1.
         -5    1    3    3    0  502  0.29965173492E+02  0.11071052809E+03 -0.12780820677E+03  0.17177643253E+03  0.41800000000E+01 0.  1.
        -11    1    4    4    0    0  0.16273121486E+02 -0.88181535244E+02 -0.12567084877E+02  0.90546834639E+02  0.00000000000E+00 0.  1.
         11    1    4    4    0    0 -0.20883683749E+02  0.26286710702E+01  0.27296273208E+02  0.34469184637E+02  0.00000000000E+00 0. -1.
</event>
<event>
 8    1  0.6443238E-009  0.1252623E+03  0.7561462E-02  0.1234660E+00
         -1   -1    0    0    0  501 -0.00000000000E+00  0.00000000000E+00  0.42173115645E+03  0.42173115645E+03  0.00000000000E+00 0.  1.
          1   -1    0    0  501    0  0.00000000000E+00 -0.00000000000E+00 -0.50165497358E+02  0.50165497358E+02  0.00000000000E+00 0. -1.
         25    2    1    2    0    0 -0.66045935271E+02 -0.27042427577E+02  0.30782876943E+03  0.33985206546E+03  0.12509003420E+03 0.  0.
         23    2    1    2    0    0  0.66045935271E+02  0.27042427577E+02  0.63736889659E+02  0.13204458834E+03  0.90994635841E+02 0.  0.
          5    1    3    3  502    0  0.26800279684E+02  0.25351380876E+02  0.71859174078E+02  0.80883625059E+02  0.41800000000E+01 0.  1.
         -5    1    3    3    0  502 -0.92846214954E+02 -0.52393808453E+02  0.23596959535E+03  0.25896844041E+03  0.41800000000E+01 0.  1.
        -11    1    4    4    0    0  0.23750135485E+02 -0.28368313815E+02  0.47961307047E+02  0.60573237803E+02  0.00000000000E+00 0.  1.
         11    1    4    4    0    0  0.42295799785E+02  0.55410741391E+02  0.15775582612E+02  0.71471350538E+02  0.00000000000E+00 0. -1.
</event>
<event>
 8    1  0.6443238E-009  0.1537091E+03  0.7561462E-02  0.1195988E+00
         -2   -1    0    0    0  501 -0.00000000000E+00  0.00000000000E+00  0.48557488759E+02  0.48557488759E+02  0.00000000000E+00 0. -1.
          2   -1    0    0  501    0  0.00000000000E+00 -0.00000000000E+00 -0.63868230245E+03  0.63868230245E+03  0.00000000000E+00 0.  1.
         25    2    1    2    0    0  0.13925185790E+02  0.12642341629E+03 -0.42092277649E+03  0.45716535250E+03  0.12508950704E+03 0.  0.
         23    2    1    2    0    0 -0.13925185790E+02 -0.12642341629E+03 -0.16920203720E+03  0.23007443871E+03  0.90156125521E+02 0.  0.
          5    1    3    3  502    0 -0.46513599385E+02  0.34492378762E+02 -0.22558962424E+03  0.23294074372E+03  0.41800000000E+01 0. -1.
         -5    1    3    3    0  502  0.60438785175E+02  0.91931037526E+02 -0.19533315225E+03  0.22422460878E+03  0.41800000000E+01 0. -1.
        -11    1    4    4    0    0  0.20154896662E+02 -0.74306622748E+02 -0.14321621713E+03  0.16259944309E+03  0.00000000000E+00 0.  1.
         11    1    4    4    0    0 -0.34080082452E+02 -0.52116793540E+02 -0.25985820065E+02  0.67474995616E+02  0.00000000000E+00 0. -1.
</event>
<event>
 8    1  0.6443238E-009  0.7739759E+02  0.7561462E-02  0.1336603E+00
          2   -1    0    0  501    0  0.00000000000E+00  0.00000000000E+00  0.25554957377E+03  0.25554957377E+03  0.00000000000E+00 0.  1.
         -2   -1    0    0    0  501 -0.00000000000E+00 -0.00000000000E+00 -0.49360426135E+02  0.49360426135E+02  0.00000000000E+00 0. -1.
         25    2    1    2    0    0 -0.23318398433E+02 -0.35174820549E+02  0.14333439850E+03  0.19486609745E+03  0.12508809071E+03 0.  0.
         23    2    1    2    0    0  0.23318398433E+02  0.35174820549E+02  0.62854749143E+02  0.11004390246E+03  0.79861913782E+02 0.  0.
          5    1    3    3  502    0  0.19846209206E+02  0.10597471836E+02 -0.12983657926E+02  0.26310191985E+02  0.41800000000E+01 0.  1.
         -5    1    3    3    0  502 -0.43164607639E+02 -0.45772292384E+02  0.15631805642E+03  0.16855590546E+03  0.41800000000E+01 0.  1.
        -11    1    4    4    0    0 -0.17468049431E+02  0.51478165554E+01  0.56058920332E+02  0.58942644282E+02  0.00000000000E+00 0.  1.
         11    1    4    4    0    0  0.40786447864E+02  0.30027003993E+02  0.67958288107E+01  0.51101258178E+02  0.00000000000E+00 0. -1.
</event>
<event>
 8    1  0.6443238E-009  0.1029028E+03  0.7561462E-02  0.1274308E+00
         -2   -1    0    0    0  501 -0.00000000000E+00  0.00000000000E+00  0.28310769431E+03  0.28310769431E+03  0.00000000000E+00 0. -1.
          2   -1    0    0  501    0  0.00000000000E+00 -0.00000000000E+00 -0.49567440142E+02  0.49567440142E+02  0.00000000000E+00 0.  1.
         25    2    1    2    0    0 -0.10894931664E+02  0.55652274310E+01  0.68227458250E+02  0.14300737339E+03  0.12508577653E+03 0.  0.
         23    2    1    2    0    0  0.10894931664E+02 -0.55652274310E+01  0.16531279592E+03  0.18966776106E+03  0.92173031857E+02 0.  0.
          5    1    3    3  502    0 -0.37915199686E+02  0.49587537004E+02  0.66288634501E+02  0.91149007988E+02  0.41800000000E+01 0. -1.
         -5    1    3    3    0  502  0.27020268021E+02 -0.44022309573E+02  0.19388237498E+01  0.51858365397E+02  0.41800000000E+01 0. -1.
        -11    1    4    4    0    0  0.47320790395E+02 -0.21112229694E+02  0.76183396741E+02  0.92135190808E+02  0.00000000000E+00 0.  1.
         11    1    4    4    0    0 -0.36425858731E+02  0.15547002263E+02  0.89129399175E+02  0.97532570257E+02  0.00000000000E+00 0. -1.
</event>
<event>
 8    1  0.6443238E-009  0.1319645E+03  0.7561462E-02  0.1224570E+00
          1   -1    0    0  501    0  0.00000000000E+00  0.00000000000E+00  0.77057264108E+03  0.77057264108E+03  0.00000000000E+00 0. -1.
         -1   -1    0    0    0  501 -0.00000000000E+00 -0.00000000000E+00 -0.27190351231E+02  0.27190351231E+02  0.00000000000E+00 0.  1.
         25    2    1    2    0    0 -0.68161037956E+02 -0.49859838144E+02  0.52683857800E+03  0.54803244215E+03  0.12509492327E+03 0.  0.
         23    2    1    2    0    0  0.68161037956E+02  0.49859838144E+02  0.21654371185E+03  0.24973055016E+03  0.91335852684E+02 0.  0.
          5    1    3    3  502    0 -0.73697994400E+02 -0.86354855232E+02  0.40821338371E+03  0.42372655621E+03  0.41800000000E+01 0. -1.
         -5    1    3    3    0  502  0.55369564441E+01  0.36495017088E+02  0.11862519429E+03  0.12430588594E+03  0.41800000000E+01 0. -1.
        -11    1    4    4    0    0 -0.22267720494E+01 -0.16374169789E+02  0.84461718863E+02  0.86063080954E+02  0.00000000000E+00 0.  1.
         11    1    4    4    0    0  0.70387810006E+02  0.66234007933E+02  0.13208199299E+03  0.16366746921E+03  0.00000000000E+00 0. -1.
</event>
<event>
 8    1  0.6443238E-009  0.8951352E+02  0.7561462E-02  0.1304034E+00
         -1   -1    0    0    0  501 -0.00000000000E+00  0.00000000000E+00  0.66656487809E+02  0.66656487809E+02  0.00000000000E+00 0.  1.
          1   -1    0    0  501    0  0.00000000000E+00 -0.00000000000E+00 -0.29597776815E+03  0.29597776815E+03  0.00000000000E+00 0. -1.
         25    2    1    2    0    0  0.19002045309E+02 -0.41522890171E+02 -0.22792328319E+03  0.26397368420E+03  0.12509138578E+03 0.  0.
         23    2    1    2    0    0 -0.19002045309E+02  0.41522890171E+02 -0.13979971492E+01  0.98660571757E+02  0.87445559574E+02 0.  0.
          5    1    3    3  502    0  0.55416832322E+02 -0.85871567614E+01 -0.38264386777E+02  0.68017646691E+02  0.41800000000E+01 0.  1.
         -5    1    3    3    0  502 -0.36414787013E+02 -0.32935733410E+02 -0.18965889641E+03  0.19595603751E+03  0.41800000000E+01 0.  1.
        -11    1    4    4    0    0 -0.16341314635E+01  0.52788718401E+02  0.30234626712E+02  0.60855992544E+02  0.00000000000E+00 0.  1.
         11    1    4    4    0    0 -0.17367913846E+02 -0.11265828230E+02 -0.31632623862E+02  0.37804579213E+02  0.00000000000E+00 0. -1.
</event>
<event>
 8    1  0.6443238E-009  0.8402669E+02  0.7561462E-02  0.1317998E+00
         -2   -1    0    0    0  501 -0.00000000000E+00  0.00000000000E+00  0.59223122187E+02  0.59223122187E+02  0.00000000000E+00 0.  1.
          2   -1    0    0  501    0  0.00000000000E+00 -0.00000000000E+00 -0.20942198501E+03  0.20942198501E+03  0.00000000000E+00 0. -1.
         25    2    1    2    0    0 -0.18512765099E+02  0.87414409746E+01 -0.10542767830E+03  0.16486873526E+03  0.12509024443E+03 0.  0.
         23    2    1    2    0    0  0.18512765099E+02 -0.87414409746E+01 -0.44771184524E+02  0.10377637194E+03  0.91356122661E+02 0.  0.
          5    1    3    3  502    0 -0.14254782068E+02  0.57187347163E+02 -0.99469293265E+02  0.11569444321E+03  0.41800000000E+01 0. -1.
         -5    1    3    3    0  502 -0.42579830308E+01 -0.48445906188E+02 -0.59583850350E+01  0.49174292045E+02  0.41800000000E+01 0. -1.
        -11    1    4    4    0    0 -0.14355803518E+02 -0.20690468445E+02 -0.60422779173E+02  0.65460650945E+02  0.00000000000E+00 0. -1.
         11    1    4    4    0    0  0.32868568617E+02  0.11949027471E+02  0.15651594649E+02  0.38315720996E+02  0.00000000000E+00 0.  1.
</event>
<event>
 8    1  0.6443238E-009  0.1202030E+03  0.7561462E-02  0.1242763E+00
         -2   -1    0    0    0  501 -0.00000000000E+00  0.00000000000E+00  0.14056747671E+02  0.14056747671E+02  0.00000000000E+00 0. -1.
          2   -1    0    0  501    0  0.00000000000E+00 -0.00000000000E+00 -0.13377043425E+04  0.13377043425E+04  0.00000000000E+00 0.  1.
         25    2    1    2    0    0 -0.14860161128E+02  0.64167509528E+02 -0.94746168126E+03  0.95795062062E+03  0.12508980943E+03 0.  0.
         23    2    1    2    0    0  0.14860161128E+02 -0.64167509528E+02 -0.37618591362E+03  0.39381046960E+03  0.96086162857E+02 0.  0.
          5    1    3    3  502    0  0.24561917415E+02  0.83536570307E+02 -0.77686663176E+03  0.78174220963E+03  0.41800000000E+01 0. -1.
         -5    1    3    3    0  502 -0.39422078544E+02 -0.19369060778E+02 -0.17059504949E+03  0.17620841099E+03  0.41800000000E+01 0. -1.
        -11    1    4    4    0    0  0.44863877650E+02 -0.65136526967E+02 -0.32486787278E+03  0.33435709866E+03  0.00000000000E+00 0.  1.
         11    1    4    4    0    0 -0.30003716521E+02  0.96901743843E+00 -0.51318040840E+02  0.59453370935E+02  0.00000000000E+00 0. -1.
</event>
<event>
 8    1  0.6443238E-009  0.9813394E+02  0.7561462E-02  0.1284270E+00
          2   -1    0    0  501    0  0.00000000000E+00  0.00000000000E+00  0.25134615231E+03  0.25134615231E+03  0.00000000000E+00 0.  1.
         -2   -1    0    0    0  501 -0.00000000000E+00 -0.00000000000E+00 -0.49049845271E+02  0.49049845271E+02  0.00000000000E+00 0. -1.
         25    2    1    2    0    0 -0.51090919165E+01 -0.67498867503E+01  0.95372084081E+02  0.15752795653E+03  0.12509020296E+03 0.  0.
         23    2    1    2    0    0  0.51090919165E+01  0.67498867503E+01  0.10692422295E+03  0.14286804104E+03  0.94375971020E+02 0.  0.
          5    1    3    3  502    0 -0.49403030545E+02  0.26749635980E+02  0.12540060350E+02  0.57714192064E+02  0.41800000000E+01 0. -1.
         -5    1    3    3    0  502  0.44293938628E+02 -0.33499522731E+02  0.82832023731E+02  0.99813764471E+02  0.41800000000E+01 0. -1.
        -11    1    4    4    0    0  0.43270970642E+02  0.13829259995E+02  0.89405768311E+02  0.10028467849E+03  0.00000000000E+00 0.  1.
         11    1    4    4    0    0 -0.38161878725E+02 -0.70793732446E+01  0.17518454643E+02  0.42583362555E+02  0.00000000000E+00 0. -1.
</event>
<event>
 8    1  0.6443238E-009  0.1495974E+03  0.7561462E-02  0.1200969E+00
         -2   -1    0    0    0  501 -0.00000000000E+00  0.00000000000E+00  0.56926385396E+02  0.56926385396E+02  0.00000000000E+00 0.  1.
          2   -1    0    0  501    0  0.00000000000E+00 -0.00000000000E+00 -0.58639105092E+03  0.58639105092E+03  0.00000000000E+00 0. -1.
         25    2    1    2    0    0 -0.10852091505E+02  0.12434188758E+03 -0.14209767189E+03  0.22675530129E+03  0.12509014912E+03 0.  0.
         23    2    1    2    0    0  0.10852091505E+02 -0.12434188758E+03 -0.38736699363E+03  0.41656213503E+03  0.88837782996E+02 0.  0.
          5    1    3    3  502    0 -0.52507909647E+02  0.11699290405E+02 -0.26915423919E+02  0.60298146043E+02  0.41800000000E+01 0.  1.
         -5    1    3    3    0  502  0.41655818142E+02  0.11264259718E+03 -0.11518224798E+03  0.16645715525E+03  0.41800000000E+01 0.  1.
        -11    1    4    4    0    0  0.98626100323E+01 -0.67587685316E+02 -0.32554676299E+03  0.33263502698E+03  0.00000000000E+00 0. -1.
         11    1    4    4    0    0  0.98948147234E+00 -0.56754202265E+02 -0.61820230641E+02  0.83927108045E+02  0.00000000000E+00 0.  1.
</event>
<event>
 8    1  0.6443238E-009  0.1267311E+03  0.7561462E-02  0.1232388E+00
         -2   -1    0    0    0  501 -0.00000000000E+00  0.00000000000E+00  0.17568978623E+03  0.17568978623E+03  0.00000000000E+00 0.  1.
          2   -1    0    0  501    0  0.00000000000E+00 -0.00000000000E+00 -0.12184248303E+03  0.12184248303E+03  0.00000000000E+00 0. -1.
         25    2    1    2    0    0  0.35628435521E+02 -0.81558283313E+02 -0.11065616544E+02  0.15391968008E+03  0.12509069131E+03 0.  0.
         23    2    1    2    0    0 -0.35628435521E+02  0.81558283313E+02  0.64912919742E+02  0.14361258918E+03  0.92139837356E+02 0.  0.
          5    1    3    3  502    0  0.91357684724E+01 -0.98535480744E+02 -0.43821210744E+02  0.10830731343E+03  0.41800000000E+01 0.  1.
         -5    1    3    3    0  502  0.26492667049E+02  0.16977197431E+02  0.32755594201E+02  0.45612366650E+02  0.41800000000E+01 0.  1.
        -11    1    4    4    0    0 -0.31964130746E+02  0.99424159708E+02  0.68672778705E+02  0.12499127859E+03  0.00000000000E+00 0.  1.
         11    1    4    4    0    0 -0.36643047750E+01 -0.17865876395E+02 -0.37598589636E+01  0.18621310595E+02  0.00000000000E+00 0. -1.
</event>
<event>
 8    1  0.6443238E-009  0.9545199E+02  0.7561462E-02  0.1290161E+00
         -1   -1    0    0    0  501 -0.00000000000E+00  0.00000000000E+00  0.62775360465E+02  0.62775360465E+02  0.00000000000E+00 0.  1.
          1   -1    0    0  501    0  0.00000000000E+00 -0.00000000000E+00 -0.19982487615E+03  0.19982487615E+03  0.00000000000E+00 0. -1.
         25    2    1    2    0    0 -0.19871817310E+02  0.50431402575E+01 -0.77046885280E+02  0.14834387994E+03  0.12509740924E+03 0.  0.
         23    2    1    2    0    0  0.19871817310E+02 -0.50431402575E+01 -0.60002630404E+02  0.11425635667E+03  0.95046709555E+02 0.  0.
          5    1    3    3  502    0 -0.35864222815E+02 -0.39987267100E+02 -0.84082038147E+02  0.99862332975E+02  0.41800000000E+01 0. -1.
         -5    1    3    3    0  502  0.15992405506E+02  0.45030407357E+02  0.70351528670E+01  0.48481546969E+02  0.41800000000E+01 0. -1.
        -11    1    4    4    0    0 -0.32039515449E+02 -0.16290393372E+02 -0.47714650304E+02  0.59737721082E+02  0.00000000000E+00 0. -1.
         11    1    4    4    0    0  0.51911332759E+02  0.11247253114E+02 -0.12287980100E+02  0.54518635588E+02  0.00000000000E+00 0.  1.
</event>
<event>
 8    1  0.6443238E-009  0.1179695E+03  0.7561462E-02  0.1246485E+00
         -3   -1    0    0    0  501 -0.00000000000E+00  0.00000000000E+00  0.16459062994E+02  0.16459062994E+02  0.00000000000E+00 0.  1.
          3   -1    0    0  501    0  0.00000000000E+00 -0.00000000000E+00 -0.11902432066E+04  0.11902432066E+04  0.00000000000E+00 0. -1.
         25    2    1    2    0    0  0.87284609243E+02 -0.13451838052E+02 -0.64195649123E+03  0.65996624714E+03  0.12509098995E+03 0.  0.
         23    2    1    2    0    0 -0.87284609243E+02  0.13451838052E+02 -0.53182765240E+03  0.54673602249E+03  0.90994898016E+02 0.  0.
          5    1    3    3  502    0  0.33154878956E+02  0.25838575354E+02 -0.55772182195E+02  0.69963466764E+02  0.41800000000E+01 0.  1.
         -5    1    3    3    0  502  0.54129730287E+02 -0.39290413406E+02 -0.58618430904E+03  0.59000278037E+03  0.41800000000E+01 0.  1.
        -11    1    4    4    0    0 -0.10568053990E+03  0.19193889288E+02 -0.45927686803E+03  0.47166940054E+03  0.00000000000E+00 0.  1.
         11    1    4    4    0    0  0.18395930654E+02 -0.57420512358E+01 -0.72550784373E+02  0.75066621944E+02  0.00000000000E+00 0. -1.
</event>
<event>
 8    1  0.6443238E-009  0.1604346E+03  0.7561462E-02  0.1188207E+00
         -2   -1    0    0    0  501 -0.00000000000E+00  0.00000000000E+00  0.38269209208E+03  0.38269209208E+03  0.00000000000E+00 0.  1.
          2   -1    0    0  501    0  0.00000000000E+00 -0.00000000000E+00 -0.86194733404E+02  0.86194733404E+02  0.00000000000E+00 0. -1.
         25    2    1    2    0    0 -0.10681499616E+03 -0.98377902367E+02  0.19385971144E+03  0.27261176261E+03  0.12509168765E+03 0.  0.
         23    2    1    2    0    0  0.10681499616E+03  0.98377902367E+02  0.10263764724E+03  0.19627506287E+03  0.83076823461E+02 0.  0.
          5    1    3    3  502    0 -0.41661353338E+02 -0.84894418251E+02  0.36035915510E+02  0.10128568615E+03  0.41800000000E+01 0.  1.
         -5    1    3    3    0  502 -0.65153642818E+02 -0.13483484116E+02  0.15782379593E+03  0.17132607646E+03  0.41800000000E+01 0.  1.
        -11    1    4    4    0    0  0.72929917801E+02  0.22300996556E+02  0.78772108096E+02  0.10964101592E+03  0.00000000000E+00 0.  1.
         11    1    4    4    0    0  0.33885078355E+02  0.76076905811E+02  0.23865539147E+02  0.86634046955E+02  0.00000000000E+00 0. -1.
</event>
<event>
 8    1  0.6443238E-009  0.5508962E+02  0.7561462E-02  0.1419676E+00
          2   -1    0    0  501    0  0.00000000000E+00  0.00000000000E+00  0.15539232345E+03  0.15539232345E+03  0.00000000000E+00 0.  1.
         -2   -1    0    0    0  501 -0.00000000000E+00 -0.00000000000E+00 -0.15822099847E+03  0.15822099847E+03  0.00000000000E+00 0. -1.
         25    2    1    2    0    0 -0.12185081518E+02 -0.11535187925E+01 -0.11462033939E+03  0.17010295677E+03  0.12508951548E+03 0.  0.
         23    2    1    2    0    0  0.12185081518E+02  0.11535187925E+01  0.11179166437E+03  0.14351036514E+03  0.89151791136E+02 0.  0.
          5    1    3    3  502    0 -0.13914722089E+02 -0.22116074287E+02  0.20386240413E+02  0.33403763723E+02  0.41800000000E+01 0.  1.
         -5    1    3    3    0  502  0.17296405708E+01  0.20962555494E+02 -0.13500657981E+03  0.13669919305E+03  0.41800000000E+01 0.  1.
        -11    1    4    4    0    0 -0.26861569179E+01 -0.28750092081E+02  0.22183230836E+01  0.28960390034E+02  0.00000000000E+00 0. -1.
         11    1    4    4    0    0  0.14871238436E+02  0.29903610873E+02  0.10957334129E+03  0.11454997511E+03  0.00000000000E+00 0.  1.
</event>
<event>
 8    1  0.6443238E-009  0.1941789E+03  0.7561462E-02  0.1154745E+00
         -2   -1    0    0    0  501 -0.00000000000E+00  0.00000000000E+00  0.10189031491E+04  0.10189031491E+04  0.00000000000E+00 0.  1.
          2   -1    0    0  501    0  0.00000000000E+00 -0.00000000000E+00 -0.40639576004E+02  0.40639576004E+02  0.00000000000E+00 0. -1.
         25    2    1    2    0    0 -0.15905855350E+03  0.43081037431E+02  0.38582906791E+03  0.43779566401E+03  0.12508147165E+03 0.  0.
         23    2    1    2    0    0  0.15905855350E+03 -0.43081037431E+02  0.59243450515E+03  0.62174706107E+03  0.91843158816E+02 0.  0.
          5    1    3    3  502    0 -0.12047471282E+03 -0.26309593932E+02  0.19121582385E+03  0.22756826416E+03  0.41800000000E+01 0.  1.
         -5    1    3    3    0  502 -0.38583840684E+02  0.69390631363E+02  0.19461324406E+03  0.21022739985E+03  0.41800000000E+01 0.  1.
        -11    1    4    4    0    0  0.19787174756E+02 -0.41735857896E+02  0.10302227015E+03  0.11290262294E+03  0.00000000000E+00 0. -1.
         11    1    4    4    0    0  0.13927137874E+03 -0.13451795350E+01  0.48941223500E+03  0.50884443813E+03  0.00000000000E+00 0.  1.
</event>
<event>
 8    1  0.6443238E-009  0.1068918E+03  0.7561462E-02  0.1266436E+00
         -2   -1    0    0    0  501 -0.00000000000E+00  0.00000000000E+00  0.31260260798E+03  0.31260260798E+03  0.00000000000E+00 0.  1.
          2   -1    0    0  501    0  0.00000000000E+00 -0.00000000000E+00 -0.54719855082E+02  0.54719855082E+02  0.00000000000E+00 0. -1.
         25    2    1    2    0    0  0.19297421176E+02  0.10518571738E+02  0.23931156300E+03  0.27092373871E+03  0.12508643890E+03 0.  0.
         23    2    1    2    0    0 -0.19297421176E+02 -0.10518571738E+02  0.18571189894E+02  0.96398724345E+02  0.92004315908E+02 0.  0.
          5    1    3    3  502    0  0.45531702539E+02  0.53107837361E+02  0.94426730502E+02  0.11759021285E+03  0.41800000000E+01 0. -1.
         -5    1    3    3    0  502 -0.26234281363E+02 -0.42589265623E+02  0.14488483250E+03  0.15333352586E+03  0.41800000000E+01 0. -1.
        -11    1    4    4    0    0  0.36295909410E+02 -0.10959806463E+02  0.42423066648E+00  0.37916887652E+02  0.00000000000E+00 0.  1.
         11    1    4    4    0    0 -0.55593330586E+02  0.44123472542E+00  0.18146959227E+02  0.58481836692E+02  0.00000000000E+00 0. -1.
</event>
<event>
 8    1  0.6443238E-009  0.1104230E+03  0.7561462E-02  0.1259789E+00
          2   -1    0    0  501    0  0.00000000000E+00  0.00000000000E+00  0.15636035038E+03  0.15636035038E+03  0.00000000000E+00 0. -1.
         -2   -1    0    0    0  501 -0.00000000000E+00 -0.00000000000E+00 -0.14302730779E+03  0.14302730779E+03  0.00000000000E+00 0.  1.
         25    2    1    2    0    0  0.31518849433E+02 -0.86160610345E+02  0.52182590327E+02  0.16367240970E+03  0.12509414982E+03 0.  0.
         23    2    1    2    0    0 -0.31518849433E+02  0.86160610345E+02 -0.38849547737E+02  0.13571524848E+03  0.92153419177E+02 0.  0.
          5    1    3    3  502    0  0.82943001522E+01 -0.53177747731E+02 -0.37173368373E+02  0.65543878317E+02  0.41800000000E+01 0. -1.
         -5    1    3    3    0  502  0.23224549281E+02 -0.32982862615E+02  0.89355958700E+02  0.98128531380E+02  0.41800000000E+01 0. -1.
        -11    1    4    4    0    0 -0.57950935986E+02  0.32381400676E+02 -0.42503944333E+01  0.66520161938E+02  0.00000000000E+00 0. -1.
         11    1    4    4    0    0  0.26432086553E+02  0.53779209669E+02 -0.34599153304E+02  0.69195086542E+02  0.00000000000E+00 0.  1.
</event>
<event>
 8    1  0.6443238E-009  0.1256127E+03  0.7561462E-02  0.1234115E+00
          2   -1    0    0  501    0  0.00000000000E+00  0.00000000000E+00  0.38222449331E+03  0.38222449331E+03  0.00000000000E+00 0. -1.
         -2   -1    0    0    0  501 -0.00000000000E+00 -0.00000000000E+00 -0.10064112302E+03  0.10064112302E+03  0.00000000000E+00 0.  1.
         25    2    1    2    0    0  0.30386133118E+02  0.96550031604E+02 -0.90422159869E+01  0.16115726422E+03  0.12507868104E+03 0.  0.
         23    2    1    2    0    0 -0.30386133118E+02 -0.96550031604E+02  0.29062558628E+03  0.32170835211E+03  0.93743302309E+02 0.  0.
          5    1    3    3  502    0 -0.15913188807E+02  0.22232171414E+02  0.48828670341E+02  0.56117826678E+02  0.41800000000E+01 0. -1.
         -5    1    3    3    0  502  0.46299321925E+02  0.74317860190E+02 -0.57870886328E+02  0.10503943754E+03  0.41800000000E+01 0. -1.
        -11    1    4    4    0    0  0.20809419025E+02  0.56836017467E+01  0.69520856284E+02  0.72790691077E+02  0.00000000000E+00 0. -1.
         11    1    4    4    0    0 -0.51195552143E+02 -0.10223363335E+03  0.22110472999E+03  0.24891766103E+03  0.00000000000E+00 0.  1.
</event>
<event>
 8    1  0.6443238E-009  0.1476875E+03  0.7561462E-02  0.1203344E+00
          1   -1    0    0  501    0  0.00000000000E+00  0.00000000000E+00  0.81233550554E+02  0.81233550554E+02  0.00000000000E+00 0. -1.
         -1   -1    0    0    0  501 -0.00000000000E+00 -0.00000000000E+00 -0.36299591677E+03  0.36299591677E+03  0.00000000000E+00 0.  1.
         25    2    1    2    0    0 -0.79426368860E+02  0.10558174851E+03 -0.13693103435E+03  0.22771928068E+03  0.12509959606E+03 0.  0.
         23    2    1    2    0    0  0.79426368860E+02 -0.10558174851E+03 -0.14483133186E+03  0.21651018664E+03  0.91893920054E+02 0.  0.
          5    1    3    3  502    0 -0.70849057887E+02  0.10540343457E+03 -0.15908045627E+03  0.20360141696E+03  0.41800000000E+01 0. -1.
         -5    1    3    3    0  502 -0.85773109739E+01  0.17831394557E+00  0.22149421910E+02  0.24117863719E+02  0.41800000000E+01 0. -1.
        -11    1    4    4    0    0  0.41869345676E+00 -0.73479429879E+02 -0.84868887250E+02  0.11225920872E+03  0.00000000000E+00 0.  1.
         11    1    4    4    0    0  0.79007675404E+02 -0.32102318635E+02 -0.59962444607E+02  0.10425097792E+03  0.00000000000E+00 0. -1.
</event>
<event>
 8    1  0.6443238E-009  0.1382971E+03  0.7561462E-02  0.1215639E+00
         -3   -1    0    0    0  501 -0.00000000000E+00  0.00000000000E+00  0.13363334415E+04  0.13363334415E+04  0.00000000000E+00 0.  1.
          3   -1    0    0  501    0  0.00000000000E+00 -0.00000000000E+00 -0.23928149309E+02  0.23928149309E+02  0.00000000000E+00 0. -1.
         25    2    1    2    0    0 -0.68072374316E+02  0.45901324272E+02  0.11175611004E+04  0.11275336183E+04  0.12509383502E+03 0.  0.
         23    2    1    2    0    0  0.68072374316E+02 -0.45901324272E+02  0.19484419178E+03  0.23272797249E+03  0.97248498172E+02 0.  0.
          5    1    3    3  502    0 -0.63570894540E+02  0.87125676532E+02  0.79844805997E+03  0.80571019543E+03  0.41800000000E+01 0.  1.
         -5    1    3    3    0  502 -0.45014797766E+01 -0.41224352260E+02  0.31911304042E+03  0.32182342286E+03  0.41800000000E+01 0.  1.
        -11    1    4    4    0    0  0.62028497826E+02  0.16581735928E+02  0.10636968218E+03  0.12424571540E+03  0.00000000000E+00 0.  1.
         11    1    4    4    0    0  0.60438764905E+01 -0.62483060201E+02  0.88474509603E+02  0.10848225710E+03  0.00000000000E+00 0. -1.
</event>
<event>
 8    1  0.6443238E-009  0.9110863E+02  0.7561462E-02  0.1300189E+00
          1   -1    0    0  501    0  0.00000000000E+00  0.00000000000E+00  0.21471992565E+04  0.21471992565E+04  0.00000000000E+00 0. -1.
         -1   -1    0    0    0  501 -0.00000000000E+00 -0.00000000000E+00 -0.10938519041E+02  0.10938519041E+02  0.00000000000E+00 0.  1.
         25    2    1    2    0    0  0.61020428452E+02  0.23494389130E+01  0.17879608157E+04  0.17933712951E+04  0.12509081123E+03 0.  0.
         23    2    1    2    0    0 -0.61020428452E+02 -0.23494389130E+01  0.34829992175E+03  0.36476648043E+03  0.89513893923E+02 0.  0.
          5    1    3    3  502    0  0.81662810012E+02  0.25578424329E+00  0.63838055743E+03  0.64359621540E+03  0.41800000000E+01 0.  1.
         -5    1    3    3    0  502 -0.20642381560E+02  0.20936546697E+01  0.11495802583E+04  0.11497750797E+04  0.41800000000E+01 0.  1.
        -11    1    4    4    0    0  0.58896616628E+01 -0.10336690508E+02  0.21139451308E+01  0.12083213529E+02  0.00000000000E+00 0.  1.
         11    1    4    4    0    0 -0.66910090115E+02  0.79872515950E+01  0.34618597662E+03  0.35268326690E+03  0.00000000000E+00 0. -1.
</event>
<event>
 7    1  0.6443238E-009  0.1489784E+03  0.7561462E-02  0.1201734E+00
          2   -1    0    0  501    0  0.00000000000E+00  0.00000000000E+00  0.72090107534E+03  0.72090107534E+03  0.00000000000E+00 0. -1.
         -2   -1    0    0    0  501 -0.00000000000E+00 -0.00000000000E+00 -0.42240225975E+02  0.42240225975E+02  0.00000000000E+00 0.  1.
         23    2    1    2    0    0 -0.10350376048E+03  0.26898099670E+02  0.50314173186E+03  0.52246722719E+03  0.91563447655E+02 0.  0.
          5    1    1    2  502    0 -0.26831209267E+02 -0.18489750237E+02  0.47400196005E+02  0.57671792377E+02  0.41800000000E+01 0. -1.
         -5    1    1    2    0  502  0.13033496975E+03 -0.84083494330E+01  0.12811892150E+03  0.18300228175E+03  0.41800000000E+01 0. -1.
        -11    1    3    3    0    0 -0.42751346304E+02 -0.29174870313E+02  0.27451378037E+03  0.27935043633E+03  0.00000000000E+00 0. -1.
         11    1    3    3    0    0 -0.60752414180E+02  0.56072969983E+02  0.22862795149E+03  0.24311679085E+03  0.00000000000E+00 0.  1.
</event>
<event>
 8    1  0.6443238E-009  0.1000679E+03  0.7561462E-02  0.1280153E+00
          2   -1    0    0  501    0  0.00000000000E+00  0.00000000000E+00  0.24209300056E+03  0.24209300056E+03  0.00000000000E+00 0. -1.
         -2   -1    0    0    0  501 -0.00000000000E+00 -0.00000000000E+00 -0.52499061526E+02  0.52499061526E+02  0.00000000000E+00 0.  1.
         25    2    1    2    0    0  0.21852910649E+02 -0.27283454372E+02  0.11584541479E+03  0.17405489203E+03  0.12511198475E+03 0.  0.
         23    2    1    2    0    0 -0.21852910649E+02  0.27283454372E+02  0.73748524244E+02  0.12053717005E+03  0.88704159708E+02 0.  0.
          5    1    3    3  502    0  0.73285097369E+02 -0.46404296290E+01  0.65145459004E+02  0.98252950654E+02  0.41800000000E+01 0.  1.
         -5    1    3    3    0  502 -0.51432186719E+02 -0.22643024743E+02  0.50699955784E+02  0.75801941378E+02  0.41800000000E+01 0.  1.
        -11    1    4    4    0    0  0.14842949491E+01  0.42401711666E+02  0.76337223513E+00  0.42434549849E+02  0.00000000000E+00 0.  1.
         11    1    4    4    0    0 -0.23337205598E+02 -0.15118257294E+02  0.72985152009E+02  0.78102620202E+02  0.00000000000E+00 0. -1.
</event>
<event>
 8    1  0.6443238E-009  0.1464437E+03  0.7561462E-02  0.1204912E+00
         -1   -1    0    0    0  501 -0.00000000000E+00  0.00000000000E+00  0.41234093556E+03  0.41234093556E+03  0.00000000000E+00 0.  1.
          1   -1    0    0  501    0  0.00000000000E+00 -0.00000000000E+00 -0.60136884716E+02  0.60136884716E+02  0.00000000000E+00 0. -1.
         25    2    1    2    0    0 -0.39890749798E+02  0.10896606391E+03  0.20985659618E+03  0.27046621932E+03  0.12508920748E+03 0.  0.
         23    2    1    2    0    0  0.39890749798E+02 -0.10896606391E+03  0.14234745466E+03  0.20201160096E+03  0.84148761550E+02 0.  0.
          5    1    3    3  502    0 -0.69538965113E+02  0.48714721343E+02  0.17531325019E+03  0.19483582791E+03  0.41800000000E+01 0.  1.
         -5    1    3    3    0  502  0.29648215315E+02  0.60251342564E+02  0.34543345991E+02  0.75630391407E+02  0.41800000000E+01 0.  1.
        -11    1    4    4    0    0 -0.12646754108E+02 -0.79223963887E+02  0.10030714761E+03  0.12844415403E+03  0.00000000000E+00 0.  1.
         11    1    4    4    0    0  0.52537503905E+02 -0.29742100020E+02  0.42040307049E+02  0.73567446925E+02  0.00000000000E+00 0. -1.
</event>
<event>
 7    1  0.6443238E-009  0.1113301E+03  0.7561462E-02  0.1258126E+00
         -2   -1    0    0    0  501 -0.00000000000E+00  0.00000000000E+00  0.26935196862E+02  0.26935196862E+02  0.00000000000E+00 0.  1.
          2   -1    0    0  501    0  0.00000000000E+00 -0.00000000000E+00 -0.55409189772E+03  0.55409189772E+03  0.00000000000E+00 0. -1.
         23    2    1    2    0    0  0.23871046422E+02 -0.28721218027E+01 -0.35192312538E+03  0.36479471106E+03  0.92990424765E+02 0.  0.
          5    1    1    2  502    0  0.50422265855E+02 -0.88262699181E+01 -0.70303763269E+02  0.87065489514E+02  0.41800000000E+01 0.  1.
         -5    1    1    2    0  502 -0.74293312277E+02  0.11698391721E+02 -0.10492981221E+03  0.12916689401E+03  0.41800000000E+01 0.  1.
        -11    1    3    3    0    0 -0.20681291293E+02  0.32886073468E+02 -0.13555382835E+03  0.14101081525E+03  0.00000000000E+00 0.  1.
         11    1    3    3    0    0  0.44552337715E+02 -0.35758195271E+02 -0.21636929703E+03  0.22378389581E+03  0.00000000000E+00 0. -1.
</event>
<event>
 8    1  0.6443238E-009  0.1076779E+03  0.7561462E-02  0.1264931E+00
         -1   -1    0    0    0  501 -0.00000000000E+00  0.00000000000E+00  0.17902235217E+02  0.17902235217E+02  0.00000000000E+00 0.  1.
          1   -1    0    0  501    0  0.00000000000E+00 -0.00000000000E+00 -0.91602649509E+03  0.91602649509E+03  0.00000000000E+00 0. -1.
         25    2    1    2    0    0 -0.28999442022E+02  0.62549833518E+02 -0.45843690513E+03  0.48017244423E+03  0.12509089056E+03 0.  0.
         23    2    1    2    0    0  0.28999442022E+02 -0.62549833518E+02 -0.43968735475E+03  0.45375628608E+03  0.88410112115E+02 0.  0.
          5    1    3    3  502    0  0.23084413524E+02  0.14363465418E+01 -0.11695322234E+02  0.26252737025E+02  0.41800000000E+01 0. -1.
         -5    1    3    3    0  502 -0.52083855546E+02  0.61113486976E+02 -0.44674158289E+03  0.45391970720E+03  0.41800000000E+01 0. -1.
        -11    1    4    4    0    0  0.15692364769E+01  0.22257885407E+02 -0.69733038763E+02  0.73215931743E+02  0.00000000000E+00 0.  1.
         11    1    4    4    0    0  0.27430205545E+02 -0.84807718924E+02 -0.36995431598E+03  0.38054035434E+03  0.00000000000E+00 0. -1.
</event>
<event>
 8    1  0.6443238E-009  0.1223337E+03  0.7561462E-02  0.1239296E+00
         -2   -1    0    0    0  501 -0.00000000000E+00  0.00000000000E+00  0.19783837702E+02  0.19783837702E+02  0.00000000000E+00 0.  1.
          2   -1    0    0  501    0  0.00000000000E+00 -0.00000000000E+00 -0.91738086580E+03  0.91738086580E+03  0.00000000000E+00 0. -1.
         25    2    1    2    0    0  0.34942572639E+02  0.68009544629E+02 -0.58797334900E+03  0.60597710433E+03  0.12509720335E+03 0.  0.
         23    2    1    2    0    0 -0.34942572639E+02 -0.68009544629E+02 -0.30962367909E+03  0.33118759918E+03  0.89286738376E+02 0.  0.
          5    1    3    3  502    0  0.69900720799E+02  0.56919633076E+02 -0.24621818029E+03  0.26223428476E+03  0.41800000000E+01 0.  1.
         -5    1    3    3    0  502 -0.34958148160E+02  0.11089911552E+02 -0.34175516871E+03  0.34374281957E+03  0.41800000000E+01 0.  1.
        -11    1    4    4    0    0 -0.95409082964E+01  0.22004790497E+02 -0.59869145319E+02  0.64494606729E+02  0.00000000000E+00 0.  1.
         11    1    4    4    0    0 -0.25401664342E+02 -0.90014335126E+02 -0.24975453378E+03  0.26669299245E+03  0.00000000000E+00 0. -1.
</event>
<event>
 8    1  0.6443238E-009  0.1887022E+03  0.7561462E-02  0.1159637E+00
          2   -1    0    0  501    0  0.00000000000E+00  0.00000000000E+00  0.11327536794E+04  0.11327536794E+04  0.00000000000E+00 0.  1.
         -2   -1    0    0    0  501 -0.00000000000E+00 -0.00000000000E+00 -0.33835212947E+02  0.33835212947E+02  0.00000000000E+00 0. -1.
         25    2    1    2    0    0  0.99621816532E+01 -0.16321476332E+03  0.61627126416E+03  0.64975017821E+03  0.12508684595E+03 0.  0.
         23    2    1    2    0    0 -0.99621816532E+01  0.16321476332E+03  0.48264720231E+03  0.51683871415E+03  0.86230102169E+02 0.  0.
          5    1    3    3  502    0  0.61846686357E+02 -0.45385989218E+02  0.24543476507E+03  0.25717814241E+03  0.41800000000E+01 0. -1.
         -5    1    3    3    0  502 -0.51884504704E+02 -0.11782877410E+03  0.37083649909E+03  0.39257203580E+03  0.41800000000E+01 0. -1.
        -11    1    4    4    0    0  0.15921092297E+02  0.12241444524E+03  0.24515106617E+03  0.27447736306E+03  0.00000000000E+00 0. -1.
         11    1    4    4    0    0 -0.25883273950E+02  0.40800318076E+02  0.23749613614E+03  0.24236135110E+03  0.00000000000E+00 0.  1.
</event>
<event>
 8    1  0.6443238E-009  0.1180282E+03  0.7561462E-02  0.1246386E+00
          1   -1    0    0  501    0  0.00000000000E+00  0.00000000000E+00  0.32547570904E+03  0.32547570904E+03  0.00000000000E+00 0. -1.
         -1   -1    0    0    0  501 -0.00000000000E+00 -0.00000000000E+00 -0.43516697657E+02  0.43516697657E+02  0.00000000000E+00 0.  1.
         25    2    1    2    0    0 -0.32095264081E+02  0.36391372197E+02  0.15134800251E+03  0.20226557546E+03  0.12510278656E+03 0.  0.
         23    2    1    2    0    0  0.32095264081E+02 -0.36391372197E+02  0.13061100887E+03  0.16672683123E+03  0.91565073413E+02 0.  0.
          5    1    3    3  502    0  0.30278199453E+02 -0.28887139766E+02  0.63933089956E+02  0.76525476786E+02  0.41800000000E+01 0.  1.
         -5    1    3    3    0  502 -0.62373463534E+02  0.65278511963E+02  0.87414912554E+02  0.12574009867E+03  0.41800000000E+01 0.  1.
        -11    1    4    4    0    0 -0.32173834930E+02 -0.69060020337E+01  0.40376580243E+02  0.52087587297E+02  0.00000000000E+00 0.  1.
         11    1    4    4    0    0  0.64269099011E+02 -0.29485370163E+02  0.90234428625E+02  0.11463924394E+03  0.00000000000E+00 0. -1.
</event>
<event>
 8    1  0.6443238E-009  0.4423215E+03  0.7561462E-02  0.1030037E+00
          1   -1    0    0  501    0  0.00000000000E+00  0.00000000000E+00  0.43663390566E+03  0.43663390566E+03  0.00000000000E+00 0. -1.
         -1   -1    0    0    0  501 -0.00000000000E+00 -0.00000000000E+00 -0.75573268962E+03  0.75573268962E+03  0.00000000000E+00 0.  1.
         25    2    1    2    0    0  0.35434680998E+03 -0.25277554613E+03 -0.53251782889E+03  0.69905668478E+03  0.12509145449E+03 0.  0.
         23    2    1    2    0    0 -0.35434680998E+03  0.25277554613E+03  0.21341904492E+03  0.49330991050E+03  0.91377462207E+02 0.  0.
          5    1    3    3  502    0  0.23805152582E+03 -0.12543884668E+03 -0.39735886532E+03  0.47991142250E+03  0.41800000000E+01 0. -1.
         -5    1    3    3    0  502  0.11629528416E+03 -0.12733669945E+03 -0.13515896357E+03  0.21914526227E+03  0.41800000000E+01 0. -1.
        -11    1    4    4    0    0 -0.13401743108E+03  0.14602667260E+03  0.11714777885E+03  0.23023479979E+03  0.00000000000E+00 0. -1.
         11    1    4    4    0    0 -0.22032937889E+03  0.10674887353E+03  0.96271266075E+02  0.26307511071E+03  0.00000000000E+00 0.  1.
</event>
<event>
 8    1  0.6443238E-009  0.1181690E+03  0.7561462E-02  0.1246149E+00
          4   -1    0    0  501    0  0.00000000000E+00  0.00000000000E+00  0.13866151919E+04  0.13866151919E+04  0.00000000000E+00 0. -1.
         -4   -1    0    0    0  501 -0.00000000000E+00 -0.00000000000E+00 -0.15014726465E+02  0.15014726465E+02  0.00000000000E+00 0.  1.
         25    2    1    2    0    0 -0.31266203187E+02  0.67119974724E+02  0.11086067921E+04  0.11180961573E+04  0.12508929269E+03 0.  0.
         23    2    1    2    0    0  0.31266203187E+02 -0.67119974724E+02  0.26299367338E+03  0.28353376105E+03  0.75782946291E+02 0.  0.
          5    1    3    3  502    0 -0.30187603778E+02 -0.26082490111E+02  0.57469813067E+03  0.57609634742E+03  0.41800000000E+01 0. -1.
         -5    1    3    3    0  502 -0.10785994090E+01  0.93202464834E+02  0.53390866138E+03  0.54199980989E+03  0.41800000000E+01 0. -1.
        -11    1    4    4    0    0 -0.37019198334E+01 -0.67845904144E+02  0.13926282117E+03  0.15495452326E+03  0.00000000000E+00 0.  1.
         11    1    4    4    0    0  0.34968123020E+02  0.72592942044E+00  0.12373085221E+03  0.12857923779E+03  0.00000000000E+00 0. -1.
</event>
<event>
 8    1  0.6443238E-009  0.2473457E+03  0.7561462E-02  0.1114994E+00
         -2   -1    0    0    0  501 -0.00000000000E+00  0.00000000000E+00  0.31502398265E+02  0.31502398265E+02  0.00000000000E+00 0.  1.
          2   -1    0    0  501    0  0.00000000000E+00 -0.00000000000E+00 -0.21158055794E+04  0.21158055794E+04  0.00000000000E+00 0. -1.
         25    2    1    2    0    0  0.22426881735E+03  0.52969967126E+02 -0.99923719218E+03  0.10330655502E+04  0.12508854792E+03 0.  0.
         23    2    1    2    0    0 -0.22426881735E+03 -0.52969967126E+02 -0.10850659889E+04  0.11142424275E+04  0.10519347428E+03 0.  0.
          5    1    3    3  502    0  0.14750254785E+03 -0.24025517602E+02 -0.48844841268E+03  0.51081655354E+03  0.41800000000E+01 0.  1.
         -5    1    3    3    0  502  0.76766269502E+02  0.76995484728E+02 -0.51078877950E+03  0.52224899662E+03  0.41800000000E+01 0.  1.
        -11    1    4    4    0    0 -0.12503383691E+03 -0.56220262492E+02 -0.81612079002E+03  0.82755502669E+03  0.00000000000E+00 0. -1.
         11    1    4    4    0    0 -0.99234980439E+02  0.32502953652E+01 -0.26894519888E+03  0.28668740077E+03  0.00000000000E+00 0.  1.
</event>
<event>
 8    1  0.6443238E-009  0.2257109E+03  0.7561462E-02  0.1129696E+00
          1   -1    0    0  501    0  0.00000000000E+00  0.00000000000E+00  0.56210888779E+03  0.56210888779E+03  0.00000000000E+00 0.  1.
         -1   -1    0    0    0  501 -0.00000000000E+00 -0.00000000000E+00 -0.10896836815E+03  0.10896836815E+03  0.00000000000E+00 0. -1.
         25    2    1    2    0    0 -0.16016942861E+03 -0.13312556408E+03  0.12880178857E+03  0.27497940616E+03  0.12508841435E+03 0.  0.
         23    2    1    2    0    0  0.16016942861E+03  0.13312556408E+03  0.32433873107E+03  0.39609784978E+03  0.91220789619E+02 0.  0.
          5    1    3    3  502    0  0.10187566106E+02 -0.53880960178E+02  0.27661348559E+02  0.61559458875E+02  0.41800000000E+01 0. -1.
         -5    1    3    3    0  502 -0.17035699471E+03 -0.79244603898E+02  0.10114044001E+03  0.21341994728E+03  0.41800000000E+01 0. -1.
        -11    1    4    4    0    0  0.13535885908E+03  0.10779079362E+03  0.31505165188E+03  0.35944181625E+03  0.00000000000E+00 0.  1.
         11    1    4    4    0    0  0.24810569523E+02  0.25334770458E+02  0.92870791969E+01  0.36656033531E+02  0.00000000000E+00 0. -1.
</event>
<event>
 8    1  0.6443238E-009  0.1487935E+03  0.7561462E-02  0.1201963E+00
          1   -1    0    0  501    0  0.00000000000E+00  0.00000000000E+00  0.18286009980E+03  0.18286009980E+03  0.00000000000E+00 0. -1.
         -1   -1    0    0    0  501 -0.00000000000E+00 -0.00000000000E+00 -0.13009476704E+03  0.13009476704E+03  0.00000000000E+00 0.  1.
         25    2    1    2    0    0 -0.91690999156E+02 -0.55123615404E+02  0.53443619887E+01  0.16468696280E+03  0.12508949280E+03 0.  0.
         23    2    1    2    0    0  0.91690999156E+02  0.55123615404E+02  0.47420970779E+02  0.14826790404E+03  0.91042685585E+02 0.  0.
          5    1    3    3  502    0  0.28923708694E+02 -0.14677996384E+02  0.17022748100E+02  0.36868290649E+02  0.41800000000E+01 0.  1.
         -5    1    3    3    0  502 -0.12061470785E+03 -0.40445619019E+02 -0.11678386112E+02  0.12781867215E+03  0.41800000000E+01 0.  1.
        -11    1    4    4    0    0  0.12614898769E+02  0.57122058507E+02  0.35077671570E+02  0.68209297620E+02  0.00000000000E+00 0.  1.
         11    1    4    4    0    0  0.79076100387E+02 -0.19984431028E+01  0.12343299208E+02  0.80058606424E+02  0.00000000000E+00 0. -1.
</event>
<event>
 8    1  0.6443238E-009  0.1160770E+03  0.7561462E-02  0.1249713E+00
         -2   -1    0    0    0  501 -0.00000000000E+00  0.00000000000E+00  0.50293365058E+03  0.50293365058E+03  0.00000000000E+00 0.  1.
          2   -1    0    0  501    0  0.00000000000E+00 -0.00000000000E+00 -0.28543941508E+02  0.28543941508E+02  0.00000000000E+00 0. -1.
         25    2    1    2    0    0 -0.24797493419E+02 -0.26832296969E+02  0.30734390151E+03  0.33383074454E+03  0.12509118421E+03 0.  0.
         23    2    1    2    0    0  0.24797493419E+02  0.26832296969E+02  0.16704580756E+03  0.19764684754E+03  0.99121575245E+02 0.  0.
          5    1    3    3  502    0 -0.45008719580E+02 -0.69342011808E+02  0.20614152168E+03  0.22213936797E+03  0.41800000000E+01 0. -1.
         -5    1    3    3    0  502  0.20211226161E+02  0.42509714840E+02  0.10120237983E+03  0.11169137658E+03  0.41800000000E+01 0. -1.
        -11    1    4    4    0    0 -0.19433890018E+02  0.48953534891E+02  0.11125285217E+03  0.12309070548E+03  0.00000000000E+00 0.  1.
         11    1    4    4    0    0  0.44231383437E+02 -0.22121237923E+02  0.55792955396E+02  0.74556142067E+02  0.00000000000E+00 0. -1.
</event>
<event>
 8    1  0.6443238E-009  0.8573413E+02  0.7561462E-02  0.1313524E+00
         -2   -1    0    0    0  501 -0.00000000000E+00  0.00000000000E+00  0.79411473696E+02  0.79411473696E+02  0.00000000000E+00 0. -1.
          2   -1    0    0  501    0  0.00000000000E+00 -0.00000000000E+00 -0.25822861060E+03  0.25822861060E+03  0.00000000000E+00 0.  1.
         25    2    1    2    0    0  0.11418205976E+02 -0.42269707621E+02 -0.19520121456E+03  0.23594247134E+03  0.12509289351E+03 0.  0.
         23    2    1    2    0    0 -0.11418205976E+02  0.42269707621E+02  0.16384077649E+02  0.10169761296E+03  0.90315352358E+02 0.  0.
          5    1    3    3  502    0  0.48834635802E+02 -0.30655805823E+02 -0.28135466858E+02  0.64293677604E+02  0.41800000000E+01 0. -1.
         -5    1    3    3    0  502 -0.37416429826E+02 -0.11613901798E+02 -0.16706574770E+03  0.17164879373E+03  0.41800000000E+01 0. -1.
        -11    1    4    4    0    0 -0.27171932526E+02  0.49850601494E+02 -0.20914756449E+02  0.60504738854E+02  0.00000000000E+00 0.  1.
         11    1    4    4    0    0  0.15753726550E+02 -0.75808938732E+01  0.37298834098E+02  0.41192874107E+02  0.00000000000E+00 0. -1.
</event>
<event>
 8    1  0.6443238E-009  0.1026418E+03  0.7561462E-02  0.1274837E+00
          1   -1    0    0  501    0  0.00000000000E+00  0.00000000000E+00  0.55282831563E+03  0.55282831563E+03  0.00000000000E+00 0. -1.
         -1   -1    0    0    0  501 -0.00000000000E+00 -0.00000000000E+00 -0.28345453755E+02  0.28345453755E+02  0.00000000000E+00 0.  1.
         25    2    1    2    0    0  0.19681206313E+02  0.15228983072E+02  0.15374744821E+03  0.19974591249E+03  0.12506350353E+03 0.  0.
         23    2    1    2    0    0 -0.19681206313E+02 -0.15228983072E+02  0.37073541366E+03  0.38142785689E+03  0.86157943724E+02 0.  0.
          5    1    3    3  502    0  0.67174601476E+02  0.82137354209E+01  0.12862085021E+03  0.14539837702E+03  0.41800000000E+01 0. -1.
         -5    1    3    3    0  502 -0.47493395163E+02  0.70152476513E+01  0.25126598007E+02  0.54347535465E+02  0.41800000000E+01 0. -1.
        -11    1    4    4    0    0 -0.22718312287E+02  0.33494055504E+02  0.15049590224E+03  0.15584283768E+03  0.00000000000E+00 0. -1.
         11    1    4    4    0    0  0.30371059737E+01 -0.48723038576E+02  0.22023951142E+03  0.22558501921E+03  0.00000000000E+00 0.  1.
</event>
<event>
 8    1  0.6443238E-009  0.1301785E+03  0.7561462E-02  0.1227191E+00
          1   -1    0    0  501    0  0.00000000000E+00  0.00000000000E+00  0.26134718918E+03  0.26134718918E+03  0.00000000000E+00 0. -1.
         -1   -1    0    0    0  501 -0.00000000000E+00 -0.00000000000E+00 -0.68198875306E+02  0.68198875306E+02  0.00000000000E+00 0.  1.
         25    2    1    2    0    0  0.65510045787E+02  0.36752470289E+02  0.12696102714E+03  0.19341268810E+03  0.12508819024E+03 0.  0.
         23    2    1    2    0    0 -0.65510045787E+02 -0.36752470289E+02  0.66187286739E+02  0.13613337638E+03  0.92245482645E+02 0.  0.
          5    1    3    3  502    0  0.58212447984E+02  0.81575530388E+02  0.87481478947E+02  0.13309296682E+03  0.41800000000E+01 0.  1.
         -5    1    3    3    0  502  0.72975978034E+01 -0.44823060099E+02  0.39479548189E+02  0.60319721282E+02  0.41800000000E+01 0.  1.
        -11    1    4    4    0    0 -0.74063564240E+02 -0.56351776779E+02  0.37459491192E+02  0.10032022615E+03  0.00000000000E+00 0.  1.
         11    1    4    4    0    0  0.85535184524E+01  0.19599306490E+02  0.28727795547E+02  0.35813150236E+02  0.00000000000E+00 0. -1.
</event>
<event>
 8    1  0.6443238E-009  0.9417751E+02  0.7561462E-02  0.1293039E+00
         -2   -1    0    0    0  501 -0.00000000000E+00  0.00000000000E+00  0.17178316339E+02  0.17178316339E+02  0.00000000000E+00 0.  1.
          2   -1    0    0  501    0  0.00000000000E+00 -0.00000000000E+00 -0.69100238719E+03  0.69100238719E+03  0.00000000000E+00 0. -1.
         25    2    1    2    0    0 -0.77557522537E+01 -0.22715030929E+02 -0.53823649883E+03  0.55310023016E+03  0.12508082033E+03 0.  0.
         23    2    1    2    0    0  0.77557522537E+01  0.22715030929E+02 -0.13558757203E+03  0.15508047337E+03  0.71343109048E+02 0.  0.
          5    1    3    3  502    0  0.34659533273E+02  0.38559650796E+02 -0.19292827454E+03  0.19981722006E+03  0.41800000000E+01 0.  1.
         -5    1    3    3    0  502 -0.42415285526E+02 -0.61274681725E+02 -0.34530822429E+03  0.35328301010E+03  0.41800000000E+01 0.  1.
        -11    1    4    4    0    0 -0.37424996178E+01 -0.18518559931E+02 -0.80243419238E+01  0.20526408079E+02  0.00000000000E+00 0.  1.
         11    1    4    4    0    0  0.11498251871E+02  0.41233590860E+02 -0.12756323010E+03  0.13455406529E+03  0.00000000000E+00 0. -1.
</event>
<event>
 8    1  0.6443238E-009  0.8051520E+02  0.7561462E-02  0.1327596E+00
         -1   -1    0    0    0  501 -0.00000000000E+00  0.00000000000E+00  0.22470984872E+02  0.22470984872E+02  0.00000000000E+00 0.  1.
          1   -1    0    0  501    0  0.00000000000E+00 -0.00000000000E+00 -0.95481636166E+03  0.95481636166E+03  0.00000000000E+00 0. -1.
         25    2    1    2    0    0  0.68427491221E+01  0.74154451853E+02 -0.72046509700E+03  0.73502584598E+03  0.12508929737E+03 0.  0.
         23    2    1    2    0    0 -0.68427491221E+01 -0.74154451853E+02 -0.21188027978E+03  0.24226150055E+03  0.90838734810E+02 0.  0.
          5    1    3    3  502    0 -0.66589564548E+01  0.47866534003E+02 -0.77902666078E+02  0.91770608370E+02  0.41800000000E+01 0.  1.
         -5    1    3    3    0  502  0.13501705577E+02  0.26287917850E+02 -0.64256243092E+03  0.64325523761E+03  0.41800000000E+01 0.  1.
        -11    1    4    4    0    0  0.12852456982E+02 -0.12408959837E+02  0.27353511803E+01  0.18073463442E+02  0.00000000000E+00 0.  1.
         11    1    4    4    0    0 -0.19695206104E+02 -0.61745492016E+02 -0.21461563096E+03  0.22418803711E+03  0.00000000000E+00 0. -1.
</event>
<event>
 8    1  0.6443238E-009  0.2072957E+03  0.7561462E-02  0.1143726E+00
         -1   -1    0    0    0  501 -0.00000000000E+00  0.00000000000E+00  0.66550477362E+03  0.66550477362E+03  0.00000000000E+00 0.  1.
          1   -1    0    0  501    0  0.00000000000E+00 -0.00000000000E+00 -0.72045237284E+02  0.72045237284E+02  0.00000000000E+00 0. -1.
         25    2    1    2    0    0 -0.13820530470E+03  0.12843888653E+03  0.34256178681E+03  0.41060259160E+03  0.12509459073E+03 0.  0.
         23    2    1    2    0    0  0.13820530470E+03 -0.12843888653E+03  0.25089774953E+03  0.32694741930E+03  0.91365641520E+02 0.  0.
          5    1    3    3  502    0 -0.12927240810E+03  0.68898081586E+02  0.30792269633E+03  0.34101636392E+03  0.41800000000E+01 0.  1.
         -5    1    3    3    0  502 -0.89328965988E+01  0.59540804940E+02  0.34639090474E+02  0.69586227685E+02  0.41800000000E+01 0.  1.
        -11    1    4    4    0    0  0.12432505005E+03 -0.14169129902E+03  0.21275929033E+03  0.28425280634E+03  0.00000000000E+00 0. -1.
         11    1    4    4    0    0  0.13880254647E+02  0.13252412497E+02  0.38138459202E+02  0.42694612966E+02  0.00000000000E+00 0.  1.
</event>
<event>
 8    1  0.6443238E-009  0.7512255E+02  0.7561462E-02  0.1343492E+00
         -3   -1    0    0    0  501 -0.00000000000E+00  0.00000000000E+00  0.28182694723E+03  0.28182694723E+03  0.00000000000E+00 0.  1.
          3   -1    0    0  501    0  0.00000000000E+00 -0.00000000000E+00 -0.43641038413E+02  0.43641038413E+02  0.00000000000E+00 0. -1.
         25    2    1    2    0    0 -0.59061319529E+01  0.19501736879E+02  0.12408084654E+03  0.17736950001E+03  0.12509469581E+03 0.  0.
         23    2    1    2    0    0  0.59061319529E+01 -0.19501736879E+02  0.11410506228E+03  0.14809848563E+03  0.92184576115E+02 0.  0.
          5    1    3    3  502    0  0.26251651407E+02  0.40013070763E+01  0.13666807351E+03  0.13928673438E+03  0.41800000000E+01 0.  1.
         -5    1    3    3    0  502 -0.32157783360E+02  0.15500429802E+02 -0.12587226968E+02  0.38082765622E+02  0.41800000000E+01 0.  1.
        -11    1    4    4    0    0  0.44812878158E+02 -0.22740198257E+01  0.30399067598E+02  0.54198418112E+02  0.00000000000E+00 0. -1.
         11    1    4    4    0    0 -0.38906746206E+02 -0.17227717053E+02  0.83705994679E+02  0.93900067521E+02  0.00000000000E+00 0.  1.
</event>
<event>
 8    1  0.6443238E-009  0.1205343E+03  0.7561462E-02  0.1242218E+00
          4   -1    0    0  501    0  0.00000000000E+00  0.00000000000E+00  0.53763829723E+02  0.53763829723E+02  0.00000000000E+00 0. -1.
         -4   -1    0    0    0  501 -0.00000000000E+00 -0.00000000000E+00 -0.33825714829E+03  0.33825714829E+03  0.00000000000E+00 0.  1.
         25    2    1    2    0    0 -0.54550063981E+02 -0.44718624471E+02 -0.16959821435E+03  0.22224023619E+03  0.12510676806E+03 0.  0.
         23    2    1    2    0    0  0.54550063981E+02  0.44718624471E+02 -0.11489510422E+03  0.16978074183E+03  0.10319472112E+03 0.  0.
          5    1    3    3  502    0 -0.10451300511E+02 -0.83053531663E+02 -0.85296543332E+02  0.11958299005E+03  0.41800000000E+01 0.  1.
         -5    1    3    3    0  502 -0.44098763470E+02  0.38334907191E+02 -0.84301671016E+02  0.10265724614E+03  0.41800000000E+01 0.  1.
        -11    1    4    4    0    0  0.54927740200E+01 -0.18131603086E+02 -0.80930452517E+02  0.83118371865E+02  0.00000000000E+00 0.  1.
         11    1    4    4    0    0  0.49057289961E+02  0.62850227557E+02 -0.33964651702E+02  0.86662369963E+02  0.00000000000E+00 0. -1.
</event>
<event>
 8    1  0.6443238E-009  0.1118286E+03  0.7561462E-02  0.1257221E+00
         -1   -1    0    0    0  501 -0.00000000000E+00  0.00000000000E+00  0.21409819617E+03  0.21409819617E+03  0.00000000000E+00 0.  1.
          1   -1    0    0  501    0  0.00000000000E+00 -0.00000000000E+00 -0.12541751029E+03  0.12541751029E+03  0.00000000000E+00 0. -1.
         25    2    1    2    0    0 -0.89394345168E+00 -0.11020481089E+03 -0.75280858809E+01  0.16688433422E+03  0.12509120454E+03 0.  0.
         23    2    1    2    0    0  0.89394345168E+00  0.11020481089E+03  0.96208771761E+02  0.17263137224E+03  0.91649132225E+02 0.  0.
          5    1    3    3  502    0 -0.10023608271E+02 -0.21419478900E+02  0.53525420173E+02  0.58666087340E+02  0.41800000000E+01 0. -1.
         -5    1    3    3    0  502  0.91296648189E+01 -0.88785331991E+02 -0.61053506053E+02  0.10821824688E+03  0.41800000000E+01 0. -1.
        -11    1    4    4    0    0  0.26200139691E+01  0.65448620708E+02 -0.10991728549E+01  0.65510263370E+02  0.00000000000E+00 0. -1.
         11    1    4    4    0    0 -0.17260705174E+01  0.44756190182E+02  0.97307944616E+02  0.10712110887E+03  0.00000000000E+00 0.  1.
</event>
<event>
 8    1  0.6443238E-009  0.1306445E+03  0.7561462E-02  0.1226502E+00
          1   -1    0    0  501    0  0.00000000000E+00  0.00000000000E+00  0.18097737882E+03  0.18097737882E+03  0.00000000000E+00 0. -1.
         -1   -1    0    0    0  501 -0.00000000000E+00 -0.00000000000E+00 -0.18159268126E+03  0.18159268126E+03  0.00000000000E+00 0.  1.
         25    2    1    2    0    0  0.78211413761E+02 -0.81531718704E+02 -0.80464803095E+02  0.18676257427E+03  0.12506489602E+03 0.  0.
         23    2    1    2    0    0 -0.78211413761E+02  0.81531718704E+02  0.79849500652E+02  0.17580748580E+03  0.10847987331E+03 0.  0.
          5    1    3    3  502    0  0.72292004825E+02 -0.10192019855E+03 -0.98044201320E+02  0.15888360094E+03  0.41800000000E+01 0.  1.
         -5    1    3    3    0  502  0.59194089362E+01  0.20388479844E+02  0.17579398225E+02  0.27878973340E+02  0.41800000000E+01 0.  1.
        -11    1    4    4    0    0 -0.32198872617E+02  0.20417232781E+02  0.90845732678E+02  0.98521966779E+02  0.00000000000E+00 0. -1.
         11    1    4    4    0    0 -0.46012541144E+02  0.61114485923E+02 -0.10996232026E+02  0.77285519025E+02  0.00000000000E+00 0.  1.
</event>
<event>
 8    1  0.6443238E-009  0.1178691E+03  0.7561462E-02  0.1246654E+00
         -1   -1    0    0    0  501 -0.00000000000E+00  0.00000000000E+00  0.23275788421E+02  0.23275788421E+02  0.00000000000E+00 0.  1.
          1   -1    0    0  501    0  0.00000000000E+00 -0.00000000000E+00 -0.80952140782E+03  0.80952140782E+03  0.00000000000E+00 0. -1.
         25    2    1    2    0    0 -0.26293941400E+02 -0.76509195320E+02 -0.38699052980E+03  0.41467318147E+03  0.12508856444E+03 0.  0.
         23    2    1    2    0    0  0.26293941400E+02  0.76509195320E+02 -0.39925508960E+03  0.41812401477E+03  0.94223334869E+02 0.  0.
          5    1    3    3  502    0  0.40311715147E+02 -0.80206779044E+01 -0.20465230044E+03  0.20878075133E+03  0.41800000000E+01 0.  1.
         -5    1    3    3    0  502 -0.66605656547E+02 -0.68488517415E+02 -0.18233822936E+03  0.20589243014E+03  0.41800000000E+01 0.  1.
        -11    1    4    4    0    0 -0.17918766053E+02  0.27175643980E+02 -0.34619533274E+02  0.47519573722E+02  0.00000000000E+00 0.  1.
         11    1    4    4    0    0  0.44212707453E+02  0.49333551339E+02 -0.36463555633E+03  0.37060444105E+03  0.00000000000E+00 0. -1.
</event>
<event>
 8    1  0.6443238E-009  0.9447147E+02  0.7561462E-02  0.1292371E+00
         -1   -1    0    0    0  501 -0.00000000000E+00  0.00000000000E+00  0.19041026367E+03  0.19041026367E+03  0.00000000000E+00 0.  1.
          1   -1    0    0  501    0  0.00000000000E+00 -0.00000000000E+00 -0.90430920453E+02  0.90430920453E+02  0.00000000000E+00 0. -1.
         25    2    1    2    0    0 -0.57985140405E+02  0.43665904401E+02  0.67455599802E+02  0.15957104177E+03  0.12507466454E+03 0.  0.
         23    2    1    2    0    0  0.57985140405E+02 -0.43665904401E+02  0.32523743412E+02  0.12127014235E+03  0.91540514669E+02 0.  0.
          5    1    3    3  502    0 -0.81663332380E+02  0.35426534987E+02  0.89225460299E+02  0.12610548918E+03  0.41800000000E+01 0.  1.
         -5    1    3    3    0  502  0.23678191976E+02  0.82393694133E+01 -0.21769860497E+02  0.33465552582E+02  0.41800000000E+01 0.  1.
        -11    1    4    4    0    0  0.95515476272E+01 -0.15997395456E+02  0.57287044751E+02  0.60240801952E+02  0.00000000000E+00 0.  1.
         11    1    4    4    0    0  0.48433592778E+02 -0.27668508944E+02 -0.24763301340E+02  0.61029340401E+02  0.00000000000E+00 0. -1.
</event>
<event>
 8    1  0.6443238E-009  0.8229334E+02  0.7561462E-02  0.1322666E+00
         -2   -1    0    0    0  501 -0.00000000000E+00  0.00000000000E+00  0.45391060564E+02  0.45391060564E+02  0.00000000000E+00 0.  1.
          2   -1    0    0  501    0  0.00000000000E+00 -0.00000000000E+00 -0.35583235878E+03  0.35583235878E+03  0.00000000000E+00 0. -1.
         25    2    1    2    0    0  0.14835140749E+02 -0.53265994197E+02 -0.23501521139E+03  0.27191319260E+03  0.12508911698E+03 0.  0.
         23    2    1    2    0    0 -0.14835140749E+02  0.53265994197E+02 -0.75426086831E+02  0.12931022675E+03  0.89301134530E+02 0.  0.
          5    1    3    3  502    0  0.55512086616E+01 -0.49120112934E+02 -0.24913062760E+03  0.25402193492E+03  0.41800000000E+01 0.  1.
         -5    1    3    3    0  502  0.92839320879E+01 -0.41458812629E+01  0.14115416212E+02  0.17891257678E+02  0.41800000000E+01 0.  1.
        -11    1    4    4    0    0 -0.46017530582E+02  0.46831460080E+01 -0.24572646178E+02  0.52377093444E+02  0.00000000000E+00 0. -1.
         11    1    4    4    0    0  0.31182389833E+02  0.48582848189E+02 -0.50853440653E+02  0.76933133305E+02  0.00000000000E+00 0.  1.
</event>
<event>
 8    1  0.6443238E-009  0.8804458E+02  0.7561462E-02  0.1307657E+00
         -2   -1    0    0    0  501 -0.00000000000E+00  0.00000000000E+00  0.10532945750E+03  0.10532945750E+03  0.00000000000E+00 0.  1.
          2   -1    0    0  501    0  0.00000000000E+00 -0.00000000000E+00 -0.20391433753E+03  0.20391433753E+03  0.00000000000E+00 0. -1.
         25    2    1    2    0    0  0.36186994850E+01 -0.81212339791E+02 -0.11016532279E+03  0.18545270312E+03  0.12509103736E+03 0.  0.
         23    2    1    2    0    0 -0.36186994850E+01  0.81212339791E+02  0.11580442750E+02  0.12379109191E+03  0.92636864487E+02 0.  0.
          5    1    3    3  502    0  0.19680188166E+01 -0.41334180197E+02  0.22194515424E+02  0.47142936539E+02  0.41800000000E+01 0. -1.
         -5    1    3    3    0  502  0.16506806684E+01 -0.39878159595E+02 -0.13235983821E+03  0.13830976658E+03  0.41800000000E+01 0. -1.
        -11    1    4    4    0    0 -0.15428480579E+02  0.35759055681E+01 -0.30742966908E+02  0.34582584170E+02  0.00000000000E+00 0. -1.
         11    1    4    4    0    0  0.11809781094E+02  0.77636434223E+02  0.42323409657E+02  0.89208507741E+02  0.00000000000E+00 0.  1.
</event>
<event>
 8    1  0.6443238E-009  0.1540501E+03  0.7561462E-02  0.1195583E+00
         -2   -1    0    0    0  501 -0.00000000000E+00  0.00000000000E+00  0.31372710566E+02  0.31372710566E+02  0.00000000000E+00 0.  1.
          2   -1    0    0  501    0  0.00000000000E+00 -0.00000000000E+00 -0.89719750437E+03  0.89719750437E+03  0.00000000000E+00 0. -1.
         25    2    1    2    0    0 -0.12373690866E+03 -0.10034405824E+02 -0.49887974365E+03  0.52909138656E+03  0.12508071329E+03 0.  0.
         23    2    1    2    0    0  0.12373690866E+03  0.10034405824E+02 -0.36694505016E+03  0.39947882838E+03  0.97586641641E+02 0.  0.
          5    1    3    3  502    0 -0.14944785488E+03 -0.56471545213E+01 -0.41459119821E+03  0.44076057640E+03  0.41800000000E+01 0.  1.
         -5    1    3    3    0  502  0.25710946212E+02 -0.43872513025E+01 -0.84288545444E+02  0.88330810152E+02  0.41800000000E+01 0.  1.
        -11    1    4    4    0    0  0.59230298607E+02 -0.17754885644E+02 -0.65976900808E+02  0.90423534975E+02  0.00000000000E+00 0.  1.
         11    1    4    4    0    0  0.64506610057E+02  0.27789291468E+02 -0.30096814935E+03  0.30905529341E+03  0.00000000000E+00 0. -1.
</event>
<event>
 8    1  0.6443238E-009  0.1062355E+03  0.7561462E-02  0.1267704E+00
          1   -1    0    0  501    0  0.00000000000E+00  0.00000000000E+00  0.85686809446E+02  0.85686809446E+02  0.00000000000E+00 0. -1.
         -1   -1    0    0    0  501 -0.00000000000E+00 -0.00000000000E+00 -0.14959255664E+03  0.14959255664E+03  0.00000000000E+00 0.  1.
         25    2    1    2    0    0 -0.11820842612E+02  0.42265506781E+01 -0.70731688621E+02  0.14425163839E+03  0.12509183568E+03 0.  0.
         23    2    1    2    0    0  0.11820842612E+02 -0.42265506781E+01  0.68259414286E+01  0.91027727694E+02  0.89899152843E+02 0.  0.
          5    1    3    3  502    0 -0.45213940288E+02 -0.46357421406E+02 -0.34063893915E+02  0.73288008463E+02  0.41800000000E+01 0. -1.
         -5    1    3    3    0  502  0.33393097675E+02  0.50583972084E+02 -0.36667794705E+02  0.70963629929E+02  0.41800000000E+01 0. -1.
        -11    1    4    4    0    0 -0.38009314818E+00  0.40480464333E+02  0.16450167073E+02  0.43696915912E+02  0.00000000000E+00 0.  1.
         11    1    4    4    0    0  0.12200935761E+02 -0.44707015011E+02 -0.96242256448E+01  0.47330811782E+02  0.00000000000E+00 0. -1.
</event>
<event>
 8    1  0.6443238E-009  0.1186243E+03  0.7561462E-02  0.1245384E+00
         -2   -1    0    0    0  501 -0.00000000000E+00  0.00000000000E+00  0.34420054530E+02  0.34420054530E+02  0.00000000000E+00 0.  1.
          2   -1    0    0  501    0  0.00000000000E+00 -0.00000000000E+00 -0.45681701222E+03  0.45681701222E+03  0.00000000000E+00 0. -1.
         25    2    1    2    0    0  0.36894565490E+02  0.42841085229E+02 -0.19532407647E+03  0.23874247649E+03  0.12509959107E+03 0.  0.
         23    2    1    2    0    0 -0.36894565490E+02 -0.42841085229E+02 -0.22707288122E+03  0.25249459025E+03  0.94841220873E+02 0.  0.
          5    1    3    3  502    0  0.63053434175E+01  0.84554442456E+02 -0.11122543048E+03  0.13992061993E+03  0.41800000000E+01 0. -1.
         -5    1    3    3    0  502  0.30589222073E+02 -0.41713357227E+02 -0.84098645990E+02  0.98821856568E+02  0.41800000000E+01 0. -1.
        -11    1    4    4    0    0  0.19650443630E+02 -0.39138399469E+02 -0.49465738976E+02  0.66066735808E+02  0.00000000000E+00 0. -1.
         11    1    4    4    0    0 -0.56545009120E+02 -0.37026857597E+01 -0.17760714224E+03  0.18642785444E+03  0.00000000000E+00 0.  1.
</event>
<event>
 8    1  0.6443238E-009  0.1761223E+03  0.7561462E-02  0.1171609E+00
         -2   -1    0    0    0  501 -0.00000000000E+00  0.00000000000E+00  0.47619958749E+02  0.47619958749E+02  0.00000000000E+00 0. -1.
          2   -1    0    0  501    0  0.00000000000E+00 -0.00000000000E+00 -0.83690997704E+03  0.83690997704E+03  0.00000000000E+00 0.  1.
         25    2    1    2    0    0 -0.12995901083E+03 -0.66974614506E+02 -0.58921316528E+03  0.61983392381E+03  0.12508795103E+03 0.  0.
         23    2    1    2    0    0  0.12995901083E+03  0.66974614506E+02 -0.20007685302E+03  0.26469601198E+03  0.93049922934E+02 0.  0.
          5    1    3    3  502    0 -0.14749865335E+03 -0.47922131536E+02 -0.55746319418E+03  0.57864934865E+03  0.41800000000E+01 0. -1.
         -5    1    3    3    0  502  0.17539642513E+02 -0.19052482970E+02 -0.31749971098E+02  0.41184575165E+02  0.41800000000E+01 0. -1.
        -11    1    4    4    0    0  0.69162509825E+02  0.82956988405E+02 -0.10439710858E+03  0.15021341808E+03  0.00000000000E+00 0. -1.
         11    1    4    4    0    0  0.60796501009E+02 -0.15982373899E+02 -0.95679744439E+02  0.11448259390E+03  0.00000000000E+00 0.  1.
</event>
<event>
 8    1  0.6443238E-009  0.1383566E+03  0.7561462E-02  0.1215558E+00
          1   -1    0    0  501    0  0.00000000000E+00  0.00000000000E+00  0.51517018323E+02  0.51517018323E+02  0.00000000000E+00 0. -1.
         -1   -1    0    0    0  501 -0.00000000000E+00 -0.00000000000E+00 -0.40058006298E+03  0.40058006298E+03  0.00000000000E+00 0.  1.
         25    2    1    2    0    0  0.83282512039E+02 -0.40108554947E+02 -0.18340763737E+03  0.24047964416E+03  0.12508966710E+03 0.  0.
         23    2    1    2    0    0 -0.83282512039E+02  0.40108554947E+02 -0.16565540728E+03  0.21161743715E+03  0.93784608278E+02 0.  0.
          5    1    3    3  502    0  0.11619026405E+03 -0.24493561546E+02 -0.14288791684E+03  0.18583471472E+03  0.41800000000E+01 0. -1.
         -5    1    3    3    0  502 -0.32907752008E+02 -0.15614993401E+02 -0.40519720530E+02  0.54644929435E+02  0.41800000000E+01 0. -1.
        -11    1    4    4    0    0 -0.17310734567E+01  0.39641495794E+02 -0.19414841676E+02  0.44174436967E+02  0.00000000000E+00 0. -1.
         11    1    4    4    0    0 -0.81551438582E+02  0.46705915322E+00 -0.14624056561E+03  0.16744300018E+03  0.00000000000E+00 0.  1.
</event>
<event>
 8    1  0.6443238E-009  0.1448807E+03  0.7561462E-02  0.1206908E+00
          1   -1    0    0  501    0  0.00000000000E+00  0.00000000000E+00  0.27638677019E+03  0.27638677019E+03  0.00000000000E+00 0. -1.
         -1   -1    0    0    0  501 -0.00000000000E+00 -0.00000000000E+00 -0.10846460860E+03  0.10846460860E+03  0.00000000000E+00 0.  1.
         25    2    1    2    0    0 -0.48215830017E+01 -0.10450496874E+03  0.18921211646E+03  0.24978775129E+03  0.12509260381E+03 0.  0.
         23    2    1    2    0    0  0.48215830017E+01  0.10450496874E+03 -0.21289954868E+02  0.13506362751E+03  0.82730799235E+02 0.  0.
          5    1    3    3  502    0  0.29914247165E+02 -0.11818319542E+03  0.12042209250E+03  0.17140910893E+03  0.41800000000E+01 0. -1.
         -5    1    3    3    0  502 -0.34735830167E+02  0.13678226675E+02  0.68790023955E+02  0.78378642359E+02  0.41800000000E+01 0. -1.
        -11    1    4    4    0    0  0.28166426775E+02  0.10304349751E+03 -0.28548512922E+02  0.11057272524E+03  0.00000000000E+00 0.  1.
         11    1    4    4    0    0 -0.23344843773E+02  0.14614712347E+01  0.72585580543E+01  0.24490902270E+02  0.00000000000E+00 0. -1.
</event>
<event>
 8    1  0.6443238E-009  0.1069626E+03  0.7561462E-02  0.1266300E+00
         -1   -1    0    0    0  501 -0.00000000000E+00  0.00000000000E+00  0.38836931568E+02  0.38836931568E+02  0.00000000000E+00 0.  1.
          1   -1    0    0  501    0  0.00000000000E+00 -0.00000000000E+00 -0.31784680836E+03  0.31784680836E+03  0.00000000000E+00 0. -1.
         25    2    1    2    0    0  0.48680806190E+01 -0.18581120609E+02 -0.16132436203E+03  0.20504107199E+03  0.12508930876E+03 0.  0.
         23    2    1    2    0    0 -0.48680806190E+01  0.18581120609E+02 -0.11768551476E+03  0.15164266794E+03  0.93683841206E+02 0.  0.
          5    1    3    3  502    0  0.45930364694E+02 -0.51559450593E+02 -0.63699527624E+02  0.94037639091E+02  0.41800000000E+01 0. -1.
         -5    1    3    3    0  502 -0.41062284075E+02  0.32978329984E+02 -0.97624834405E+02  0.11100343290E+03  0.41800000000E+01 0. -1.
        -11    1    4    4    0    0  0.20018282570E+02  0.48813739105E+02 -0.87603586805E+02  0.10226388015E+03  0.00000000000E+00 0.  1.
         11    1    4    4    0    0 -0.24886363189E+02 -0.30232618496E+02 -0.30081927958E+02  0.49378787789E+02  0.00000000000E+00 0. -1.
</event>
<event>
 8    1  0.6443238E-009  0.1021620E+03  0.7561462E-02  0.1275814E+00
          2   -1    0    0  501    0  0.00000000000E+00  0.00000000000E+00  0.12648945325E+04  0.12648945325E+04  0.00000000000E+00 0. -1.
         -2   -1    0    0    0  501 -0.00000000000E+00 -0.00000000000E+00 -0.14413715863E+02  0.14413715863E+02  0.00000000000E+00 0.  1.
         25    2    1    2    0    0 -0.24668063467E+02 -0.24545331696E+02  0.10325706609E+04  0.10407021089E+04  0.12509085895E+03 0.  0.
         23    2    1    2    0    0  0.24668063467E+02  0.24545331696E+02  0.21791015573E+03  0.23860613949E+03  0.90758289796E+02 0.  0.
          5    1    3    3  502    0  0.86724115805E+01  0.36352607942E+02  0.69624634747E+03  0.69726119323E+03  0.41800000000E+01 0.  1.
         -5    1    3    3    0  502 -0.33340475048E+02 -0.60897939639E+02  0.33632431346E+03  0.34344091567E+03  0.41800000000E+01 0.  1.
        -11    1    4    4    0    0 -0.30539406054E+02  0.28558532477E+02  0.90569949514E+02  0.99755505384E+02  0.00000000000E+00 0. -1.
         11    1    4    4    0    0  0.55207469521E+02 -0.40132007807E+01  0.12734020622E+03  0.13885063411E+03  0.00000000000E+00 0.  1.
</event>
<event>
 7    1  0.6443238E-009  0.7145801E+02  0.7561462E-02  0.1355204E+00
          1   -1    0    0  501    0  0.00000000000E+00  0.00000000000E+00  0.16122443442E+03  0.16122443442E+03  0.00000000000E+00 0. -1.
         -1   -1    0    0    0  501 -0.00000000000E+00 -0.00000000000E+00 -0.14043437113E+03  0.14043437113E+03  0.00000000000E+00 0.  1.
         25    2    1    2    0    0 -0.40484054863E+02  0.33476997776E+02  0.52657817140E+02  0.14553333609E+03  0.12508972031E+03 0.  0.
          5    1    3    3  502    0  0.13531125196E+02 -0.12568380045E+02 -0.30639060193E+02  0.36017772495E+02  0.41800000000E+01 0. -1.
         -5    1    3    3    0  502 -0.54015180059E+02  0.46045377821E+02  0.83296877332E+02  0.10951556359E+03  0.41800000000E+01 0. -1.
        -11    1    1    2    0    0  0.12997965643E+02 -0.72200389790E+01 -0.87495962540E+02  0.88750321321E+02  0.00000000000E+00 0.  1.
         11    1    1    2    0    0  0.27486089220E+02 -0.26256958797E+02  0.55628208691E+02  0.67375148149E+02  0.00000000000E+00 0. -1.
</event>
<event>
 8    1  0.6443238E-009  0.1103409E+03  0.7561462E-02  0.1259940E+00
          1   -1    0    0  501    0  0.00000000000E+00  0.00000000000E+00  0.17267778118E+03  0.17267778118E+03  0.00000000000E+00 0. -1.
         -1   -1    0    0    0  501 -0.00000000000E+00 -0.00000000000E+00 -0.82078516268E+02  0.82078516268E+02  0.00000000000E+00 0.  1.
         25    2    1    2    0    0 -0.41767367516E+02 -0.39851691568E+01  0.68781091751E+02  0.14879120001E+03  0.12509031959E+03 0.  0.
         23    2    1    2    0    0  0.41767367516E+02  0.39851691568E+01  0.21818173160E+02  0.10596509744E+03  0.94827077533E+02 0.  0.
          5    1    3    3  502    0 -0.66190586181E+02  0.37283057089E+02  0.16742847833E+02  0.77903885644E+02  0.41800000000E+01 0. -1.
         -5    1    3    3    0  502  0.24423218665E+02 -0.41268226245E+02  0.52038243918E+02  0.70887314362E+02  0.41800000000E+01 0. -1.
        -11    1    4    4    0    0  0.22818370439E+01 -0.38438911849E+02  0.28100286697E+02  0.47669516852E+02  0.00000000000E+00 0. -1.
         11    1    4    4    0    0  0.39485530472E+02  0.42424081006E+02 -0.62821135369E+01  0.58295580590E+02  0.00000000000E+00 0.  1.
</event>
<event>
 8    1  0.6443238E-009  0.2113452E+03  0.7561462E-02  0.1140505E+00
          1   -1    0    0  501    0  0.00000000000E+00  0.00000000000E+00  0.11633314551E+03  0.11633314551E+03  0.00000000000E+00 0. -1.
         -1   -1    0    0    0  501 -0.00000000000E+00 -0.00000000000E+00 -0.47118387425E+03  0.47118387425E+03  0.00000000000E+00 0.  1.
         25    2    1    2    0    0 -0.18305957543E+03 -0.67303331934E+02 -0.26857924006E+03  0.35471363616E+03  0.12508560605E+03 0.  0.
         23    2    1    2    0    0  0.18305957543E+03  0.67303331934E+02 -0.86271488680E+02  0.23280338360E+03  0.93349338572E+02 0.  0.
          5    1    3    3  502    0 -0.14084592472E+03 -0.83932603035E+02 -0.13137148492E+03  0.21013851577E+03  0.41800000000E+01 0.  1.
         -5    1    3    3    0  502 -0.42213650711E+02  0.16629271101E+02 -0.13720775514E+03  0.14457512039E+03  0.41800000000E+01 0.  1.
        -11    1    4    4    0    0  0.14639814554E+03  0.88203066244E+02 -0.52631977250E+02  0.17883602249E+03  0.00000000000E+00 0. -1.
         11    1    4    4    0    0  0.36661429892E+02 -0.20899734310E+02 -0.33639511430E+02  0.53967361110E+02  0.00000000000E+00 0.  1.
</event>
<event>
 8    1  0.6443238E-009  0.1067667E+03  0.7561462E-02  0.1266677E+00
         -2   -1    0    0    0  501 -0.00000000000E+00  0.00000000000E+00  0.26315304472E+03  0.26315304472E+03  0.00000000000E+00 0. -1.
          2   -1    0    0  501    0  0.00000000000E+00 -0.00000000000E+00 -0.46055109825E+02  0.46055109825E+02  0.00000000000E+00 0.  1.
         25    2    1    2    0    0  0.49508772395E+00 -0.96790263169E+01  0.14678067484E+03  0.19309551066E+03  0.12508949223E+03 0.  0.
         23    2    1    2    0    0 -0.49508772395E+00  0.96790263169E+01  0.70317260049E+02  0.11611264388E+03  0.91889609568E+02 0.  0.
          5    1    3    3  502    0 -0.50596561858E+02  0.27668244553E+02  0.45413383231E+02  0.73521368356E+02  0.41800000000E+01 0. -1.
         -5    1    3    3    0  502  0.51091649582E+02 -0.37347270870E+02  0.10136729161E+03  0.11957414230E+03  0.41800000000E+01 0. -1.
        -11    1    4    4    0    0 -0.45912393156E+02  0.29413641108E+00  0.37803565322E+02  0.59473892697E+02  0.00000000000E+00 0. -1.
         11    1    4    4    0    0  0.45417305432E+02  0.93848899058E+01  0.32513694727E+02  0.56638751187E+02  0.00000000000E+00 0.  1.
</event>
<event>
 8    1  0.6443238E-009  0.9728704E+02  0.7561462E-02  0.1286107E+00
          2   -1    0    0  501    0  0.00000000000E+00  0.00000000000E+00  0.54715325841E+03  0.54715325841E+03  0.00000000000E+00 0. -1.
         -2   -1    0    0    0  501 -0.00000000000E+00 -0.00000000000E+00 -0.26000423418E+02  0.26000423418E+02  0.00000000000E+00 0.  1.
         25    2    1    2    0    0  0.23828670998E+01  0.87245647812E+01  0.39990155713E+03  0.41910716081E+03  0.12509100994E+03 0.  0.
         23    2    1    2    0    0 -0.23828670998E+01 -0.87245647812E+01  0.12125127786E+03  0.15404652101E+03  0.94586796996E+02 0.  0.
          5    1    3    3  502    0  0.36283701317E+02 -0.45290705964E+02  0.14317651232E+03  0.15454688967E+03  0.41800000000E+01 0. -1.
         -5    1    3    3    0  502 -0.33900834217E+02  0.54015270745E+02  0.25672504481E+03  0.26456027114E+03  0.41800000000E+01 0. -1.
        -11    1    4    4    0    0 -0.95771309040E+01 -0.39619524570E+02  0.11460294040E+03  0.12163577645E+03  0.00000000000E+00 0. -1.
         11    1    4    4    0    0  0.71942638042E+01  0.30894959789E+02  0.66483374601E+01  0.32410744562E+02  0.00000000000E+00 0.  1.
</event>
<event>
 8    1  0.6443238E-009  0.1175194E+03  0.7561462E-02  0.1247246E+00
          2   -1    0    0  501    0  0.00000000000E+00  0.00000000000E+00  0.20096717607E+03  0.20096717607E+03  0.00000000000E+00 0.  1.
         -2   -1    0    0    0  501 -0.00000000000E+00 -0.00000000000E+00 -0.11259585405E+03  0.11259585405E+03  0.00000000000E+00 0. -1.
         25    2    1    2    0    0  0.32104486492E+02 -0.84050658413E+02 -0.69534969232E+01  0.15424312600E+03  0.12508948624E+03 0.  0.
         23    2    1    2    0    0 -0.32104486492E+02  0.84050658413E+02  0.95324818942E+02  0.15931990412E+03  0.90558265827E+02 0.  0.
          5    1    3    3  502    0  0.46740867811E+02 -0.31795481219E+02 -0.56940014025E+02  0.80344875051E+02  0.41800000000E+01 0. -1.
         -5    1    3    3    0  502 -0.14636381320E+02 -0.52255177193E+02  0.49986517102E+02  0.73898250951E+02  0.41800000000E+01 0. -1.
        -11    1    4    4    0    0  0.14709465677E+02 -0.10735765156E+02  0.20294410879E+01  0.18323309339E+02  0.00000000000E+00 0.  1.
         11    1    4    4    0    0 -0.46813952169E+02  0.94786423569E+02  0.93295377854E+02  0.14099659478E+03  0.00000000000E+00 0. -1.
</event>
<event>
 8    1  0.6443238E-009  0.3338373E+03  0.7561462E-02  0.1069451E+00
         -1   -1    0    0    0  501 -0.00000000000E+00  0.00000000000E+00  0.44392624936E+02  0.44392624936E+02  0.00000000000E+00 0.  1.
          1   -1    0    0  501    0  0.00000000000E+00 -0.00000000000E+00 -0.28094693014E+04  0.28094693014E+04  0.00000000000E+00 0. -1.
         25    2    1    2    0    0 -0.32734048169E+03 -0.61142403841E+02 -0.12218732813E+04  0.12726002136E+04  0.12508718361E+03 0.  0.
         23    2    1    2    0    0  0.32734048169E+03  0.61142403841E+02 -0.15432033952E+04  0.15812617128E+04  0.89563948845E+02 0.  0.
          5    1    3    3  502    0 -0.29595186496E+03 -0.50107510036E+02 -0.89481032696E+03  0.94382268598E+03  0.41800000000E+01 0. -1.
         -5    1    3    3    0  502 -0.31388616731E+02 -0.11034893806E+02 -0.32706295436E+03  0.32877752760E+03  0.41800000000E+01 0. -1.
        -11    1    4    4    0    0  0.14864378432E+03  0.15055089161E+02 -0.49937856738E+03  0.52124906128E+03  0.00000000000E+00 0.  1.
         11    1    4    4    0    0  0.17869669737E+03  0.46087314681E+02 -0.10438248278E+04  0.10600126515E+04  0.00000000000E+00 0. -1.
</event>
<event>
 8    1  0.6443238E-009  0.1130655E+03  0.7561462E-02  0.1254996E+00
         -2   -1    0    0    0  501 -0.00000000000E+00  0.00000000000E+00  0.81185753981E+02  0.81185753981E+02  0.00000000000E+00 0. -1.
          2   -1    0    0  501    0  0.00000000000E+00 -0.00000000000E+00 -0.19693191141E+03  0.19693191141E+03  0.00000000000E+00 0.  1.
         25    2    1    2    0    0 -0.12029404218E+02 -0.58450055593E+02 -0.88426296353E+02  0.16440286917E+03  0.12509187799E+03 0.  0.
         23    2    1    2    0    0  0.12029404218E+02  0.58450055593E+02 -0.27319861078E+02  0.11371479623E+03  0.92863149347E+02 0.  0.
          5    1    3    3  502    0 -0.51764761089E+02 -0.70742338621E+02 -0.85460457334E+02  0.12249502493E+03  0.41800000000E+01 0. -1.
         -5    1    3    3    0  502  0.39735356871E+02  0.12292283028E+02 -0.29658390186E+01  0.41907844239E+02  0.41800000000E+01 0. -1.
        -11    1    4    4    0    0 -0.13577461974E+02 -0.14135396183E+02  0.16080394779E+02  0.25352238464E+02  0.00000000000E+00 0. -1.
         11    1    4    4    0    0  0.25606866192E+02  0.72585451776E+02 -0.43400255857E+02  0.88362557761E+02  0.00000000000E+00 0.  1.
</event>
<event>
 8    1  0.6443238E-009  0.1228829E+03  0.7561462E-02  0.1238416E+00
         -2   -1    0    0    0  501 -0.00000000000E+00  0.00000000000E+00  0.81471968106E+01  0.81471968106E+01  0.00000000000E+00 0.  1.
          2   -1    0    0  501    0  0.00000000000E+00 -0.00000000000E+00 -0.25580413750E+04  0.25580413750E+04  0.00000000000E+00 0. -1.
         25    2    1    2    0    0  0.62060226248E+02 -0.16770408368E+02 -0.20664362690E+04  0.20712167865E+04  0.12508958611E+03 0.  0.
         23    2    1    2    0    0 -0.62060226248E+02  0.16770408368E+02 -0.48345790921E+03  0.49497178533E+03  0.84455905770E+02 0.  0.
          5    1    3    3  502    0 -0.22646370090E+02 -0.44809089633E+02 -0.86370272526E+03  0.86517084013E+03  0.41800000000E+01 0. -1.
         -5    1    3    3    0  502  0.84706596338E+02  0.28038681264E+02 -0.12027335438E+04  0.12060459464E+04  0.41800000000E+01 0. -1.
        -11    1    4    4    0    0  0.16951151533E+02  0.20938187052E+02 -0.13124522197E+03  0.13398155659E+03  0.00000000000E+00 0.  1.
         11    1    4    4    0    0 -0.79011377781E+02 -0.41677786835E+01 -0.35221268723E+03  0.36099022874E+03  0.00000000000E+00 0. -1.
</event>
<event>
 8    1  0.6443238E-009  0.1085894E+03  0.7561462E-02  0.1263205E+00
          2   -1    0    0  501    0  0.00000000000E+00  0.00000000000E+00  0.13215007006E+03  0.13215007006E+03  0.00000000000E+00 0. -1.
         -2   -1    0    0    0  501 -0.00000000000E+00 -0.00000000000E+00 -0.89295765144E+02  0.89295765144E+02  0.00000000000E+00 0.  1.
         25    2    1    2    0    0  0.81557310419E+01 -0.82218089309E+01  0.25179448364E+02  0.12814150872E+03  0.12510846312E+03 0.  0.
         23    2    1    2    0    0 -0.81557310419E+01  0.82218089309E+01  0.17674856557E+02  0.93304326492E+02  0.90880045648E+02 0.  0.
          5    1    3    3  502    0  0.36691576466E+02 -0.57580876868E+02  0.11574290168E+02  0.69377703604E+02  0.41800000000E+01 0.  1.
         -5    1    3    3    0  502 -0.28535845424E+02  0.49359067937E+02  0.13605158196E+02  0.58763805112E+02  0.41800000000E+01 0.  1.
        -11    1    4    4    0    0 -0.49408117971E+02 -0.64226791296E+00  0.88937359176E+01  0.50206306059E+02  0.00000000000E+00 0. -1.
         11    1    4    4    0    0  0.41252386929E+02  0.88640768439E+01  0.87811206393E+01  0.43098020434E+02  0.00000000000E+00 0.  1.
</event>
<event>
 8    1  0.6443238E-009  0.9987757E+02  0.7561462E-02  0.1280554E+00
         -1   -1    0    0    0  501 -0.00000000000E+00  0.00000000000E+00  0.74242314612E+02  0.74242314612E+02  0.00000000000E+00 0.  1.
          1   -1    0    0  501    0  0.00000000000E+00 -0.00000000000E+00 -0.25445675565E+03  0.25445675565E+03  0.00000000000E+00 0. -1.
         25    2    1    2    0    0  0.60837096113E+02 -0.48995117613E+02 -0.62180549519E+02  0.16005143630E+03  0.12509343592E+03 0.  0.
         23    2    1    2    0    0 -0.60837096113E+02  0.48995117613E+02 -0.11803389152E+03  0.16864763396E+03  0.91697061462E+02 0.  0.
          5    1    3    3  502    0  0.50182655048E+02 -0.70775281116E+02 -0.88512390479E+02  0.12401352730E+03  0.41800000000E+01 0.  1.
         -5    1    3    3    0  502  0.10654441065E+02  0.21780163504E+02  0.26331840960E+02  0.36037908999E+02  0.41800000000E+01 0.  1.
        -11    1    4    4    0    0 -0.28096083843E+02  0.47897856569E+02 -0.12352361287E+03  0.13543144955E+03  0.00000000000E+00 0. -1.
         11    1    4    4    0    0 -0.32741012270E+02  0.10972610431E+01  0.54897213524E+01  0.33216184411E+02  0.00000000000E+00 0.  1.
</event>
<event>
 8    1  0.6443238E-009  0.1795668E+03  0.7561462E-02  0.1168223E+00
         -3   -1    0    0    0  501 -0.00000000000E+00  0.00000000000E+00  0.84803960623E+03  0.84803960623E+03  0.00000000000E+00 0.  1.
          3   -1    0    0  501    0  0.00000000000E+00 -0.00000000000E+00 -0.51740833791E+02  0.51740833791E+02  0.00000000000E+00 0. -1.
         25    2    1    2    0    0 -0.66205311364E+02  0.13478961596E+03  0.19888318721E+03  0.27884406735E+03  0.12509239752E+03 0.  0.
         23    2    1    2    0    0  0.66205311364E+02 -0.13478961596E+03  0.59741558523E+03  0.62093637268E+03  0.78135866339E+02 0.  0.
          5    1    3    3  502    0  0.32979343047E+02  0.68237346612E+02  0.75042774261E+02  0.10673735480E+03  0.41800000000E+01 0. -1.
         -5    1    3    3    0  502 -0.99184654411E+02  0.66552269346E+02  0.12384041295E+03  0.17210671255E+03  0.41800000000E+01 0. -1.
        -11    1    4    4    0    0 -0.94106075021E+01 -0.46614297248E+02  0.25384639195E+03  0.25826235294E+03  0.00000000000E+00 0. -1.
         11    1    4    4    0    0  0.75615918866E+02 -0.88175318710E+02  0.34356919328E+03  0.36267401973E+03  0.00000000000E+00 0.  1.
</event>
<event>
 8    1  0.6443238E-009  0.1810977E+03  0.7561462E-02  0.1166745E+00
          2   -1    0    0  501    0  0.00000000000E+00  0.00000000000E+00  0.72470467609E+03  0.72470467609E+03  0.00000000000E+00 0. -1.
         -2   -1    0    0    0  501 -0.00000000000E+00 -0.00000000000E+00 -0.46704683481E+02  0.46704683481E+02  0.00000000000E+00 0.  1.
         25    2    1    2    0    0  0.73252200120E+02  0.12732043234E+03  0.39410001998E+03  0.43879662890E+03  0.12510506970E+03 0.  0.
         23    2    1    2    0    0 -0.73252200120E+02 -0.12732043234E+03  0.28389997263E+03  0.33261273068E+03  0.91954645538E+02 0.  0.
          5    1    3    3  502    0 -0.46950175223E+01  0.10841072629E+03  0.18117154852E+03  0.21122388870E+03  0.41800000000E+01 0.  1.
         -5    1    3    3    0  502  0.77947217642E+02  0.18909706058E+02  0.21292847146E+03  0.22757274020E+03  0.41800000000E+01 0.  1.
        -11    1    4    4    0    0  0.21957648533E+02 -0.29562091270E+02  0.61933949453E+02  0.72054629721E+02  0.00000000000E+00 0. -1.
         11    1    4    4    0    0 -0.95209848653E+02 -0.97758341074E+02  0.22196602318E+03  0.26055810096E+03  0.00000000000E+00 0.  1.
</event>
<event>
 8    1  0.8778577E-009  0.7827729E+02  0.7561462E-02  0.1334013E+00
          2   -1    0    0  501    0  0.00000000000E+00  0.00000000000E+00  0.88496643119E+02  0.88496643119E+02  0.00000000000E+00 0. -1.
         -2   -1    0    0    0  501 -0.00000000000E+00 -0.00000000000E+00 -0.12587798616E+03  0.12587798616E+03  0.00000000000E+00 0.  1.
         25    2    1    2    0    0  0.63618242390E+01 -0.49454190318E+02 -0.12957674990E+02  0.13525358671E+03  0.12505775317E+03 0.  0.
         23    2    1    2    0    0 -0.63618242390E+01  0.49454190318E+02 -0.24423668053E+02  0.79121042575E+02  0.56368733082E+02 0.  0.
          5    1    3    3  502    0  0.40649511560E+01  0.24838241710E+02 -0.46934816498E+02  0.53421077104E+02  0.41800000000E+01 0. -1.
         -5    1    3    3    0  502  0.22968730830E+01 -0.74292432028E+02  0.33977141509E+02  0.81832509602E+02  0.41800000000E+01 0. -1.
        -11    1    4    4    0    0  0.10316464449E+02  0.24474859724E+02 -0.37835272944E+02  0.46227222240E+02  0.00000000000E+00 0. -1.
         11    1    4    4    0    0 -0.16678288688E+02  0.24979330594E+02  0.13411604891E+02  0.32893820335E+02  0.00000000000E+00 0.  1.
</event>
<event>
 8    1  0.6443238E-009  0.1789633E+03  0.7561462E-02  0.1168810E+00
         -1   -1    0    0    0  501 -0.00000000000E+00  0.00000000000E+00  0.15681373700E+03  0.15681373700E+03  0.00000000000E+00 0.  1.
          1   -1    0    0  501    0  0.00000000000E+00 -0.00000000000E+00 -0.23105215273E+03  0.23105215273E+03  0.00000000000E+00 0. -1.
         25    2    1    2    0    0  0.77923537879E+02  0.12690290528E+03  0.84497971011E+01  0.19466135194E+03  0.12508084483E+03 0.  0.
         23    2    1    2    0    0 -0.77923537879E+02 -0.12690290528E+03 -0.82688212825E+02  0.19320453779E+03  0.91182387320E+02 0.  0.
          5    1    3    3  502    0  0.10843305208E+03  0.11457402768E+03 -0.72316779719E+01  0.15797058008E+03  0.41800000000E+01 0. -1.
         -5    1    3    3    0  502 -0.30509514201E+02  0.12328877595E+02  0.15681475073E+02  0.36690771865E+02  0.41800000000E+01 0. -1.
        -11    1    4    4    0    0 -0.63503060952E+02 -0.32282059177E+02 -0.77756473300E+01  0.71660524603E+02  0.00000000000E+00 0. -1.
         11    1    4    4    0    0 -0.14420476927E+02 -0.94620846102E+02 -0.74912565495E+02  0.12154401318E+03  0.00000000000E+00 0.  1.
</event>
<event>
 8    1  0.6443238E-009  0.1678892E+03  0.7561462E-02  0.1180067E+00
         -1   -1    0    0    0  501 -0.00000000000E+00  0.00000000000E+00  0.12502498840E+04  0.12502498840E+04  0.00000000000E+00 0.  1.
          1   -1    0    0  501    0  0.00000000000E+00 -0.00000000000E+00 -0.29712906925E+02  0.29712906925E+02  0.00000000000E+00 0. -1.
         25    2    1    2    0    0 -0.50402128632E+02 -0.14478860884E+03  0.60153158184E+03  0.63323915999E+03  0.12508986359E+03 0.  0.
         23    2    1    2    0    0  0.50402128632E+02  0.14478860884E+03  0.61900539526E+03  0.64672363096E+03  0.10760882705E+03 0.  0.
          5    1    3    3  502    0 -0.40719756435E+02 -0.10447887052E+03  0.57012268804E+03  0.58106048288E+03  0.41800000000E+01 0.  1.
         -5    1    3    3    0  502 -0.96823721972E+01 -0.40309738322E+02  0.31408893799E+02  0.52178677107E+02  0.41800000000E+01 0.  1.
        -11    1    4    4    0    0 -0.25246508011E+02  0.74410523101E+02  0.34624361223E+03  0.35504781527E+03  0.00000000000E+00 0.  1.
         11    1    4    4    0    0  0.75648636643E+02  0.70378085742E+02  0.27276178302E+03  0.29167581569E+03  0.00000000000E+00 0. -1.
</event>
<event>
 8    1  0.6443238E-009  0.1347950E+03  0.7561462E-02  0.1220509E+00
          2   -1    0    0  501    0  0.00000000000E+00  0.00000000000E+00  0.12054053988E+04  0.12054053988E+04  0.00000000000E+00 0. -1.
         -2   -1    0    0    0  501 -0.00000000000E+00 -0.00000000000E+00 -0.17724462208E+02  0.17724462208E+02  0.00000000000E+00 0.  1.
         25    2    1    2    0    0  0.93177559368E+02 -0.40079954598E+01  0.48596545490E+03  0.51040103099E+03  0.12509463410E+03 0.  0.
         23    2    1    2    0    0 -0.93177559368E+02  0.40079954598E+01  0.70171548167E+03  0.71272883000E+03  0.82943633256E+02 0.  0.
          5    1    3    3  502    0  0.70668761820E+02 -0.54586659274E+02  0.38434107940E+03  0.39460019638E+03  0.41800000000E+01 0. -1.
         -5    1    3    3    0  502  0.22508797548E+02  0.50578663814E+02  0.10162437550E+03  0.11580083461E+03  0.41800000000E+01 0. -1.
        -11    1    4    4    0    0 -0.92667062697E+01  0.34251372324E+02  0.18515765774E+03  0.18852688554E+03  0.00000000000E+00 0. -1.
         11    1    4    4    0    0 -0.83910853098E+02 -0.30243376864E+02  0.51655782392E+03  0.52420194445E+03  0.00000000000E+00 0.  1.
</event>
<event>
 8    1  0.6443238E-009  0.1206611E+03  0.7561462E-02  0.1242010E+00
         -1   -1    0    0    0  501 -0.00000000000E+00  0.00000000000E+00  0.45463040621E+03  0.45463040621E+03  0.00000000000E+00 0.  1.
          1   -1    0    0  501    0  0.00000000000E+00 -0.00000000000E+00 -0.42459641313E+02  0.42459641313E+02  0.00000000000E+00 0. -1.
         25    2    1    2    0    0 -0.94788166079E+01  0.84283520375E+02  0.22135684749E+03  0.26802922945E+03  0.12508898487E+03 0.  0.
         23    2    1    2    0    0  0.94788166079E+01 -0.84283520375E+02  0.19081391741E+03  0.22906081808E+03  0.94155974485E+02 0.  0.
          5    1    3    3  502    0  0.32941264619E+02  0.15692129871E+02  0.49668121868E+01  0.37060915772E+02  0.41800000000E+01 0.  1.
         -5    1    3    3    0  502 -0.42420081227E+02  0.68591390504E+02  0.21639003531E+03  0.23096831368E+03  0.41800000000E+01 0.  1.
        -11    1    4    4    0    0  0.18923154480E+02  0.14975038270E+02  0.20297977192E+02  0.31533243169E+02  0.00000000000E+00 0. -1.
         11    1    4    4    0    0 -0.94443378723E+01 -0.99258558644E+02  0.17051594022E+03  0.19752757491E+03  0.00000000000E+00 0.  1.
</event>
<event>
 8    1  0.6443238E-009  0.1128380E+03  0.7561462E-02  0.1255403E+00
          1   -1    0    0  501    0  0.00000000000E+00  0.00000000000E+00  0.63253631761E+03  0.63253631761E+03  0.00000000000E+00 0. -1.
         -1   -1    0    0    0  501 -0.00000000000E+00 -0.00000000000E+00 -0.24257840357E+02  0.24257840357E+02  0.00000000000E+00 0.  1.
         25    2    1    2    0    0  0.49131105185E+02  0.33214638141E+02  0.38064393966E+03  0.40503616360E+03  0.12508959726E+03 0.  0.
         23    2    1    2    0    0 -0.49131105185E+02 -0.33214638141E+02  0.22763453760E+03  0.25175799437E+03  0.89708011559E+02 0.  0.
          5    1    3    3  502    0  0.39146835161E+02 -0.35707051253E+02  0.77545014862E+02  0.94011541537E+02  0.41800000000E+01 0. -1.
         -5    1    3    3    0  502  0.99842700233E+01  0.68921689394E+02  0.30309892480E+03  0.31102462207E+03  0.41800000000E+01 0. -1.
        -11    1    4    4    0    0 -0.43760844831E+02 -0.60657906948E+02  0.12777411796E+03  0.14805613272E+03  0.00000000000E+00 0.  1.
         11    1    4    4    0    0 -0.53702603534E+01  0.27443268807E+02  0.99860419640E+02  0.10370186165E+03  0.00000000000E+00 0. -1.
</event>
<event>
 8    1  0.6443238E-009  0.1150811E+03  0.7561462E-02  0.1251440E+00
          1   -1    0    0  501    0  0.00000000000E+00  0.00000000000E+00  0.27600684301E+03  0.27600684301E+03  0.00000000000E+00 0. -1.
         -1   -1    0    0    0  501 -0.00000000000E+00 -0.00000000000E+00 -0.55788348129E+02  0.55788348129E+02  0.00000000000E+00 0.  1.
         25    2    1    2    0    0  0.42829814801E+02  0.15608610212E+02  0.17276104754E+03  0.21812611789E+03  0.12511835201E+03 0.  0.
         23    2    1    2    0    0 -0.42829814801E+02 -0.15608610212E+02  0.47457447337E+02  0.11366907325E+03  0.92684557271E+02 0.  0.
          5    1    3    3  502    0  0.79995291821E+02  0.37391425206E+02  0.10006046335E+03  0.13351754236E+03  0.41800000000E+01 0.  1.
         -5    1    3    3    0  502 -0.37165477020E+02 -0.21782814993E+02  0.72700584190E+02  0.84608575527E+02  0.41800000000E+01 0.  1.
        -11    1    4    4    0    0 -0.31628387720E+02  0.34692828368E+02  0.56016996839E+01  0.47279237402E+02  0.00000000000E+00 0.  1.
         11    1    4    4    0    0 -0.11201427080E+02 -0.50301438581E+02  0.41855747653E+02  0.66389835845E+02  0.00000000000E+00 0. -1.
</event>
<event>
 8    1  0.6443238E-009  0.1091587E+03  0.7561462E-02  0.1262136E+00
         -1   -1    0    0    0  501 -0.00000000000E+00  0.00000000000E+00  0.13910217281E+03  0.13910217281E+03  0.00000000000E+00 0.  1.
          1   -1    0    0  501    0  0.00000000000E+00 -0.00000000000E+00 -0.25313388551E+03  0.25313388551E+03  0.00000000000E+00 0. -1.
         25    2    1    2    0    0  0.52009087305E+02 -0.75028583758E+02 -0.18735421682E+03  0.24307202281E+03  0.12509265434E+03 0.  0.
         23    2    1    2    0    0 -0.52009087305E+02  0.75028583758E+02  0.73322504130E+02  0.14916403551E+03  0.92409341159E+02 0.  0.
          5    1    3    3  502    0  0.31510026688E+02 -0.37902133200E+02  0.14803685346E+01  0.49488558011E+02  0.41800000000E+01 0. -1.
         -5    1    3    3    0  502  0.20499060617E+02 -0.37126450558E+02 -0.18883458536E+03  0.19358346480E+03  0.41800000000E+01 0. -1.
        -11    1    4    4    0    0  0.24325463164E+02  0.11420129151E+02  0.31373038998E+02  0.41308777323E+02  0.00000000000E+00 0.  1.
         11    1    4    4    0    0 -0.76334550469E+02  0.63608454607E+02  0.41949465132E+02  0.10785525818E+03  0.00000000000E+00 0. -1.
</event>
<event>
 8    1  0.6443238E-009  0.1068025E+03  0.7561462E-02  0.1266608E+00
          2   -1    0    0  501    0  0.00000000000E+00  0.00000000000E+00  0.60167178473E+03  0.60167178473E+03  0.00000000000E+00 0.  1.
         -2   -1    0    0    0  501 -0.00000000000E+00 -0.00000000000E+00 -0.43769796382E+02  0.43769796382E+02  0.00000000000E+00 0. -1.
         25    2    1    2    0    0  0.36682963220E+02 -0.76238205355E+02  0.46853035548E+03  0.49226532745E+03  0.12508618973E+03 0.  0.
         23    2    1    2    0    0 -0.36682963220E+02  0.76238205355E+02  0.89371632869E+02  0.15317625366E+03  0.91201821126E+02 0.  0.
          5    1    3    3  502    0  0.40944156152E+02 -0.55712322713E+02  0.92155736203E+02  0.11528416604E+03  0.41800000000E+01 0. -1.
         -5    1    3    3    0  502 -0.42611929312E+01 -0.20525882642E+02  0.37637461927E+03  0.37698116141E+03  0.41800000000E+01 0. -1.
        -11    1    4    4    0    0 -0.59697703693E+02  0.21274341214E+02  0.34423315560E+02  0.72120580104E+02  0.00000000000E+00 0. -1.
         11    1    4    4    0    0  0.23014740473E+02  0.54963864141E+02  0.54948317308E+02  0.81055673555E+02  0.00000000000E+00 0.  1.
</event>
<event>
 8    1  0.6443238E-009  0.5739197E+02  0.7561462E-02  0.1409114E+00
          1   -1    0    0  501    0  0.00000000000E+00  0.00000000000E+00  0.12612799965E+03  0.12612799965E+03  0.00000000000E+00 0. -1.
         -1   -1    0    0    0  501 -0.00000000000E+00 -0.00000000000E+00 -0.98482344312E+02  0.98482344312E+02  0.00000000000E+00 0.  1.
         25    2    1    2    0    0  0.28296811946E+01  0.18904182555E+02  0.44388855501E+02  0.13409123066E+03  0.12507882488E+03 0.  0.
         23    2    1    2    0    0 -0.28296811946E+01 -0.18904182555E+02 -0.16743200158E+02  0.90519113304E+02  0.86879225987E+02 0.  0.
          5    1    3    3  502    0 -0.11121437830E+02  0.89491422129E+01 -0.42708864767E+02  0.45224916312E+02  0.41800000000E+01 0.  1.
         -5    1    3    3    0  502  0.13951119024E+02  0.99550403424E+01  0.87097720269E+02  0.88866314350E+02  0.41800000000E+01 0.  1.
        -11    1    4    4    0    0 -0.18619652081E+02 -0.46714336251E+02  0.68844170264E+01  0.50757421652E+02  0.00000000000E+00 0. -1.
         11    1    4    4    0    0  0.15789970886E+02  0.27810153696E+02 -0.23627617185E+02  0.39761691652E+02  0.00000000000E+00 0.  1.
</event>
<event>
 8    1  0.6443238E-009  0.9722629E+02  0.7561462E-02  0.1286239E+00
          1   -1    0    0  501    0  0.00000000000E+00  0.00000000000E+00  0.17519196068E+03  0.17519196068E+03  0.00000000000E+00 0. -1.
         -1   -1    0    0    0  501 -0.00000000000E+00 -0.00000000000E+00 -0.15230124918E+03  0.15230124918E+03  0.00000000000E+00 0.  1.
         25    2    1    2    0    0 -0.11825903644E+01 -0.55668074250E+02 -0.96299954064E+02  0.16739780491E+03  0.12509200984E+03 0.  0.
         23    2    1    2    0    0  0.11825903644E+01  0.55668074250E+02  0.11919066557E+03  0.16009540496E+03  0.91234812000E+02 0.  0.
          5    1    3    3  502    0  0.33177412363E+02 -0.42162629680E+02  0.10050366711E+02  0.54744043545E+02  0.41800000000E+01 0. -1.
         -5    1    3    3    0  502 -0.34360002727E+02 -0.13505444570E+02 -0.10635032078E+03  0.11265376136E+03  0.41800000000E+01 0. -1.
        -11    1    4    4    0    0  0.44128548219E+02  0.31353176073E+02  0.82184212034E+02  0.98410340541E+02  0.00000000000E+00 0.  1.
         11    1    4    4    0    0 -0.42945957854E+02  0.24314898177E+02  0.37006453531E+02  0.61685064419E+02  0.00000000000E+00 0. -1.
</event>
<event>
 8    1  0.6443238E-009  0.1006000E+03  0.7561462E-02  0.1279039E+00
         -1   -1    0    0    0  501 -0.00000000000E+00  0.00000000000E+00  0.49065523472E+02  0.49065523472E+02  0.00000000000E+00 0.  1.
          1   -1    0    0  501    0  0.00000000000E+00 -0.00000000000E+00 -0.27613238333E+03  0.27613238333E+03  0.00000000000E+00 0. -1.
         25    2    1    2    0    0 -0.27879293034E+02 -0.30105886356E+02 -0.14375489832E+03  0.19492912111E+03  0.12509305373E+03 0.  0.
         23    2    1    2    0    0  0.27879293034E+02  0.30105886356E+02 -0.83311961538E+02  0.13026878569E+03  0.91353457612E+02 0.  0.
          5    1    3    3  502    0  0.10910127404E+02 -0.70496359711E+02 -0.56187616625E+02  0.90902630735E+02  0.41800000000E+01 0. -1.
         -5    1    3    3    0  502 -0.38789420438E+02  0.40390473355E+02 -0.87567281699E+02  0.10402649038E+03  0.41800000000E+01 0. -1.
        -11    1    4    4    0    0  0.10215420673E+02 -0.18905457670E+02  0.97651199732E+01  0.23603574249E+02  0.00000000000E+00 0.  1.
         11    1    4    4    0    0  0.17663872361E+02  0.49011344027E+02 -0.93077081511E+02  0.10666521145E+03  0.00000000000E+00 0. -1.
</event>
<event>
 8    1  0.6443238E-009  0.9979506E+02  0.7561462E-02  0.1280728E+00
         -1   -1    0    0    0  501 -0.00000000000E+00  0.00000000000E+00  0.67160876951E+03  0.67160876951E+03  0.00000000000E+00 0.  1.
          1   -1    0    0  501    0  0.00000000000E+00 -0.00000000000E+00 -0.28516751532E+02  0.28516751532E+02  0.00000000000E+00 0. -1.
         25    2    1    2    0    0 -0.82521137454E+02 -0.27136126535E+01  0.29919173127E+03  0.33463424403E+03  0.12508910183E+03 0.  0.
         23    2    1    2    0    0  0.82521137454E+02  0.27136126535E+01  0.34390028671E+03  0.36549127702E+03  0.92191998315E+02 0.  0.
          5    1    3    3  502    0 -0.60056293778E+01 -0.46264792712E+01  0.23356466537E+03  0.23372504617E+03  0.41800000000E+01 0. -1.
         -5    1    3    3    0  502 -0.76515508076E+02  0.19128666178E+01  0.65627065892E+02  0.10090919786E+03  0.41800000000E+01 0. -1.
        -11    1    4    4    0    0  0.36680248710E+02 -0.38111146109E+02  0.91078699291E+02  0.10532440158E+03  0.00000000000E+00 0. -1.
         11    1    4    4    0    0  0.45840888745E+02  0.40824758762E+02  0.25282158742E+03  0.26016687544E+03  0.00000000000E+00 0.  1.
</event>
<event>
 8    1  0.6443238E-009  0.8796925E+02  0.7561462E-02  0.1307845E+00
          2   -1    0    0  501    0  0.00000000000E+00  0.00000000000E+00  0.89199423354E+03  0.89199423354E+03  0.00000000000E+00 0. -1.
         -2   -1    0    0    0  501 -0.00000000000E+00 -0.00000000000E+00 -0.16761072510E+02  0.16761072510E+02  0.00000000000E+00 0.  1.
         25    2    1    2    0    0 -0.18654216105E+02 -0.19261961026E+02  0.66779889115E+03  0.67994201243E+03  0.12508708293E+03 0.  0.
         23    2    1    2    0    0  0.18654216105E+02  0.19261961026E+02  0.20743426988E+03  0.22881329363E+03  0.92776851096E+02 0.  0.
          5    1    3    3  502    0 -0.32470866769E+02  0.21225877779E+02  0.58808090397E+03  0.58937383475E+03  0.41800000000E+01 0.  1.
         -5    1    3    3    0  502  0.13816650664E+02 -0.40487838804E+02  0.79717987184E+02  0.90568177674E+02  0.41800000000E+01 0.  1.
        -11    1    4    4    0    0  0.43388451819E+02 -0.19807689348E+02  0.78686501776E+02  0.92013411361E+02  0.00000000000E+00 0.  1.
         11    1    4    4    0    0 -0.24734235713E+02  0.39069650373E+02  0.12874776810E+03  0.13679988227E+03  0.00000000000E+00 0. -1.
</event>
<event>
 8    1  0.6443238E-009  0.1417462E+03  0.7561462E-02  0.1210998E+00
          1   -1    0    0  501    0  0.00000000000E+00  0.00000000000E+00  0.75995616432E+02  0.75995616432E+02  0.00000000000E+00 0. -1.
         -1   -1    0    0    0  501 -0.00000000000E+00 -0.00000000000E+00 -0.37390239565E+03  0.37390239565E+03  0.00000000000E+00 0.  1.
         25    2    1    2    0    0  0.97330838975E+02 -0.76512815373E+02 -0.12315546587E+03  0.21480709238E+03  0.12508922827E+03 0.  0.
         23    2    1    2    0    0 -0.97330838975E+02  0.76512815373E+02 -0.17475131334E+03  0.23509091970E+03  0.96965024002E+02 0.  0.
          5    1    3    3  502    0  0.16544834031E+02 -0.30468252040E+02 -0.11635061287E+03  0.12147832494E+03  0.41800000000E+01 0. -1.
         -5    1    3    3    0  502  0.80786004944E+02 -0.46044563333E+02 -0.68048530080E+01  0.93328767439E+02  0.41800000000E+01 0. -1.
        -11    1    4    4    0    0 -0.39460275495E+02 -0.19013531918E+02 -0.34232979309E+02  0.55592486997E+02  0.00000000000E+00 0.  1.
         11    1    4    4    0    0 -0.57870563480E+02  0.95526347291E+02 -0.14051833403E+03  0.17949843270E+03  0.00000000000E+00 0. -1.
</event>
<event>
 8    1  0.6443238E-009  0.1181605E+03  0.7561462E-02  0.1246163E+00
         -1   -1    0    0    0  501 -0.00000000000E+00  0.00000000000E+00  0.62109152531E+02  0.62109152531E+02  0.00000000000E+00 0.  1.
          1   -1    0    0  501    0  0.00000000000E+00 -0.00000000000E+00 -0.26075570749E+03  0.26075570749E+03  0.00000000000E+00 0. -1.
         25    2    1    2    0    0  0.66035969999E+02  0.24132838758E+01 -0.10667022917E+03  0.17717938613E+03  0.12508966306E+03 0.  0.
         23    2    1    2    0    0 -0.66035969999E+02 -0.24132838758E+01 -0.91976325787E+02  0.14568547389E+03  0.91640818010E+02 0.  0.
          5    1    3    3  502    0  0.64908721284E+02 -0.45612965722E+02 -0.26725719090E+02  0.83817785711E+02  0.41800000000E+01 0.  1.
         -5    1    3    3    0  502  0.11272487152E+01  0.48026249597E+02 -0.79944510079E+02  0.93361600414E+02  0.41800000000E+01 0.  1.
        -11    1    4    4    0    0 -0.61695411468E+01  0.36655058849E+02 -0.51569722200E+02  0.63569590410E+02  0.00000000000E+00 0. -1.
         11    1    4    4    0    0 -0.59866428852E+02 -0.39068342725E+02 -0.40406603587E+02  0.82115883483E+02  0.00000000000E+00 0.  1.
</event>
<event>
 8    1  0.6443238E-009  0.1167081E+03  0.7561462E-02  0.1248629E+00
         -1   -1    0    0    0  501 -0.00000000000E+00  0.00000000000E+00  0.47565939123E+02  0.47565939123E+02  0.00000000000E+00 0.  1.
          1   -1    0    0  501    0  0.00000000000E+00 -0.00000000000E+00 -0.48032197209E+03  0.48032197209E+03  0.00000000000E+00 0. -1.
         25    2    1    2    0    0  0.10246246598E+03 -0.17784062887E+02 -0.21770006905E+03  0.27176772450E+03  0.12509814622E+03 0.  0.
         23    2    1    2    0    0 -0.10246246598E+03  0.17784062887E+02 -0.21505596392E+03  0.25612018672E+03  0.92377771124E+02 0.  0.
          5    1    3    3  502    0  0.62473379107E+02  0.18354584772E+02 -0.20649418294E+03  0.21655746089E+03  0.41800000000E+01 0. -1.
         -5    1    3    3    0  502  0.39989086877E+02 -0.36138647658E+02 -0.11205886105E+02  0.55210263604E+02  0.41800000000E+01 0. -1.
        -11    1    4    4    0    0 -0.32928860726E+01  0.14514982117E+02  0.41937169525E+01  0.15463345900E+02  0.00000000000E+00 0.  1.
         11    1    4    4    0    0 -0.99169579911E+02  0.32690807693E+01 -0.21924968087E+03  0.24065684082E+03  0.00000000000E+00 0. -1.
</event>
<event>
 8    1  0.6443238E-009  0.1194622E+03  0.7561462E-02  0.1243987E+00
         -1   -1    0    0    0  501 -0.00000000000E+00  0.00000000000E+00  0.19366354710E+03  0.19366354710E+03  0.00000000000E+00 0.  1.
          1   -1    0    0  501    0  0.00000000000E+00 -0.00000000000E+00 -0.81124048707E+02  0.81124048707E+02  0.00000000000E+00 0. -1.
         25    2    1    2    0    0  0.22971414897E+02  0.60918059518E+02  0.54010029717E+02  0.15100801902E+03  0.12509053769E+03 0.  0.
         23    2    1    2    0    0 -0.22971414897E+02 -0.60918059518E+02  0.58529468677E+02  0.12377957679E+03  0.87504223034E+02 0.  0.
          5    1    3    3  502    0 -0.16592706644E+01 -0.38052102183E+02  0.21195101334E+02  0.43788358958E+02  0.41800000000E+01 0.  1.
         -5    1    3    3    0  502  0.24630685561E+02  0.98970161701E+02  0.32814928383E+02  0.10721966006E+03  0.41800000000E+01 0.  1.
        -11    1    4    4    0    0  0.14735088008E+02 -0.58962214208E+02  0.89054097585E+01  0.61424521536E+02  0.00000000000E+00 0. -1.
         11    1    4    4    0    0 -0.37706502904E+02 -0.19558453099E+01  0.49624058919E+02  0.62355055254E+02  0.00000000000E+00 0.  1.
</event>
<event>
 8    1  0.6443238E-009  0.1097452E+03  0.7561462E-02  0.1261043E+00
         -1   -1    0    0    0  501 -0.00000000000E+00  0.00000000000E+00  0.28081256317E+02  0.28081256317E+02  0.00000000000E+00 0.  1.
          1   -1    0    0  501    0  0.00000000000E+00 -0.00000000000E+00 -0.50819998701E+03  0.50819998701E+03  0.00000000000E+00 0. -1.
         25    2    1    2    0    0 -0.21761114789E+02 -0.40048711267E+02 -0.24361817228E+03  0.27762350258E+03  0.12509016720E+03 0.  0.
         23    2    1    2    0    0  0.21761114789E+02  0.40048711267E+02 -0.23650055842E+03  0.25865774075E+03  0.94307302615E+02 0.  0.
          5    1    3    3  502    0 -0.73771503279E+02 -0.21420523668E+02 -0.12639759029E+03  0.14796924262E+03  0.41800000000E+01 0. -1.
         -5    1    3    3    0  502  0.52010388490E+02 -0.18628187599E+02 -0.11722058199E+03  0.12965425996E+03  0.41800000000E+01 0. -1.
        -11    1    4    4    0    0  0.48926853879E+02  0.17880544133E+02 -0.63466509005E+02  0.82106934264E+02  0.00000000000E+00 0.  1.
         11    1    4    4    0    0 -0.27165739090E+02  0.22168167133E+02 -0.17303404941E+03  0.17655080648E+03  0.00000000000E+00 0. -1.
</event>
<event>
 8    1  0.6443238E-009  0.9588109E+02  0.7561462E-02  0.1289204E+00
          1   -1    0    0  501    0  0.00000000000E+00  0.00000000000E+00  0.29296185823E+03  0.29296185823E+03  0.00000000000E+00 0. -1.
         -1   -1    0    0    0  501 -0.00000000000E+00 -0.00000000000E+00 -0.82497602025E+02  0.82497602025E+02  0.00000000000E+00 0.  1.
         25    2    1    2    0    0  0.51369615780E+02  0.66217175264E+02  0.20093886152E+03  0.25108947464E+03  0.12508375785E+03 0.  0.
         23    2    1    2    0    0 -0.51369615780E+02 -0.66217175264E+02  0.95253946810E+01  0.12436998562E+03  0.91398076857E+02 0.  0.
          5    1    3    3  502    0  0.14631070523E+02  0.10870604154E+02  0.18049206533E+03  0.18145824949E+03  0.41800000000E+01 0.  1.
         -5    1    3    3    0  502  0.36738545257E+02  0.55346571110E+02  0.20446796189E+02  0.69631225148E+02  0.41800000000E+01 0.  1.
        -11    1    4    4    0    0 -0.66561702496E+02 -0.44769545152E+02  0.35225011419E+02  0.87610352366E+02  0.00000000000E+00 0. -1.
         11    1    4    4    0    0  0.15192086716E+02 -0.21447630112E+02 -0.25699616738E+02  0.36759633250E+02  0.00000000000E+00 0.  1.
</event>
<event>
 8    1  0.6443238E-009  0.2161220E+03  0.7561462E-02  0.1136808E+00
          2   -1    0    0  501    0  0.00000000000E+00  0.00000000000E+00  0.12792294800E+03  0.12792294800E+03  0.00000000000E+00 0. -1.
         -2   -1    0    0    0  501 -0.00000000000E+00 -0.00000000000E+00 -0.58674594922E+03  0.58674594922E+03  0.00000000000E+00 0.  1.
         25    2    1    2    0    0  0.10723435719E+03  0.16718590011E+03 -0.34522563614E+02  0.23725373641E+03  0.12508875043E+03 0.  0.
         23    2    1    2    0    0 -0.10723435719E+03 -0.16718590011E+03 -0.42430043761E+03  0.47741516081E+03  0.91891467847E+02 0.  0.
          5    1    3    3  502    0  0.93751887759E+02  0.18703549240E+03 -0.23685399481E+02  0.21059478252E+03  0.41800000000E+01 0. -1.
         -5    1    3    3    0  502  0.13482469429E+02 -0.19849592289E+02 -0.10837164134E+02  0.26658953888E+02  0.41800000000E+01 0. -1.
        -11    1    4    4    0    0 -0.53270843128E+02 -0.84644130335E+02 -0.31358888663E+03  0.32915103121E+03  0.00000000000E+00 0.  1.
         11    1    4    4    0    0 -0.53963514061E+02 -0.82541769776E+02 -0.11071155098E+03  0.14826412960E+03  0.00000000000E+00 0. -1.
</event>
<event>
 8    1  0.6443238E-009  0.1074951E+03  0.7561462E-02  0.1265280E+00
         -1   -1    0    0    0  501 -0.00000000000E+00  0.00000000000E+00  0.54630210762E+03  0.54630210762E+03  0.00000000000E+00 0.  1.
          1   -1    0    0  501    0  0.00000000000E+00 -0.00000000000E+00 -0.39055920845E+02  0.39055920845E+02  0.00000000000E+00 0. -1.
         25    2    1    2    0    0  0.98595734922E+01 -0.59389052863E+02  0.43201910659E+03  0.45377587309E+03  0.12509102186E+03 0.  0.
         23    2    1    2    0    0 -0.98595734922E+01  0.59389052863E+02  0.75227080189E+02  0.13158215538E+03  0.89612941207E+02 0.  0.
          5    1    3    3  502    0  0.97630519533E+00 -0.89304865853E+02  0.39585408589E+03  0.40582538357E+03  0.41800000000E+01 0. -1.
         -5    1    3    3    0  502  0.88832682969E+01  0.29915812990E+02  0.36165020703E+02  0.47950489517E+02  0.41800000000E+01 0. -1.
        -11    1    4    4    0    0 -0.34371597973E+02  0.53860242194E+01 -0.12391530144E+01  0.34813093863E+02  0.00000000000E+00 0. -1.
         11    1    4    4    0    0  0.24512024481E+02  0.54003028643E+02  0.76466233203E+02  0.96769061518E+02  0.00000000000E+00 0.  1.
</event>
<event>
 8    1  0.6443238E-009  0.1462168E+03  0.7561462E-02  0.1205200E+00
         -2   -1    0    0    0  501 -0.00000000000E+00  0.00000000000E+00  0.13748741577E+02  0.13748741577E+02  0.00000000000E+00 0.  1.
          2   -1    0    0  501    0  0.00000000000E+00 -0.00000000000E+00 -0.17311608783E+04  0.17311608783E+04  0.00000000000E+00 0. -1.
         25    2    1    2    0    0  0.86547573257E+02 -0.63494729894E+02 -0.99139221857E+03  0.10050012565E+04  0.12508769476E+03 0.  0.
         23    2    1    2    0    0 -0.86547573257E+02  0.63494729894E+02 -0.72601991813E+03  0.73990836334E+03  0.94007454314E+02 0.  0.
          5    1    3    3  502    0 -0.19160860433E+02 -0.35418219519E+02 -0.11745447359E+03  0.12423612443E+03  0.41800000000E+01 0.  1.
         -5    1    3    3    0  502  0.10570843369E+03 -0.28076510375E+02 -0.87393774499E+03  0.88076513209E+03  0.41800000000E+01 0.  1.
        -11    1    4    4    0    0 -0.18101816419E+02  0.71340287577E+02 -0.39412567845E+03  0.40093910112E+03  0.00000000000E+00 0.  1.
         11    1    4    4    0    0 -0.68445756838E+02 -0.78455576832E+01 -0.33189423968E+03  0.33896926223E+03  0.00000000000E+00 0. -1.
</event>
<event>
 8    1  0.6443238E-009  0.2325445E+03  0.7561462E-02  0.1124862E+00
          2   -1    0    0  501    0  0.00000000000E+00  0.00000000000E+00  0.61428268130E+02  0.61428268130E+02  0.00000000000E+00 0. -1.
         -2   -1    0    0    0  501 -0.00000000000E+00 -0.00000000000E+00 -0.11464436992E+04  0.11464436992E+04  0.00000000000E+00 0.  1.
         25    2    1    2    0    0 -0.20279239090E+03  0.66433628465E+02 -0.29925150029E+03  0.38824914804E+03  0.12509100580E+03 0.  0.
         23    2    1    2    0    0  0.20279239090E+03 -0.66433628465E+02 -0.78576393082E+03  0.81962281933E+03  0.93906497044E+02 0.  0.
          5    1    3    3  502    0 -0.82741940482E+02  0.92430249179E+02 -0.16036784864E+03  0.20279274877E+03  0.41800000000E+01 0. -1.
         -5    1    3    3    0  502 -0.12005045042E+03 -0.25996620714E+02 -0.13888365165E+03  0.18545639927E+03  0.41800000000E+01 0. -1.
        -11    1    4    4    0    0  0.15793649261E+03 -0.31124819601E+02 -0.68644621452E+03  0.70506814956E+03  0.00000000000E+00 0.  1.
         11    1    4    4    0    0  0.44855898291E+02 -0.35308808864E+02 -0.99317716298E+02  0.11455466977E+03  0.00000000000E+00 0. -1.
</event>
<event>
 8    1  0.6443238E-009  0.1034648E+03  0.7561462E-02  0.1273174E+00
          1   -1    0    0  501    0  0.00000000000E+00  0.00000000000E+00  0.67380475359E+02  0.67380475359E+02  0.00000000000E+00 0. -1.
         -1   -1    0    0    0  501 -0.00000000000E+00 -0.00000000000E+00 -0.21022108940E+03  0.21022108940E+03  0.00000000000E+00 0.  1.
         25    2    1    2    0    0 -0.20616207599E+02 -0.75888949194E+01 -0.13263953377E+03  0.18363946133E+03  0.12509031335E+03 0.  0.
         23    2    1    2    0    0  0.20616207599E+02  0.75888949194E+01 -0.10201080268E+02  0.93962103433E+02  0.90786538105E+02 0.  0.
          5    1    3    3  502    0 -0.59830506054E+02  0.31811904610E+02 -0.51585427177E+02  0.85265558267E+02  0.41800000000E+01 0.  1.
         -5    1    3    3    0  502  0.39214298455E+02 -0.39400799529E+02 -0.81054106596E+02  0.98373903059E+02  0.41800000000E+01 0.  1.
        -11    1    4    4    0    0  0.99373194329E+00  0.42891393013E+02 -0.26478543377E+02  0.50415993069E+02  0.00000000000E+00 0.  1.
         11    1    4    4    0    0  0.19622475656E+02 -0.35302498094E+02  0.16277463109E+02  0.43546110364E+02  0.00000000000E+00 0. -1.
</event>
<event>
 8    1  0.6443238E-009  0.9724028E+02  0.7561462E-02  0.1286209E+00
          2   -1    0    0  501    0  0.00000000000E+00  0.00000000000E+00  0.68901450735E+03  0.68901450735E+03  0.00000000000E+00 0. -1.
         -2   -1    0    0    0  501 -0.00000000000E+00 -0.00000000000E+00 -0.23277742527E+02  0.23277742527E+02  0.00000000000E+00 0.  1.
         25    2    1    2    0    0 -0.22846438533E+02 -0.77086894548E+01  0.54301826452E+03  0.55776095177E+03  0.12508820919E+03 0.  0.
         23    2    1    2    0    0  0.22846438533E+02  0.77086894548E+01  0.12271850030E+03  0.15453129810E+03  0.90767329633E+02 0.  0.
          5    1    3    3  502    0  0.37221884714E+02 -0.43383523258E+02  0.25477272834E+03  0.26114021961E+03  0.41800000000E+01 0. -1.
         -5    1    3    3    0  502 -0.60068323246E+02  0.35674833803E+02  0.28824553617E+03  0.29662073216E+03  0.41800000000E+01 0. -1.
        -11    1    4    4    0    0  0.32006646177E+02 -0.20169806726E+02  0.11550995344E+02  0.39555935032E+02  0.00000000000E+00 0.  1.
         11    1    4    4    0    0 -0.91602076438E+01  0.27878496181E+02  0.11116750496E+03  0.11497536307E+03  0.00000000000E+00 0. -1.
</event>
<event>
 8    1  0.6443238E-009  0.1014546E+03  0.7561462E-02  0.1277267E+00
          1   -1    0    0  501    0  0.00000000000E+00  0.00000000000E+00  0.70612847075E+02  0.70612847075E+02  0.00000000000E+00 0. -1.
         -1   -1    0    0    0  501 -0.00000000000E+00 -0.00000000000E+00 -0.17879949993E+03  0.17879949993E+03  0.00000000000E+00 0.  1.
         25    2    1    2    0    0 -0.10896713322E+02  0.90197438382E+01 -0.91612932100E+02  0.15569451893E+03  0.12509100590E+03 0.  0.
         23    2    1    2    0    0  0.10896713322E+02 -0.90197438382E+01 -0.16573720752E+02  0.93717828070E+02  0.91149596480E+02 0.  0.
          5    1    3    3  502    0 -0.35305429912E+02 -0.50306050870E+02 -0.44577805513E+02  0.76038314551E+02  0.41800000000E+01 0.  1.
         -5    1    3    3    0  502  0.24408716590E+02  0.59325794708E+02 -0.47035126587E+02  0.79656204381E+02  0.41800000000E+01 0.  1.
        -11    1    4    4    0    0  0.25976331906E+02 -0.37016774668E+02 -0.34802919457E+02  0.57063601611E+02  0.00000000000E+00 0.  1.
         11    1    4    4    0    0 -0.15079618584E+02  0.27997030830E+02  0.18229198705E+02  0.36654226459E+02  0.00000000000E+00 0. -1.
</event>
<event>
 8    1  0.6443238E-009  0.1672812E+03  0.7561462E-02  0.1180713E+00
         -2   -1    0    0    0  501 -0.00000000000E+00  0.00000000000E+00  0.49934176244E+02  0.49934176244E+02  0.00000000000E+00 0.  1.
          2   -1    0    0  501    0  0.00000000000E+00 -0.00000000000E+00 -0.73711974411E+03  0.73711974411E+03  0.00000000000E+00 0. -1.
         25    2    1    2    0    0 -0.11394962424E+02  0.15104204205E+03 -0.27470783467E+03  0.33773010417E+03  0.12511468818E+03 0.  0.
         23    2    1    2    0    0  0.11394962424E+02 -0.15104204205E+03 -0.41247773319E+03  0.44932381618E+03  0.93864092039E+02 0.  0.
          5    1    3    3  502    0  0.41721685105E+02  0.10132385702E+03 -0.22259453568E+03  0.24813911970E+03  0.41800000000E+01 0.  1.
         -5    1    3    3    0  502 -0.53116647529E+02  0.49718185023E+02 -0.52113298990E+02  0.89590984470E+02  0.41800000000E+01 0.  1.
        -11    1    4    4    0    0  0.12632795495E+02 -0.81151557844E+02 -0.33523061436E+03  0.34514450259E+03  0.00000000000E+00 0. -1.
         11    1    4    4    0    0 -0.12378330713E+01 -0.69890484203E+02 -0.77247118830E+02  0.10417931359E+03  0.00000000000E+00 0.  1.
</event>
<event>
 7    1  0.6443238E-009  0.1373860E+03  0.7561462E-02  0.1216890E+00
         -1   -1    0    0    0  501 -0.00000000000E+00  0.00000000000E+00  0.49976541259E+03  0.49976541259E+03  0.00000000000E+00 0.  1.
          1   -1    0    0  501    0  0.00000000000E+00 -0.00000000000E+00 -0.85582253342E+02  0.85582253342E+02  0.00000000000E+00 0. -1.
         23    2    1    2    0    0  0.80462613680E+02 -0.43778842039E+02 -0.12389786721E+02  0.13140540651E+03  0.93397295655E+02 0.  0.
          5    1    1    2  502    0 -0.97396415410E+02  0.64701250455E+02  0.39633393094E+03  0.41324371835E+03  0.41800000000E+01 0. -1.
         -5    1    1    2    0  502  0.16933801730E+02 -0.20922408416E+02  0.30239015035E+02  0.40698541070E+02  0.41800000000E+01 0. -1.
        -11    1    3    3    0    0  0.98919959777E+02 -0.20847855750E+02 -0.13242424158E+02  0.10195662474E+03  0.00000000000E+00 0.  1.
         11    1    3    3    0    0 -0.18457346097E+02 -0.22930986290E+02  0.85263743702E+00  0.29448781770E+02  0.00000000000E+00 0. -1.
</event>
<event>
 8    1  0.6443238E-009  0.1411385E+03  0.7561462E-02  0.1211805E+00
          1   -1    0    0  501    0  0.00000000000E+00  0.00000000000E+00  0.83764350906E+02  0.83764350906E+02  0.00000000000E+00 0. -1.
         -1   -1    0    0    0  501 -0.00000000000E+00 -0.00000000000E+00 -0.25281472702E+03  0.25281472702E+03  0.00000000000E+00 0.  1.
         25    2    1    2    0    0 -0.80931388739E+02  0.42407110702E+02 -0.55104568407E+02  0.16441604648E+03  0.12509144718E+03 0.  0.
         23    2    1    2    0    0  0.80931388739E+02 -0.42407110702E+02 -0.11394580771E+03  0.17216303145E+03  0.91149380594E+02 0.  0.
          5    1    3    3  502    0  0.32413976555E+02 -0.21467033404E+01 -0.75875197497E+01  0.33620188389E+02  0.41800000000E+01 0.  1.
         -5    1    3    3    0  502 -0.11334536529E+03  0.44553814043E+02 -0.47517048658E+02  0.13079585809E+03  0.41800000000E+01 0.  1.
        -11    1    4    4    0    0  0.18614100514E+02 -0.60074059450E+02 -0.43530620454E+02  0.76487203334E+02  0.00000000000E+00 0. -1.
         11    1    4    4    0    0  0.62317288226E+02  0.17666948747E+02 -0.70415187252E+02  0.95675828116E+02  0.00000000000E+00 0.  1.
</event>
<event>
 8    1  0.6443238E-009  0.8702919E+02  0.7561462E-02  0.1310210E+00
          1   -1    0    0  501    0  0.00000000000E+00  0.00000000000E+00  0.68655547018E+03  0.68655547018E+03  0.00000000000E+00 0. -1.
         -1   -1    0    0    0  501 -0.00000000000E+00 -0.00000000000E+00 -0.42121957163E+02  0.42121957163E+02  0.00000000000E+00 0.  1.
         25    2    1    2    0    0  0.27697269515E+02 -0.32444232526E+02  0.60617475345E+03  0.62041595155E+03  0.12509338215E+03 0.  0.
         23    2    1    2    0    0 -0.27697269515E+02  0.32444232526E+02  0.38258759570E+02  0.10826147579E+03  0.91853402192E+02 0.  0.
          5    1    3    3  502    0  0.69741070961E+01 -0.56503897570E+02  0.56676611485E+03  0.56963376827E+03  0.41800000000E+01 0. -1.
         -5    1    3    3    0  502  0.20723162419E+02  0.24059665044E+02  0.39408638595E+02  0.50782183279E+02  0.41800000000E+01 0. -1.
        -11    1    4    4    0    0  0.22635928596E+02 -0.37559989537E+01 -0.14253665310E+02  0.27012215131E+02  0.00000000000E+00 0. -1.
         11    1    4    4    0    0 -0.50333198111E+02  0.36200231479E+02  0.52512424880E+02  0.81249260661E+02  0.00000000000E+00 0.  1.
</event>
<event>
 8    1  0.6443238E-009  0.9524725E+02  0.7561462E-02  0.1290620E+00
         -2   -1    0    0    0  501 -0.00000000000E+00  0.00000000000E+00  0.54062622615E+02  0.54062622615E+02  0.00000000000E+00 0.  1.
          2   -1    0    0  501    0  0.00000000000E+00 -0.00000000000E+00 -0.33572357418E+03  0.33572357418E+03  0.00000000000E+00 0. -1.
         25    2    1    2    0    0 -0.11597023654E+02 -0.21894393074E+00 -0.26685899261E+03  0.29494761122E+03  0.12508330238E+03 0.  0.
         23    2    1    2    0    0  0.11597023654E+02  0.21894393074E+00 -0.14801958951E+02  0.94838585570E+02  0.92955475525E+02 0.  0.
          5    1    3    3  502    0  0.53527823381E+02 -0.13846009840E+02 -0.87384926200E+02  0.10349172716E+03  0.41800000000E+01 0. -1.
         -5    1    3    3    0  502 -0.65124847035E+02  0.13627065909E+02 -0.17947406641E+03  0.19145588406E+03  0.41800000000E+01 0. -1.
        -11    1    4    4    0    0  0.21384261359E+01 -0.33393933425E+02  0.25089313237E+02  0.41823453882E+02  0.00000000000E+00 0.  1.
         11    1    4    4    0    0  0.94585975178E+01  0.33612877355E+02 -0.39891272188E+02  0.53015131688E+02  0.00000000000E+00 0. -1.
</event>
<event>
 8    1  0.6443238E-009  0.1314318E+03  0.7561462E-02  0.1225347E+00
          2   -1    0    0  501    0  0.00000000000E+00  0.00000000000E+00  0.33152771351E+03  0.33152771351E+03  0.00000000000E+00 0.  1.
         -2   -1    0    0    0  501 -0.00000000000E+00 -0.00000000000E+00 -0.59268112659E+02  0.59268112659E+02  0.00000000000E+00 0. -1.
         25    2    1    2    0    0 -0.32026692922E+02 -0.78659375361E+02  0.16425658307E+03  0.22324944476E+03  0.12508830126E+03 0.  0.
         23    2    1    2    0    0  0.32026692922E+02  0.78659375361E+02  0.10800301778E+03  0.16754638141E+03  0.95886034867E+02 0.  0.
          5    1    3    3  502    0 -0.75574326492E+02 -0.49751223073E+02  0.13677727328E+03  0.16404925451E+03  0.41800000000E+01 0.  1.
         -5    1    3    3    0  502  0.43547633570E+02 -0.28908152288E+02  0.27479309797E+02  0.59200190246E+02  0.41800000000E+01 0.  1.
        -11    1    4    4    0    0  0.18921844890E+02  0.96150655746E+02  0.60264466607E+02  0.11504256060E+03  0.00000000000E+00 0. -1.
         11    1    4    4    0    0  0.13104848032E+02 -0.17491280385E+02  0.47738551174E+02  0.52503820810E+02  0.00000000000E+00 0.  1.
</event>
<event>
 8    1  0.6443238E-009  0.1211294E+03  0.7561462E-02  0.1241246E+00
         -2   -1    0    0    0  501 -0.00000000000E+00  0.00000000000E+00  0.13420060623E+02  0.13420060623E+02  0.00000000000E+00 0.  1.
          2   -1    0    0  501    0  0.00000000000E+00 -0.00000000000E+00 -0.14977500035E+04  0.14977500035E+04  0.00000000000E+00 0. -1.
         25    2    1    2    0    0 -0.24891807610E+02  0.82288934774E+02 -0.96032933828E+03  0.97224963907E+03  0.12508337952E+03 0.  0.
         23    2    1    2    0    0  0.24891807610E+02 -0.82288934774E+02 -0.52400060459E+03  0.53892042505E+03  0.92019128724E+02 0.  0.
          5    1    3    3  502    0 -0.34830048255E+02 -0.45208796132E+00 -0.72861302143E+02  0.80867659759E+02  0.41800000000E+01 0. -1.
         -5    1    3    3    0  502  0.99382406448E+01  0.82741022736E+02 -0.88746803614E+03  0.89138197931E+03  0.41800000000E+01 0. -1.
        -11    1    4    4    0    0  0.58458752493E+02 -0.46778674281E+02 -0.36418193849E+03  0.37179854012E+03  0.00000000000E+00 0. -1.
         11    1    4    4    0    0 -0.33566944883E+02 -0.35510260494E+02 -0.15981866610E+03  0.16712188493E+03  0.00000000000E+00 0.  1.
</event>
<event>
 8    1  0.6443238E-009  0.8206325E+02  0.7561462E-02  0.1323296E+00
         -1   -1    0    0    0  501 -0.00000000000E+00  0.00000000000E+00  0.98570126822E+02  0.98570126822E+02  0.00000000000E+00 0.  1.
          1   -1    0    0  501    0  0.00000000000E+00 -0.00000000000E+00 -0.13436144631E+03  0.13436144631E+03  0.00000000000E+00 0. -1.
         25    2    1    2    0    0  0.25277461606E+02 -0.12888217653E+02  0.94707464832E+01  0.12862093624E+03  0.12509434032E+03 0.  0.
         23    2    1    2    0    0 -0.25277461606E+02  0.12888217653E+02 -0.45262065967E+02  0.10431063689E+03  0.89593516138E+02 0.  0.
          5    1    3    3  502    0 -0.10741038790E+02 -0.61352292830E+02  0.23127439497E+02  0.66571950606E+02  0.41800000000E+01 0. -1.
         -5    1    3    3    0  502  0.36018500396E+02  0.48464075177E+02 -0.13656693013E+02  0.62048985629E+02  0.41800000000E+01 0. -1.
        -11    1    4    4    0    0 -0.28746728336E+02  0.97263681116E+00 -0.70524496301E+02  0.76164460157E+02  0.00000000000E+00 0. -1.
         11    1    4    4    0    0  0.34692667307E+01  0.11915580842E+02  0.25262430334E+02  0.28146176736E+02  0.00000000000E+00 0.  1.
</event>
<event>
 8    1  0.6443238E-009  0.9596695E+02  0.7561462E-02  0.1289013E+00
         -1   -1    0    0    0  501 -0.00000000000E+00  0.00000000000E+00  0.24962611027E+02  0.24962611027E+02  0.00000000000E+00 0.  1.
          1   -1    0    0  501    0  0.00000000000E+00 -0.00000000000E+00 -0.45914793828E+03  0.45914793828E+03  0.00000000000E+00 0. -1.
         25    2    1    2    0    0 -0.18625297304E+02 -0.26651298225E+02 -0.23137243992E+03  0.26502426018E+03  0.12508980428E+03 0.  0.
         23    2    1    2    0    0  0.18625297304E+02  0.26651298225E+02 -0.20281288734E+03  0.21908628912E+03  0.76213787571E+02 0.  0.
          5    1    3    3  502    0 -0.63991405232E+02 -0.24877532126E+02 -0.73349319316E+02  0.10055539067E+03  0.41800000000E+01 0.  1.
         -5    1    3    3    0  502  0.45366107928E+02 -0.17737660994E+01 -0.15802312060E+03  0.16446886951E+03  0.41800000000E+01 0.  1.
        -11    1    4    4    0    0  0.19965879657E+02 -0.21526610586E+02 -0.11737829746E+03  0.12099461157E+03  0.00000000000E+00 0. -1.
         11    1    4    4    0    0 -0.13405823529E+01  0.48177908812E+02 -0.85434589873E+02  0.98091677554E+02  0.00000000000E+00 0.  1.
</event>
<event>
 8    1  0.6443238E-009  0.1344373E+03  0.7561462E-02  0.1221016E+00
          2   -1    0    0  501    0  0.00000000000E+00  0.00000000000E+00  0.51036739918E+03  0.51036739918E+03  0.00000000000E+00 0.  1.
         -2   -1    0    0    0  501 -0.00000000000E+00 -0.00000000000E+00 -0.49071065084E+02  0.49071065084E+02  0.00000000000E+00 0. -1.
         25    2    1    2    0    0  0.11476013309E+03  0.32480843994E+01  0.21766608329E+03  0.27605630995E+03  0.12509246280E+03 0.  0.
         23    2    1    2    0    0 -0.11476013309E+03 -0.32480843994E+01  0.24363025080E+03  0.28338215431E+03  0.88143678579E+02 0.  0.
          5    1    3    3  502    0  0.33389105301E+01  0.25010166348E+02  0.13018438525E+03  0.13267291852E+03  0.41800000000E+01 0.  1.
         -5    1    3    3    0  502  0.11142122256E+03 -0.21762081949E+02  0.87481698037E+02  0.14338339144E+03  0.41800000000E+01 0.  1.
        -11    1    4    4    0    0 -0.10569452253E+03  0.17425396262E+02  0.13451920659E+03  0.17196044158E+03  0.00000000000E+00 0.  1.
         11    1    4    4    0    0 -0.90656105657E+01 -0.20673480661E+02  0.10911104421E+03  0.11142171272E+03  0.00000000000E+00 0. -1.
</event>
<event>
 8    1  0.6443238E-009  0.8656041E+02  0.7561462E-02  0.1311402E+00
          2   -1    0    0  501    0  0.00000000000E+00  0.00000000000E+00  0.79302415842E+03  0.79302415842E+03  0.00000000000E+00 0. -1.
         -2   -1    0    0    0  501 -0.00000000000E+00 -0.00000000000E+00 -0.23237367457E+02  0.23237367457E+02  0.00000000000E+00 0.  1.
         25    2    1    2    0    0  0.55742470257E+02  0.13517189464E+02  0.59351448720E+03  0.60925869031E+03  0.12508704091E+03 0.  0.
         23    2    1    2    0    0 -0.55742470257E+02 -0.13517189464E+02  0.17627230376E+03  0.20700283556E+03  0.92132032739E+02 0.  0.
          5    1    3    3  502    0  0.13803550267E+02  0.24879141013E+02  0.53738273066E+03  0.53815163409E+03  0.41800000000E+01 0.  1.
         -5    1    3    3    0  502  0.41938919990E+02 -0.11361951549E+02  0.56131756538E+02  0.71107056225E+02  0.41800000000E+01 0.  1.
        -11    1    4    4    0    0 -0.49628210331E+01  0.32082052509E+02  0.24758482920E+02  0.40827321273E+02  0.00000000000E+00 0.  1.
         11    1    4    4    0    0 -0.50779649224E+02 -0.45599241973E+02  0.15151382084E+03  0.16617551429E+03  0.00000000000E+00 0. -1.
</event>
<event>
 8    1  0.6443238E-009  0.8375931E+02  0.7561462E-02  0.1318709E+00
          2   -1    0    0  501    0  0.00000000000E+00  0.00000000000E+00  0.67720684507E+03  0.67720684507E+03  0.00000000000E+00 0. -1.
         -2   -1    0    0    0  501 -0.00000000000E+00 -0.00000000000E+00 -0.19203866584E+02  0.19203866584E+02  0.00000000000E+00 0.  1.
         25    2    1    2    0    0 -0.12729654873E+02  0.12104886956E+02  0.46621919961E+03  0.48302855159E+03  0.12509063579E+03 0.  0.
         23    2    1    2    0    0  0.12729654873E+02 -0.12104886956E+02  0.19178377887E+03  0.21338216006E+03  0.91882294227E+02 0.  0.
          5    1    3    3  502    0  0.17628816133E+02 -0.38265673287E+02  0.35154083292E+03  0.35408115810E+03  0.41800000000E+01 0.  1.
         -5    1    3    3    0  502 -0.30358471005E+02  0.50370560243E+02  0.11467836669E+03  0.12894739349E+03  0.41800000000E+01 0.  1.
        -11    1    4    4    0    0 -0.25835436089E+02 -0.11916433085E+00  0.10893087621E+02  0.28038247377E+02  0.00000000000E+00 0.  1.
         11    1    4    4    0    0  0.38565090962E+02 -0.11985722625E+02  0.18089069125E+03  0.18534391268E+03  0.00000000000E+00 0. -1.
</event>
<event>
 8    1  0.6443238E-009  0.1145673E+03  0.7561462E-02  0.1252338E+00
          1   -1    0    0  501    0  0.00000000000E+00  0.00000000000E+00  0.57426860178E+02  0.57426860178E+02  0.00000000000E+00 0. -1.
         -1   -1    0    0    0  501 -0.00000000000E+00 -0.00000000000E+00 -0.28446421674E+03  0.28446421674E+03  0.00000000000E+00 0.  1.
         25    2    1    2    0    0 -0.67292379234E+02 -0.71432972285E+01 -0.12068170586E+03  0.18651951215E+03  0.12508462450E+03 0.  0.
         23    2    1    2    0    0  0.67292379234E+02  0.71432972285E+01 -0.10635565071E+03  0.15537156477E+03  0.90826800581E+02 0.  0.
          5    1    3    3  502    0 -0.40415465275E+02  0.46565080389E+02 -0.10884218647E+03  0.12516313555E+03  0.41800000000E+01 0.  1.
         -5    1    3    3    0  502 -0.26876913959E+02 -0.53708377617E+02 -0.11839519389E+02  0.61356376601E+02  0.41800000000E+01 0.  1.
        -11    1    4    4    0    0  0.84616845525E+02 -0.68049703859E+01 -0.59991438157E+02  0.10394850081E+03  0.00000000000E+00 0. -1.
         11    1    4    4    0    0 -0.17324466291E+02  0.13948267614E+02 -0.46364212551E+02  0.51423063962E+02  0.00000000000E+00 0.  1.
</event>
<event>
 8    1  0.6443238E-009  0.1144810E+03  0.7561462E-02  0.1252490E+00
         -2   -1    0    0    0  501 -0.00000000000E+00  0.00000000000E+00  0.32765412501E+02  0.32765412501E+02  0.00000000000E+00 0.  1.
          2   -1    0    0  501    0  0.00000000000E+00 -0.00000000000E+00 -0.45108530380E+03  0.45108530380E+03  0.00000000000E+00 0. -1.
         25    2    1    2    0    0 -0.18178978233E+02  0.48763117551E+02 -0.20070352104E+03  0.24215094922E+03  0.12508741731E+03 0.  0.
         23    2    1    2    0    0  0.18178978233E+02 -0.48763117551E+02 -0.21761637026E+03  0.24169976708E+03  0.91397898875E+02 0.  0.
          5    1    3    3  502    0  0.30943049361E+02  0.68945584652E+02 -0.15276315804E+03  0.17048466442E+03  0.41800000000E+01 0. -1.
         -5    1    3    3    0  502 -0.49122027594E+02 -0.20182467101E+02 -0.47940362997E+02  0.71666284803E+02  0.41800000000E+01 0. -1.
        -11    1    4    4    0    0  0.21082214632E+02 -0.72801060231E+02 -0.12692935566E+03  0.14783611018E+03  0.00000000000E+00 0. -1.
         11    1    4    4    0    0 -0.29032363991E+01  0.24037942680E+02 -0.90687014600E+02  0.93863656901E+02  0.00000000000E+00 0.  1.
</event>
<event>
 8    1  0.6443238E-009  0.1309099E+03  0.7561462E-02  0.1226112E+00
          2   -1    0    0  501    0  0.00000000000E+00  0.00000000000E+00  0.37134776148E+03  0.37134776148E+03  0.00000000000E+00 0. -1.
         -2   -1    0    0    0  501 -0.00000000000E+00 -0.00000000000E+00 -0.54298620295E+02  0.54298620295E+02  0.00000000000E+00 0.  1.
         25    2    1    2    0    0  0.34878066029E+02 -0.83470818201E+02  0.20989829585E+03  0.26055435682E+03  0.12508965295E+03 0.  0.
         23    2    1    2    0    0 -0.34878066029E+02  0.83470818201E+02  0.10715084533E+03  0.16509202496E+03  0.87121846100E+02 0.  0.
          5    1    3    3  502    0 -0.36498097359E+02  0.79949698381E+01  0.41283272075E+02  0.55837367477E+02  0.41800000000E+01 0.  1.
         -5    1    3    3    0  502  0.71376163388E+02 -0.91465788039E+02  0.16861502378E+03  0.20471698934E+03  0.41800000000E+01 0.  1.
        -11    1    4    4    0    0 -0.44327586684E+02  0.29291499933E+02  0.10901715804E+02  0.54238126047E+02  0.00000000000E+00 0.  1.
         11    1    4    4    0    0  0.94495206553E+01  0.54179318268E+02  0.96249129529E+02  0.11085389891E+03  0.00000000000E+00 0. -1.
</event>
<event>
 8    1  0.6443238E-009  0.1084034E+03  0.7561462E-02  0.1263555E+00
          1   -1    0    0  501    0  0.00000000000E+00  0.00000000000E+00  0.35099313369E+03  0.35099313369E+03  0.00000000000E+00 0. -1.
         -1   -1    0    0    0  501 -0.00000000000E+00 -0.00000000000E+00 -0.55458674863E+02  0.55458674863E+02  0.00000000000E+00 0.  1.
         25    2    1    2    0    0 -0.40027667945E+02 -0.40297358120E+02  0.25580757627E+03  0.29036522861E+03  0.12509339965E+03 0.  0.
         23    2    1    2    0    0  0.40027667945E+02  0.40297358120E+02  0.39726882556E+02  0.11608657994E+03  0.93122379549E+02 0.  0.
          5    1    3    3  502    0  0.11735563107E+02  0.22952614756E+02  0.50608205946E+01  0.26601320844E+02  0.41800000000E+01 0. -1.
         -5    1    3    3    0  502 -0.51763231052E+02 -0.63249972876E+02  0.25074675568E+03  0.26376390777E+03  0.41800000000E+01 0. -1.
        -11    1    4    4    0    0  0.38341001969E+02 -0.23541982442E+02  0.20095976851E+02  0.49275812067E+02  0.00000000000E+00 0.  1.
         11    1    4    4    0    0  0.16866659762E+01  0.63839340562E+02  0.19630905705E+02  0.66810767877E+02  0.00000000000E+00 0. -1.
</event>
<event>
 8    1  0.6443238E-009  0.7924283E+02  0.7561462E-02  0.1331214E+00
         -1   -1    0    0    0  501 -0.00000000000E+00  0.00000000000E+00  0.54722110889E+02  0.54722110889E+02  0.00000000000E+00 0.  1.
          1   -1    0    0  501    0  0.00000000000E+00 -0.00000000000E+00 -0.22921646885E+03  0.22921646885E+03  0.00000000000E+00 0. -1.
         25    2    1    2    0    0 -0.28984597253E+02  0.14232316172E+01 -0.10978860238E+03  0.16894669048E+03  0.12508922634E+03 0.  0.
         23    2    1    2    0    0  0.28984597253E+02 -0.14232316172E+01 -0.64705755576E+02  0.11499188925E+03  0.90521640084E+02 0.  0.
          5    1    3    3  502    0 -0.53654374338E+02 -0.10827164939E+02 -0.12548696691E+03  0.13696886745E+03  0.41800000000E+01 0.  1.
         -5    1    3    3    0  502  0.24669777084E+02  0.12250396556E+02  0.15698364526E+02  0.31977823034E+02  0.41800000000E+01 0.  1.
        -11    1    4    4    0    0 -0.22104132634E+02  0.85098052014E+01 -0.57832175135E+02  0.62494559322E+02  0.00000000000E+00 0.  1.
         11    1    4    4    0    0  0.51088729887E+02 -0.99330368186E+01 -0.68735804415E+01  0.52497329932E+02  0.00000000000E+00 0. -1.
</event>
<event>
 8    1  0.6443238E-009  0.1253989E+03  0.7561462E-02  0.1234447E+00
          2   -1    0    0  501    0  0.00000000000E+00  0.00000000000E+00  0.10450814681E+03  0.10450814681E+03  0.00000000000E+00 0. -1.
         -2   -1    0    0    0  501 -0.00000000000E+00 -0.00000000000E+00 -0.20570944574E+03  0.20570944574E+03  0.00000000000E+00 0.  1.
         25    2    1    2    0    0  0.31694990119E+02 -0.89125910528E+02 -0.65020744492E+02  0.16978256410E+03  0.12510164480E+03 0.  0.
         23    2    1    2    0    0 -0.31694990119E+02  0.89125910528E+02 -0.36180554433E+02  0.14043502844E+03  0.97288048439E+02 0.  0.
          5    1    3    3  502    0  0.30226668585E+02 -0.10968495463E+03 -0.14138077872E+02  0.11472488140E+03  0.41800000000E+01 0. -1.
         -5    1    3    3    0  502  0.14683215341E+01  0.20559044101E+02 -0.50882666620E+02  0.55057682705E+02  0.41800000000E+01 0. -1.
        -11    1    4    4    0    0 -0.60415674307E+01  0.90044168981E+02  0.66605174208E+01  0.90492073668E+02  0.00000000000E+00 0. -1.
         11    1    4    4    0    0 -0.25653422689E+02 -0.91825845261E+00 -0.42841071854E+02  0.49942954776E+02  0.00000000000E+00 0.  1.
</event>
<event>
 8    1  0.6443238E-009  0.3807388E+03  0.7561462E-02  0.1050661E+00
          2   -1    0    0  501    0  0.00000000000E+00  0.00000000000E+00  0.56018257983E+03  0.56018257983E+03  0.00000000000E+00 0. -1.
         -2   -1    0    0    0  501 -0.00000000000E+00 -0.00000000000E+00 -0.30029041208E+03  0.30029041208E+03  0.00000000000E+00 0.  1.
         25    2    1    2    0    0 -0.21118895093E+03 -0.30649099320E+03 -0.82615026077E+01  0.39275412476E+03  0.12510015262E+03 0.  0.
         23    2    1    2    0    0  0.21118895093E+03  0.30649099320E+03  0.26815367036E+03  0.46771886715E+03  0.91197839099E+02 0.  0.
          5    1    3    3  502    0 -0.15770505769E+01 -0.81798663483E+02  0.19438699725E+02  0.84195272333E+02  0.41800000000E+01 0.  1.
         -5    1    3    3    0  502 -0.20961190035E+03 -0.22469232972E+03 -0.27700202333E+02  0.30855885243E+03  0.41800000000E+01 0.  1.
        -11    1    4    4    0    0  0.24783136300E+02  0.39045885404E+02  0.10303900883E+01  0.46258477229E+02  0.00000000000E+00 0. -1.
         11    1    4    4    0    0  0.18640581463E+03  0.26744510779E+03  0.26712328027E+03  0.42146038992E+03  0.00000000000E+00 0.  1.
</event>
<event>
 8    1  0.6443238E-009  0.9345891E+02  0.7561462E-02  0.1294685E+00
         -2   -1    0    0    0  501 -0.00000000000E+00  0.00000000000E+00  0.74315784447E+02  0.74315784447E+02  0.00000000000E+00 0.  1.
          2   -1    0    0  501    0  0.00000000000E+00 -0.00000000000E+00 -0.19346772202E+03  0.19346772202E+03  0.00000000000E+00 0. -1.
         25    2    1    2    0    0  0.20403973274E+02 -0.37239314530E+02 -0.10338955899E+03  0.16774695493E+03  0.12508617553E+03 0.  0.
         23    2    1    2    0    0 -0.20403973274E+02  0.37239314530E+02 -0.15762378586E+02  0.10003655154E+03  0.89195125391E+02 0.  0.
          5    1    3    3  502    0  0.28936117198E+02  0.23253587743E+02  0.10182035367E+02  0.38719174392E+02  0.41800000000E+01 0.  1.
         -5    1    3    3    0  502 -0.85321439243E+01 -0.60492902273E+02 -0.11357159436E+03  0.12902778054E+03  0.41800000000E+01 0.  1.
        -11    1    4    4    0    0 -0.50230921842E+02  0.24625029248E+02  0.12192153631E+02  0.57255446769E+02  0.00000000000E+00 0.  1.
         11    1    4    4    0    0  0.29826948568E+02  0.12614285282E+02 -0.27954532217E+02  0.42781104772E+02  0.00000000000E+00 0. -1.
</event>
<event>
 8    1  0.6443238E-009  0.9889466E+02  0.7561462E-02  0.1282638E+00
         -2   -1    0    0    0  501 -0.00000000000E+00  0.00000000000E+00  0.79549080911E+03  0.79549080911E+03  0.00000000000E+00 0.  1.
          2   -1    0    0  501    0  0.00000000000E+00 -0.00000000000E+00 -0.15471112636E+02  0.15471112636E+02  0.00000000000E+00 0. -1.
         25    2    1    2    0    0  0.14875448105E+02  0.68454807097E+01  0.43300734831E+03  0.45100986229E+03  0.12508554125E+03 0.  0.
         23    2    1    2    0    0 -0.14875448105E+02 -0.68454807097E+01  0.34701234817E+03  0.35995205946E+03  0.94232562134E+02 0.  0.
          5    1    3    3  502    0  0.20761451620E+02 -0.45151251199E+02  0.34461042958E+03  0.34820036464E+03  0.41800000000E+01 0.  1.
         -5    1    3    3    0  502 -0.58860035157E+01  0.51996731908E+02  0.88396918723E+02  0.10280949765E+03  0.41800000000E+01 0.  1.
        -11    1    4    4    0    0 -0.45657119382E+02  0.24225130062E+02  0.17567428469E+03  0.18311986178E+03  0.00000000000E+00 0. -1.
         11    1    4    4    0    0  0.30781671277E+02 -0.31070610771E+02  0.17133806348E+03  0.17683219768E+03  0.00000000000E+00 0.  1.
</event>
<event>
 8    1  0.6443238E-009  0.1401705E+03  0.7561462E-02  0.1213100E+00
          1   -1    0    0  501    0  0.00000000000E+00  0.00000000000E+00  0.17974775204E+03  0.17974775204E+03  0.00000000000E+00 0. -1.
         -1   -1    0    0    0  501 -0.00000000000E+00 -0.00000000000E+00 -0.13569047406E+03  0.13569047406E+03  0.00000000000E+00 0.  1.
         25    2    1    2    0    0  0.53996546518E+02  0.96927002699E+02  0.10776380893E+02  0.16755696278E+03  0.12509490198E+03 0.  0.
         23    2    1    2    0    0 -0.53996546518E+02 -0.96927002699E+02  0.33280897092E+02  0.14788126332E+03  0.91928118881E+02 0.  0.
          5    1    3    3  502    0  0.17892291775E+02 -0.20219048517E+02 -0.27801220912E+02  0.38978510902E+02  0.41800000000E+01 0.  1.
         -5    1    3    3    0  502  0.36104254744E+02  0.11714605122E+03  0.38577601806E+02  0.12857845188E+03  0.41800000000E+01 0.  1.
        -11    1    4    4    0    0 -0.70346960292E+02 -0.83691921401E+02  0.50752860888E+02  0.12053582629E+03  0.00000000000E+00 0. -1.
         11    1    4    4    0    0  0.16350413774E+02 -0.13235081298E+02 -0.17471963797E+02  0.27345437032E+02  0.00000000000E+00 0.  1.
</event>
<event>
 8    1  0.6443238E-009  0.1212457E+03  0.7561462E-02  0.1241056E+00
          2   -1    0    0  501    0  0.00000000000E+00  0.00000000000E+00  0.29784070589E+03  0.29784070589E+03  0.00000000000E+00 0.  1.
         -2   -1    0    0    0  501 -0.00000000000E+00 -0.00000000000E+00 -0.68758219940E+02  0.68758219940E+02  0.00000000000E+00 0. -1.
         25    2    1    2    0    0 -0.72748275926E+02 -0.62422466076E+01  0.49597663905E+02  0.15309517893E+03  0.12508768226E+03 0.  0.
         23    2    1    2    0    0  0.72748275926E+02  0.62422466076E+01  0.17948482205E+03  0.21350374690E+03  0.89653618461E+02 0.  0.
          5    1    3    3  502    0 -0.88163706212E+02 -0.37470066895E+02  0.45397787409E+01  0.95994411280E+02  0.41800000000E+01 0.  1.
         -5    1    3    3    0  502  0.15415430285E+02  0.31227820287E+02  0.45057885164E+02  0.57100767650E+02  0.41800000000E+01 0.  1.
        -11    1    4    4    0    0  0.91316686855E+02  0.11968445225E+02  0.16604935653E+03  0.18987988251E+03  0.00000000000E+00 0.  1.
         11    1    4    4    0    0 -0.18568410929E+02 -0.57261986170E+01  0.13435465518E+02  0.23623864390E+02  0.00000000000E+00 0. -1.
</event>
<event>
 8    1  0.6443238E-009  0.1186383E+03  0.7561462E-02  0.1245360E+00
         -1   -1    0    0    0  501 -0.00000000000E+00  0.00000000000E+00  0.17014972783E+03  0.17014972783E+03  0.00000000000E+00 0.  1.
          1   -1    0    0  501    0  0.00000000000E+00 -0.00000000000E+00 -0.11913291164E+03  0.11913291164E+03  0.00000000000E+00 0. -1.
         25    2    1    2    0    0 -0.69232313701E+02 -0.98436889563E+01 -0.33040687569E+02  0.14706935975E+03  0.12509075933E+03 0.  0.
         23    2    1    2    0    0  0.69232313701E+02  0.98436889563E+01  0.84057503766E+02  0.14221327972E+03  0.90933720461E+02 0.  0.
          5    1    3    3  502    0 -0.10051616302E+03 -0.29289248866E+02 -0.15022980429E+02  0.10585141222E+03  0.41800000000E+01 0.  1.
         -5    1    3    3    0  502  0.31283849319E+02  0.19445559910E+02 -0.18017707140E+02  0.41217947535E+02  0.41800000000E+01 0.  1.
        -11    1    4    4    0    0  0.12023894608E+02 -0.25491037438E+02  0.67229803194E+02  0.72898652036E+02  0.00000000000E+00 0.  1.
         11    1    4    4    0    0  0.57208419093E+02  0.35334726394E+02  0.16827700572E+02  0.69314627684E+02  0.00000000000E+00 0. -1.
</event>
<event>
 8    1  0.6443238E-009  0.1212354E+03  0.7561462E-02  0.1241073E+00
         -2   -1    0    0    0  501 -0.00000000000E+00  0.00000000000E+00  0.12395807628E+04  0.12395807628E+04  0.00000000000E+00 0. -1.
          2   -1    0    0  501    0  0.00000000000E+00 -0.00000000000E+00 -0.15818917758E+02  0.15818917758E+02  0.00000000000E+00 0.  1.
         25    2    1    2    0    0  0.30130166264E+02  0.60723149107E+02  0.92897722815E+03  0.93980963434E+03  0.12509328765E+03 0.  0.
         23    2    1    2    0    0 -0.30130166264E+02 -0.60723149107E+02  0.29478461690E+03  0.31559004623E+03  0.90022103740E+02 0.  0.
          5    1    3    3  502    0  0.31074028706E+02  0.98870644464E+02  0.65719015996E+03  0.66532501707E+03  0.41800000000E+01 0.  1.
         -5    1    3    3    0  502 -0.94386244152E+00 -0.38147495356E+02  0.27178706819E+03  0.27448461727E+03  0.41800000000E+01 0.  1.
        -11    1    4    4    0    0  0.91520016536E+01 -0.60387116462E+02  0.10236460643E+03  0.11920098833E+03  0.00000000000E+00 0.  1.
         11    1    4    4    0    0 -0.39282167918E+02 -0.33603264492E+00  0.19242001047E+03  0.19638905790E+03  0.00000000000E+00 0. -1.
</event>
<event>
 7    1  0.6443238E-009  0.1000491E+03  0.7561462E-02  0.1280193E+00
          1   -1    0    0  501    0  0.00000000000E+00  0.00000000000E+00  0.19650835742E+03  0.19650835742E+03  0.00000000000E+00 0. -1.
         -1   -1    0    0    0  501 -0.00000000000E+00 -0.00000000000E+00 -0.78506305020E+02  0.78506305020E+02  0.00000000000E+00 0.  1.
         23    2    1    2    0    0 -0.15467244503E+02 -0.46655357638E+01  0.11854481663E+03  0.14871598256E+03  0.88332140483E+02 0.  0.
          5    1    1    2  502    0  0.18179482222E+02 -0.59099275657E+02  0.45298602114E+01  0.62138635249E+02  0.41800000000E+01 0. -1.
         -5    1    1    2    0  502 -0.27122377191E+01  0.63764811421E+02 -0.50726244373E+01  0.64160044636E+02  0.41800000000E+01 0. -1.
        -11    1    3    3    0    0 -0.26111069926E+02 -0.34052198948E+02  0.10719395506E+03  0.11546377886E+03  0.00000000000E+00 0. -1.
         11    1    3    3    0    0  0.10643825423E+02  0.29386663185E+02  0.11350861568E+02  0.33252203703E+02  0.00000000000E+00 0.  1.
</event>
<event>
 8    1  0.6443238E-009  0.5855722E+02  0.7561462E-02  0.1403988E+00
         -4   -1    0    0    0  501 -0.00000000000E+00  0.00000000000E+00  0.47371699070E+03  0.47371699070E+03  0.00000000000E+00 0.  1.
          4   -1    0    0  501    0  0.00000000000E+00 -0.00000000000E+00 -0.28939502221E+02  0.28939502221E+02  0.00000000000E+00 0. -1.
         25    2    1    2    0    0 -0.19880401661E+02 -0.39712432303E+02  0.31851166042E+03  0.34506468344E+03  0.12509056831E+03 0.  0.
         23    2    1    2    0    0  0.19880401661E+02  0.39712432303E+02  0.12626582805E+03  0.15759180948E+03  0.83185403959E+02 0.  0.
          5    1    3    3  502    0 -0.25279735933E+02 -0.41452811529E+02  0.32891166773E+03  0.33250226797E+03  0.41800000000E+01 0.  1.
         -5    1    3    3    0  502  0.53993342721E+01  0.17403792264E+01 -0.10400007310E+02  0.12562415471E+02  0.41800000000E+01 0.  1.
        -11    1    4    4    0    0  0.14902345041E+02  0.48772071984E+02  0.13483978690E+03  0.14416158651E+03  0.00000000000E+00 0.  1.
         11    1    4    4    0    0  0.49780566205E+01 -0.90596396808E+01 -0.85739588450E+01  0.13430222974E+02  0.00000000000E+00 0. -1.
</event>
<event>
 8    1  0.6443238E-009  0.1722169E+03  0.7561462E-02  0.1175555E+00
         -2   -1    0    0    0  501 -0.00000000000E+00  0.00000000000E+00  0.23873893874E+02  0.23873893874E+02  0.00000000000E+00 0.  1.
          2   -1    0    0  501    0  0.00000000000E+00 -0.00000000000E+00 -0.14894994819E+04  0.14894994819E+04  0.00000000000E+00 0. -1.
         25    2    1    2    0    0  0.14429024635E+02  0.14270642125E+03 -0.99414667961E+03  0.10122000844E+04  0.12509224912E+03 0.  0.
         23    2    1    2    0    0 -0.14429024635E+02 -0.14270642125E+03 -0.47147890837E+03  0.50117329137E+03  0.91153647876E+02 0.  0.
          5    1    3    3  502    0  0.66771357657E+02  0.83550405454E+02 -0.46402618087E+03  0.47621093371E+03  0.41800000000E+01 0.  1.
         -5    1    3    3    0  502 -0.52342333022E+02  0.59156015794E+02 -0.53012049874E+03  0.53598915065E+03  0.41800000000E+01 0.  1.
        -11    1    4    4    0    0  0.52676479103E+01 -0.13793213658E+03 -0.45363430153E+03  0.47416990831E+03  0.00000000000E+00 0. -1.
         11    1    4    4    0    0 -0.19696672545E+02 -0.47742846663E+01 -0.17844606843E+02  0.27003383062E+02  0.00000000000E+00 0.  1.
</event>
<event>
 8    1  0.6443238E-009  0.1207280E+03  0.7561462E-02  0.1241901E+00
          3   -1    0    0  501    0  0.00000000000E+00  0.00000000000E+00  0.70569980239E+03  0.70569980239E+03  0.00000000000E+00 0. -1.
         -3   -1    0    0    0  501 -0.00000000000E+00 -0.00000000000E+00 -0.27179202998E+02  0.27179202998E+02  0.00000000000E+00 0.  1.
         25    2    1    2    0    0 -0.84522972345E+02 -0.66773601703E+00  0.41684673087E+03  0.44334275384E+03  0.12508805545E+03 0.  0.
         23    2    1    2    0    0  0.84522972345E+02  0.66773601703E+00  0.26167386852E+03  0.28953625155E+03  0.90628079373E+02 0.  0.
          5    1    3    3  502    0 -0.11545049502E+03 -0.81006219207E+01  0.35871361214E+03  0.37694477688E+03  0.41800000000E+01 0.  1.
         -5    1    3    3    0  502  0.30927522674E+02  0.74328859037E+01  0.58133118727E+02  0.66397976961E+02  0.41800000000E+01 0.  1.
        -11    1    4    4    0    0  0.56904173693E+02 -0.18624916382E+02  0.24449443885E+03  0.25171909566E+03  0.00000000000E+00 0. -1.
         11    1    4    4    0    0  0.27618798652E+02  0.19292652399E+02  0.17179429670E+02  0.37817155887E+02  0.00000000000E+00 0.  1.
</event>
<event>
 8    1  0.6443238E-009  0.1049101E+03  0.7561462E-02  0.1270297E+00
         -2   -1    0    0    0  501 -0.00000000000E+00  0.00000000000E+00  0.36616187639E+02  0.36616187639E+02  0.00000000000E+00 0.  1.
          2   -1    0    0  501    0  0.00000000000E+00 -0.00000000000E+00 -0.51651879249E+03  0.51651879249E+03  0.00000000000E+00 0. -1.
         25    2    1    2    0    0 -0.38032956770E+01 -0.39260617411E+02 -0.41232531265E+03  0.43268416306E+03  0.12509020895E+03 0.  0.
         23    2    1    2    0    0  0.38032956770E+01  0.39260617411E+02 -0.67577292198E+02  0.12045081706E+03  0.91574274624E+02 0.  0.
          5    1    3    3  502    0 -0.17953619373E+02  0.32240094198E+02 -0.27180163191E+03  0.27432709606E+03  0.41800000000E+01 0. -1.
         -5    1    3    3    0  502  0.14150323696E+02 -0.71500711609E+02 -0.14052368074E+03  0.15835706700E+03  0.41800000000E+01 0. -1.
        -11    1    4    4    0    0  0.27301053888E+02  0.61521368029E+02 -0.47079967059E+02  0.82138599731E+02  0.00000000000E+00 0. -1.
         11    1    4    4    0    0 -0.23497758211E+02 -0.22260750618E+02 -0.20497325139E+02  0.38312217332E+02  0.00000000000E+00 0.  1.
</event>
<event>
 8    1  0.6443238E-009  0.1799643E+03  0.7561462E-02  0.1167838E+00
          2   -1    0    0  501    0  0.00000000000E+00  0.00000000000E+00  0.19714476408E+04  0.19714476408E+04  0.00000000000E+00 0. -1.
         -2   -1    0    0    0  501 -0.00000000000E+00 -0.00000000000E+00 -0.22444096299E+02  0.22444096299E+02  0.00000000000E+00 0.  1.
         25    2    1    2    0    0  0.12595685999E+03  0.98266074616E+02  0.13929014708E+04  0.14076021038E+04  0.12509125957E+03 0.  0.
         23    2    1    2    0    0 -0.12595685999E+03 -0.98266074616E+02  0.55610207370E+03  0.58628963331E+03  0.94681918860E+02 0.  0.
          5    1    3    3  502    0  0.11542448175E+03  0.50457146917E+02  0.12530053229E+04  0.12593286094E+04  0.41800000000E+01 0. -1.
         -5    1    3    3    0  502  0.10532378238E+02  0.47808927699E+02  0.13989614783E+03  0.14827349439E+03  0.41800000000E+01 0. -1.
        -11    1    4    4    0    0 -0.97130351428E+02 -0.17103257900E+02  0.32620189078E+03  0.34078512313E+03  0.00000000000E+00 0.  1.
         11    1    4    4    0    0 -0.28826508561E+02 -0.81162816716E+02  0.22990018291E+03  0.24550451018E+03  0.00000000000E+00 0. -1.
</event>
<event>
 8    1  0.6443238E-009  0.1158959E+03  0.7561462E-02  0.1250025E+00
          2   -1    0    0  501    0  0.00000000000E+00  0.00000000000E+00  0.93596127783E+03  0.93596127783E+03  0.00000000000E+00 0. -1.
         -2   -1    0    0    0  501 -0.00000000000E+00 -0.00000000000E+00 -0.23649712547E+02  0.23649712547E+02  0.00000000000E+00 0.  1.
         25    2    1    2    0    0 -0.88404109758E+01 -0.89953343955E+02  0.34697137931E+03  0.37973865158E+03  0.12507017424E+03 0.  0.
         23    2    1    2    0    0  0.88404109758E+01  0.89953343955E+02  0.56534018598E+03  0.57987233881E+03  0.92046979727E+02 0.  0.
          5    1    3    3  502    0  0.62745553231E+01 -0.86588552515E+02  0.35227996218E+03  0.36284375650E+03  0.41800000000E+01 0.  1.
         -5    1    3    3    0  502 -0.15114966299E+02 -0.33647914398E+01 -0.53085828733E+01  0.16894895080E+02  0.41800000000E+01 0.  1.
        -11    1    4    4    0    0  0.59767362938E+01  0.10920726141E+03  0.49004809122E+03  0.50210464948E+03  0.00000000000E+00 0.  1.
         11    1    4    4    0    0  0.28636746820E+01 -0.19253917456E+02  0.75292094758E+02  0.77767689326E+02  0.00000000000E+00 0. -1.
</event>
<event>
 8    1  0.6443238E-009  0.9031365E+02  0.7561462E-02  0.1302094E+00
         -3   -1    0    0    0  501 -0.00000000000E+00  0.00000000000E+00  0.44637472433E+02  0.44637472433E+02  0.00000000000E+00 0.  1.
          3   -1    0    0  501    0  0.00000000000E+00 -0.00000000000E+00 -0.31252761882E+03  0.31252761882E+03  0.00000000000E+00 0. -1.
         25    2    1    2    0    0 -0.41688500697E+02 -0.18805176141E+02 -0.13962649907E+03  0.19294469245E+03  0.12506210202E+03 0.  0.
         23    2    1    2    0    0  0.41688500697E+02  0.18805176141E+02 -0.12826364732E+03  0.16422039881E+03  0.91788944976E+02 0.  0.
          5    1    3    3  502    0 -0.15475235412E+02 -0.40870333721E+02  0.50651543466E+01  0.44192706164E+02  0.41800000000E+01 0.  1.
         -5    1    3    3    0  502 -0.26213265285E+02  0.22065157580E+02 -0.14469165341E+03  0.14875198628E+03  0.41800000000E+01 0.  1.
        -11    1    4    4    0    0 -0.26947773364E+02  0.20004403404E+02 -0.35956082654E+02  0.49185348679E+02  0.00000000000E+00 0.  1.
         11    1    4    4    0    0  0.68636274061E+02 -0.11992272630E+01 -0.92307564669E+02  0.11503505013E+03  0.00000000000E+00 0. -1.
</event>
<event>
 8    1  0.6443238E-009  0.1293350E+03  0.7561462E-02  0.1228446E+00
          1   -1    0    0  501    0  0.00000000000E+00  0.00000000000E+00  0.75796388917E+03  0.75796388917E+03  0.00000000000E+00 0. -1.
         -1   -1    0    0    0  501 -0.00000000000E+00 -0.00000000000E+00 -0.71969695946E+02  0.71969695946E+02  0.00000000000E+00 0.  1.
         25    2    1    2    0    0 -0.75789018309E+02 -0.12920725089E+02  0.69542889035E+03  0.71075902348E+03  0.12508448143E+03 0.  0.
         23    2    1    2    0    0  0.75789018309E+02  0.12920725089E+02 -0.94346971260E+01  0.11917456164E+03  0.90568439304E+02 0.  0.
          5    1    3    3  502    0  0.20675758049E+02 -0.35548792979E+02  0.12186462915E+03  0.12868435760E+03  0.41800000000E+01 0. -1.
         -5    1    3    3    0  502 -0.96464776359E+02  0.22628067889E+02  0.57356426120E+03  0.58207466588E+03  0.41800000000E+01 0. -1.
        -11    1    4    4    0    0  0.75742802714E+02  0.43658731571E+02 -0.15368018209E+01  0.87438085325E+02  0.00000000000E+00 0. -1.
         11    1    4    4    0    0  0.46215595216E-01 -0.30738006482E+02 -0.78978953051E+01  0.31736476311E+02  0.00000000000E+00 0.  1.
</event>
<event>
 7    1  0.6443238E-009  0.1177368E+03  0.7561462E-02  0.1246878E+00
          2   -1    0    0  501    0  0.00000000000E+00  0.00000000000E+00  0.34079597430E+02  0.34079597430E+02  0.00000000000E+00 0. -1.
         -2   -1    0    0    0  501 -0.00000000000E+00 -0.00000000000E+00 -0.45758658642E+03  0.45758658642E+03  0.00000000000E+00 0.  1.
         23    2    1    2    0    0 -0.47092039375E+02 -0.33179822367E+02 -0.22916662847E+03  0.25343496087E+03  0.91615364438E+02 0.  0.
          5    1    1    2  502    0  0.46152635938E+02  0.78171485605E+02 -0.14667814227E+03  0.17254795503E+03  0.41800000000E+01 0. -1.
         -5    1    1    2    0  502  0.93940343715E+00 -0.44991663238E+02 -0.47662218240E+02  0.65683267941E+02  0.41800000000E+01 0. -1.
        -11    1    3    3    0    0 -0.57368526483E+02  0.71245920430E+01 -0.17988991401E+03  0.18895049300E+03  0.00000000000E+00 0.  1.
         11    1    3    3    0    0  0.10276487108E+02 -0.40304414410E+02 -0.49276714460E+02  0.64484467868E+02  0.00000000000E+00 0. -1.
</event>
<event>
 8    1  0.6443238E-009  0.1358021E+03  0.7561462E-02  0.1219092E+00
         -2   -1    0    0    0  501 -0.00000000000E+00  0.00000000000E+00  0.17000012245E+02  0.17000012245E+02  0.00000000000E+00 0. -1.
          2   -1    0    0  501    0  0.00000000000E+00 -0.00000000000E+00 -0.11889530573E+04  0.11889530573E+04  0.00000000000E+00 0.  1.
         25    2    1    2    0    0 -0.40583191722E+02  0.82229300263E+02 -0.65729714792E+03  0.67534804836E+03  0.12508713956E+03 0.  0.
         23    2    1    2    0    0  0.40583191722E+02 -0.82229300263E+02 -0.51465589709E+03  0.53060502115E+03  0.90897430002E+02 0.  0.
          5    1    3    3  502    0 -0.11068944487E+02 -0.31522829593E+02 -0.92458081178E+02  0.98398066509E+02  0.41800000000E+01 0.  1.
         -5    1    3    3    0  502 -0.29514247236E+02  0.11375212986E+03 -0.56483906674E+03  0.57694998185E+03  0.41800000000E+01 0.  1.
        -11    1    4    4    0    0  0.57436366168E+02 -0.28673159444E+02 -0.17633241365E+03  0.18765448658E+03  0.00000000000E+00 0. -1.
         11    1    4    4    0    0 -0.16853174446E+02 -0.53556140818E+02 -0.33832348344E+03  0.34295053456E+03  0.00000000000E+00 0.  1.
</event>
<event>
 8    1  0.6443238E-009  0.1578238E+03  0.7561462E-02  0.1191176E+00
         -2   -1    0    0    0  501 -0.00000000000E+00  0.00000000000E+00  0.32382387400E+03  0.32382387400E+03  0.00000000000E+00 0.  1.
          2   -1    0    0  501    0  0.00000000000E+00 -0.00000000000E+00 -0.10372081287E+03  0.10372081287E+03  0.00000000000E+00 0. -1.
         25    2    1    2    0    0 -0.94663540084E+02  0.70696895362E+02  0.10096416613E+02  0.17236282201E+03  0.12509103864E+03 0.  0.
         23    2    1    2    0    0  0.94663540084E+02 -0.70696895362E+02  0.21000664451E+03  0.25518186486E+03  0.83998551039E+02 0.  0.
          5    1    3    3  502    0 -0.12471402360E+03  0.66321404188E+02  0.10535523378E+02  0.14170598431E+03  0.41800000000E+01 0. -1.
         -5    1    3    3    0  502  0.30050483521E+02  0.43754911737E+01 -0.43910676500E+00  0.30656837697E+02  0.41800000000E+01 0. -1.
        -11    1    4    4    0    0  0.26055888534E+02 -0.70405152406E+02  0.12657945709E+03  0.14716709472E+03  0.00000000000E+00 0. -1.
         11    1    4    4    0    0  0.68607651550E+02 -0.29174295572E+00  0.83427187425E+02  0.10801477013E+03  0.00000000000E+00 0.  1.
</event>
<event>
 8    1  0.6443238E-009  0.9991924E+02  0.7561462E-02  0.1280466E+00
          1   -1    0    0  501    0  0.00000000000E+00  0.00000000000E+00  0.40761866822E+02  0.40761866822E+02  0.00000000000E+00 0. -1.
         -1   -1    0    0    0  501 -0.00000000000E+00 -0.00000000000E+00 -0.47924067988E+03  0.47924067988E+03  0.00000000000E+00 0.  1.
         25    2    1    2    0    0 -0.60023027127E+02 -0.52206965317E+02 -0.16721779443E+03  0.22346169536E+03  0.12508000441E+03 0.  0.
         23    2    1    2    0    0  0.60023027127E+02  0.52206965317E+02 -0.27126101862E+03  0.29654085134E+03  0.89585742599E+02 0.  0.
          5    1    3    3  502    0 -0.49507846961E+02 -0.58883730463E+02 -0.25526806143E+02  0.81162866237E+02  0.41800000000E+01 0. -1.
         -5    1    3    3    0  502 -0.10515180166E+02  0.66767651460E+01 -0.14169098829E+03  0.14229882912E+03  0.41800000000E+01 0. -1.
        -11    1    4    4    0    0  0.23341437119E+02  0.66354803220E+02 -0.22547073405E+03  0.23618813372E+03  0.00000000000E+00 0.  1.
         11    1    4    4    0    0  0.36681590008E+02 -0.14147837904E+02 -0.45790284565E+02  0.60352717614E+02  0.00000000000E+00 0. -1.
</event>
<event>
 8    1  0.6443238E-009  0.9951432E+02  0.7561462E-02  0.1281321E+00
          2   -1    0    0  501    0  0.00000000000E+00  0.00000000000E+00  0.43221208683E+03  0.43221208683E+03  0.00000000000E+00 0. -1.
         -2   -1    0    0    0  501 -0.00000000000E+00 -0.00000000000E+00 -0.35603667583E+02  0.35603667583E+02  0.00000000000E+00 0.  1.
         25    2    1    2    0    0 -0.33467987770E+02 -0.29080825453E+02  0.14662374495E+03  0.19776677238E+03  0.12508946022E+03 0.  0.
         23    2    1    2    0    0  0.33467987770E+02  0.29080825453E+02  0.24998467430E+03  0.27004898204E+03  0.92023446471E+02 0.  0.
          5    1    3    3  502    0 -0.64107337733E+02 -0.43348991152E+02  0.14409782622E+03  0.16361705812E+03  0.41800000000E+01 0.  1.
         -5    1    3    3    0  502  0.30639349963E+02  0.14268165699E+02  0.25259187250E+01  0.34149714259E+02  0.41800000000E+01 0.  1.
        -11    1    4    4    0    0  0.52170277100E+02 -0.85127016462E+00  0.21145470307E+03  0.21779704755E+03  0.00000000000E+00 0.  1.
         11    1    4    4    0    0 -0.18702289329E+02  0.29932095618E+02  0.38529971233E+02  0.52251934485E+02  0.00000000000E+00 0. -1.
</event>
<event>
 8    1  0.6443238E-009  0.2088585E+03  0.7561462E-02  0.1142473E+00
          2   -1    0    0  501    0  0.00000000000E+00  0.00000000000E+00  0.71701579022E+03  0.71701579022E+03  0.00000000000E+00 0. -1.
         -2   -1    0    0    0  501 -0.00000000000E+00 -0.00000000000E+00 -0.15824302066E+03  0.15824302066E+03  0.00000000000E+00 0.  1.
         25    2    1    2    0    0 -0.16508359061E+03  0.99268012603E+02 -0.45875612060E+02  0.23422070347E+03  0.12509210980E+03 0.  0.
         23    2    1    2    0    0  0.16508359061E+03 -0.99268012603E+02  0.60464838162E+03  0.64103810741E+03  0.90683292514E+02 0.  0.
          5    1    3    3  502    0  0.84010363752E+01 -0.64145769056E+01 -0.28040607055E+02  0.30256772020E+02  0.41800000000E+01 0. -1.
         -5    1    3    3    0  502 -0.17348462699E+03  0.10568258951E+03 -0.17835005004E+02  0.20396393144E+03  0.41800000000E+01 0. -1.
        -11    1    4    4    0    0  0.13363529237E+03 -0.46039944353E+02  0.49897820760E+03  0.51861095197E+03  0.00000000000E+00 0.  1.
         11    1    4    4    0    0  0.31448298248E+02 -0.53228068250E+02  0.10567017402E+03  0.12242715544E+03  0.00000000000E+00 0. -1.
</event>
<event>
 8    1  0.6443238E-009  0.1309926E+03  0.7561462E-02  0.1225990E+00
         -1   -1    0    0    0  501 -0.00000000000E+00  0.00000000000E+00  0.86635799259E+02  0.86635799259E+02  0.00000000000E+00 0.  1.
          1   -1    0    0  501    0  0.00000000000E+00 -0.00000000000E+00 -0.22762738084E+03  0.22762738084E+03  0.00000000000E+00 0. -1.
         25    2    1    2    0    0  0.68023495975E+02  0.55346406376E+02 -0.62267570813E+02  0.16497566323E+03  0.12509715576E+03 0.  0.
         23    2    1    2    0    0 -0.68023495975E+02 -0.55346406376E+02 -0.78724010767E+02  0.14928751687E+03  0.91645360597E+02 0.  0.
          5    1    3    3  502    0  0.78006154513E+02 -0.16601080075E+02 -0.36278758414E+02  0.87716456344E+02  0.41800000000E+01 0.  1.
         -5    1    3    3    0  502 -0.99826585380E+01  0.71947486451E+02 -0.25988812399E+02  0.77259206882E+02  0.41800000000E+01 0.  1.
        -11    1    4    4    0    0 -0.17576464184E+02 -0.56227800587E+02 -0.38976536681E+01  0.59039726931E+02  0.00000000000E+00 0.  1.
         11    1    4    4    0    0 -0.50447031791E+02  0.88139421025E+00 -0.74826357099E+02  0.90247789940E+02  0.00000000000E+00 0. -1.
</event>
<event>
 8    1  0.6443238E-009  0.2156185E+03  0.7561462E-02  0.1137192E+00
          2   -1    0    0  501    0  0.00000000000E+00  0.00000000000E+00  0.64537507818E+03  0.64537507818E+03  0.00000000000E+00 0.  1.
         -2   -1    0    0    0  501 -0.00000000000E+00 -0.00000000000E+00 -0.77685382328E+02  0.77685382328E+02  0.00000000000E+00 0. -1.
         25    2    1    2    0    0  0.19166678023E+03  0.65862523675E+01  0.23491753469E+03  0.32804442243E+03  0.12508941450E+03 0.  0.
         23    2    1    2    0    0 -0.19166678023E+03 -0.65862523675E+01  0.33277216117E+03  0.39501603808E+03  0.92308318851E+02 0.  0.
          5    1    3    3  502    0  0.25250332126E+02  0.48360513289E+02  0.36883324323E+02  0.65986138932E+02  0.41800000000E+01 0. -1.
         -5    1    3    3    0  502  0.16641644810E+03 -0.41774260921E+02  0.19803421036E+03  0.26205828350E+03  0.41800000000E+01 0. -1.
        -11    1    4    4    0    0 -0.96687200796E+02  0.32756980411E+02  0.11237533597E+03  0.15182111414E+03  0.00000000000E+00 0. -1.
         11    1    4    4    0    0 -0.94979579434E+02 -0.39343232779E+02  0.22039682520E+03  0.24319492394E+03  0.00000000000E+00 0.  1.
</event>
<event>
 8    1  0.6443238E-009  0.1630108E+03  0.7561462E-02  0.1185339E+00
         -2   -1    0    0    0  501 -0.00000000000E+00  0.00000000000E+00  0.40304587990E+02  0.40304587990E+02  0.00000000000E+00 0. -1.
          2   -1    0    0  501    0  0.00000000000E+00 -0.00000000000E+00 -0.10703141337E+04  0.10703141337E+04  0.00000000000E+00 0.  1.
         25    2    1    2    0    0 -0.15764282879E+03  0.65664693816E+01 -0.73932037777E+03  0.76624893158E+03  0.12509366161E+03 0.  0.
         23    2    1    2    0    0  0.15764282879E+03 -0.65664693816E+01 -0.29068916793E+03  0.34436979010E+03  0.95895672440E+02 0.  0.
          5    1    3    3  502    0 -0.37093291636E+02 -0.16479109465E+02 -0.45130350030E+03  0.45314434247E+03  0.41800000000E+01 0.  1.
         -5    1    3    3    0  502 -0.12054953715E+03  0.23045578847E+02 -0.28801687747E+03  0.31310458911E+03  0.41800000000E+01 0.  1.
        -11    1    4    4    0    0  0.13431272559E+03 -0.19528638029E+02 -0.15475650220E+03  0.20584181046E+03  0.00000000000E+00 0. -1.
         11    1    4    4    0    0  0.23330103196E+02  0.12962168647E+02 -0.13593266573E+03  0.13852797964E+03  0.00000000000E+00 0.  1.
</event>
<event>
 8    1  0.6443238E-009  0.9723404E+02  0.7561462E-02  0.1286222E+00
         -1   -1    0    0    0  501 -0.00000000000E+00  0.00000000000E+00  0.67632769733E+02  0.67632769733E+02  0.00000000000E+00 0.  1.
          1   -1    0    0  501    0  0.00000000000E+00 -0.00000000000E+00 -0.17824070224E+03  0.17824070224E+03  0.00000000000E+00 0. -1.
         25    2    1    2    0    0 -0.34996712505E+01 -0.67059245094E+00 -0.10468880174E+03  0.16315285404E+03  0.12508561539E+03 0.  0.
         23    2    1    2    0    0  0.34996712505E+01  0.67059245094E+00 -0.59191307622E+01  0.82720617934E+02  0.82431590602E+02 0.  0.
          5    1    3    3  502    0 -0.58979429419E+02  0.83835502016E+01 -0.84090220896E+02  0.10313823083E+03  0.41800000000E+01 0.  1.
         -5    1    3    3    0  502  0.55479758169E+02 -0.90541426525E+01 -0.20598580845E+02  0.60014623205E+02  0.41800000000E+01 0.  1.
        -11    1    4    4    0    0 -0.32676070506E+02 -0.18384645844E+02  0.10064059782E+02  0.38820176272E+02  0.00000000000E+00 0.  1.
         11    1    4    4    0    0  0.36175741756E+02  0.19055238295E+02 -0.15983190544E+02  0.43900441661E+02  0.00000000000E+00 0. -1.
</event>
<event>
 8    1  0.6443238E-009  0.1222395E+03  0.7561462E-02  0.1239448E+00
          1   -1    0    0  501    0  0.00000000000E+00  0.00000000000E+00  0.38168517328E+03  0.38168517328E+03  0.00000000000E+00 0. -1.
         -1   -1    0    0    0  501 -0.00000000000E+00 -0.00000000000E+00 -0.59463413938E+02  0.59463413938E+02  0.00000000000E+00 0.  1.
         25    2    1    2    0    0 -0.91704719609E+02  0.38720681564E+02  0.11291730556E+03  0.19571678568E+03  0.12508275470E+03 0.  0.
         23    2    1    2    0    0  0.91704719609E+02 -0.38720681564E+02  0.20930445378E+03  0.24543180154E+03  0.80742603710E+02 0.  0.
          5    1    3    3  502    0 -0.10840483872E+03  0.26749486610E+02  0.12798474704E+03  0.16989617996E+03  0.41800000000E+01 0.  1.
         -5    1    3    3    0  502  0.16700119109E+02  0.11971194953E+02 -0.15067441479E+02  0.25820605717E+02  0.41800000000E+01 0.  1.
        -11    1    4    4    0    0  0.27137870062E+02  0.11996962210E+02  0.12517690327E+02  0.32203783395E+02  0.00000000000E+00 0.  1.
         11    1    4    4    0    0  0.64566849547E+02 -0.50717643774E+02  0.19678676345E+03  0.21322801814E+03  0.00000000000E+00 0. -1.
</event>
<event>
 8    1  0.6443238E-009  0.1190641E+03  0.7561462E-02  0.1244649E+00
         -1   -1    0    0    0  501 -0.00000000000E+00  0.00000000000E+00  0.99952101022E+02  0.99952101022E+02  0.00000000000E+00 0.  1.
          1   -1    0    0  501    0  0.00000000000E+00 -0.00000000000E+00 -0.25762506788E+03  0.25762506788E+03  0.00000000000E+00 0. -1.
         25    2    1    2    0    0  0.75686381592E+02 -0.98271478883E+01  0.15403863488E+02  0.14734245749E+03  0.12509004586E+03 0.  0.
         23    2    1    2    0    0 -0.75686381592E+02  0.98271478883E+01 -0.17307683035E+03  0.21023471142E+03  0.91749896390E+02 0.  0.
          5    1    3    3  502    0  0.50417294905E+02 -0.51235153024E+02  0.49959081455E+02  0.87637473439E+02  0.41800000000E+01 0.  1.
         -5    1    3    3    0  502  0.25269086687E+02  0.41408005135E+02 -0.34555217967E+02  0.59704984047E+02  0.41800000000E+01 0.  1.
        -11    1    4    4    0    0 -0.31702023603E+01 -0.33043719282E+02 -0.33193931659E+02  0.46944378428E+02  0.00000000000E+00 0.  1.
         11    1    4    4    0    0 -0.72516179232E+02  0.42870867170E+02 -0.13988289869E+03  0.16329033299E+03  0.00000000000E+00 0. -1.
</event>
<event>
 8    1  0.6443238E-009  0.2487623E+03  0.7561462E-02  0.1114090E+00
          1   -1    0    0  501    0  0.00000000000E+00  0.00000000000E+00  0.43677988199E+03  0.43677988199E+03  0.00000000000E+00 0. -1.
         -1   -1    0    0    0  501 -0.00000000000E+00 -0.00000000000E+00 -0.18185830895E+03  0.18185830895E+03  0.00000000000E+00 0.  1.
         25    2    1    2    0    0  0.10057985211E+03  0.21112646645E+03  0.54446310753E+01  0.26526835505E+03  0.12508782793E+03 0.  0.
         23    2    1    2    0    0 -0.10057985211E+03 -0.21112646645E+03  0.24947694196E+03  0.35336983589E+03  0.89111193797E+02 0.  0.
          5    1    3    3  502    0 -0.72249933617E+01  0.12365154543E+03 -0.15155411478E+02  0.12485617371E+03  0.41800000000E+01 0.  1.
         -5    1    3    3    0  502  0.10780484547E+03  0.87474921022E+02  0.20600042553E+02  0.14041218134E+03  0.41800000000E+01 0.  1.
        -11    1    4    4    0    0 -0.42526737704E+02 -0.11230270008E+03  0.65974147747E+02  0.13701462708E+03  0.00000000000E+00 0.  1.
         11    1    4    4    0    0 -0.58053114410E+02 -0.98823766375E+02  0.18350279422E+03  0.21635520881E+03  0.00000000000E+00 0. -1.
</event>
<event>
 8    1  0.6443238E-009  0.1062935E+03  0.7561462E-02  0.1267592E+00
          2   -1    0    0  501    0  0.00000000000E+00  0.00000000000E+00  0.12812305437E+04  0.12812305437E+04  0.00000000000E+00 0. -1.
         -2   -1    0    0    0  501 -0.00000000000E+00 -0.00000000000E+00 -0.21190246752E+02  0.21190246752E+02  0.00000000000E+00 0.  1.
         25    2    1    2    0    0  0.46494742734E+02 -0.38131734509E+02  0.11018434049E+04  0.11105503292E+04  0.12508938612E+03 0.  0.
         23    2    1    2    0    0 -0.46494742734E+02  0.38131734509E+02  0.15819689200E+03  0.19187046119E+03  0.90400370354E+02 0.  0.
          5    1    3    3  502    0  0.73827599376E+02 -0.63066387081E+02  0.65670994402E+03  0.66386241541E+03  0.41800000000E+01 0.  1.
         -5    1    3    3    0  502 -0.27332856641E+02  0.24934652573E+02  0.44513346091E+03  0.44668791384E+03  0.41800000000E+01 0.  1.
        -11    1    4    4    0    0 -0.57364228278E+02  0.31875707370E+02  0.16502210317E+03  0.17759225755E+03  0.00000000000E+00 0. -1.
         11    1    4    4    0    0  0.10869485544E+02  0.62560271382E+01 -0.68252111744E+01  0.14278203638E+02  0.00000000000E+00 0.  1.
</event>
<event>
 8    1  0.6443238E-009  0.1057580E+03  0.7561462E-02  0.1268633E+00
         -2   -1    0    0    0  501 -0.00000000000E+00  0.00000000000E+00  0.25687432153E+03  0.25687432153E+03  0.00000000000E+00 0.  1.
          2   -1    0    0  501    0  0.00000000000E+00 -0.00000000000E+00 -0.70532002965E+02  0.70532002965E+02  0.00000000000E+00 0. -1.
         25    2    1    2    0    0  0.57526725554E+02  0.35431658063E+02  0.15710749148E+03  0.21188287450E+03  0.12508741775E+03 0.  0.
         23    2    1    2    0    0 -0.57526725554E+02 -0.35431658063E+02  0.29234827090E+02  0.11552345000E+03  0.89029578454E+02 0.  0.
          5    1    3    3  502    0  0.45791164808E+02 -0.15553902189E+02  0.24953476634E+01  0.48605080061E+02  0.41800000000E+01 0.  1.
         -5    1    3    3    0  502  0.11735560746E+02  0.50985560252E+02  0.15461214382E+03  0.16327779444E+03  0.41800000000E+01 0.  1.
        -11    1    4    4    0    0 -0.76276971078E+02 -0.72236937849E+01  0.12110443822E+02  0.77569458669E+02  0.00000000000E+00 0. -1.
         11    1    4    4    0    0  0.18750245524E+02 -0.28207964278E+02  0.17124383267E+02  0.37953991334E+02  0.00000000000E+00 0.  1.
</event>
<event>
 8    1  0.6443238E-009  0.9946219E+02  0.7561462E-02  0.1281431E+00
          1   -1    0    0  501    0  0.00000000000E+00  0.00000000000E+00  0.18132454807E+03  0.18132454807E+03  0.00000000000E+00 0. -1.
         -1   -1    0    0    0  501 -0.00000000000E+00 -0.00000000000E+00 -0.11274604690E+03  0.11274604690E+03  0.00000000000E+00 0.  1.
         25    2    1    2    0    0 -0.75027654193E+02 -0.19032516967E+02 -0.15511556913E+02  0.14791667845E+03  0.12508936713E+03 0.  0.
         23    2    1    2    0    0  0.75027654193E+02  0.19032516967E+02  0.84090058084E+02  0.14615391653E+03  0.91095794920E+02 0.  0.
          5    1    3    3  502    0 -0.18568896480E+02  0.19760514323E+01 -0.66303776776E+02  0.69009940664E+02  0.41800000000E+01 0. -1.
         -5    1    3    3    0  502 -0.56458757713E+02 -0.21008568399E+02  0.50792219862E+02  0.78906737781E+02  0.41800000000E+01 0. -1.
        -11    1    4    4    0    0  0.26499564926E+02 -0.36851056921E+02  0.28590961310E+02  0.53643922359E+02  0.00000000000E+00 0. -1.
         11    1    4    4    0    0  0.48528089267E+02  0.55883573888E+02  0.55499096774E+02  0.92509994169E+02  0.00000000000E+00 0.  1.
</event>
<event>
 8    1  0.6443238E-009  0.1174168E+03  0.7561462E-02  0.1247420E+00
          1   -1    0    0  501    0  0.00000000000E+00  0.00000000000E+00  0.15456019056E+04  0.15456019056E+04  0.00000000000E+00 0. -1.
         -1   -1    0    0    0  501 -0.00000000000E+00 -0.00000000000E+00 -0.15465078281E+02  0.15465078281E+02  0.00000000000E+00 0.  1.
         25    2    1    2    0    0  0.36347293346E+02  0.91310606087E+02  0.10961085138E+04  0.11075919478E+04  0.12508915305E+03 0.  0.
         23    2    1    2    0    0 -0.36347293346E+02 -0.91310606087E+02  0.43402831352E+03  0.45347503611E+03  0.87179578609E+02 0.  0.
          5    1    3    3  502    0  0.42404519618E+02  0.56780905950E+01  0.11577153895E+03  0.12349455707E+03  0.41800000000E+01 0.  1.
         -5    1    3    3    0  502 -0.60572262717E+01  0.85632515492E+02  0.98033697488E+03  0.98409739072E+03  0.41800000000E+01 0.  1.
        -11    1    4    4    0    0 -0.42682123601E+02 -0.58119985239E+02  0.39638614026E+03  0.40289163376E+03  0.00000000000E+00 0. -1.
         11    1    4    4    0    0  0.63348302553E+01 -0.33190620849E+02  0.37642173256E+02  0.50583402358E+02  0.00000000000E+00 0.  1.
</event>
<event>
 8    1  0.6443238E-009  0.1101690E+03  0.7561462E-02  0.1260257E+00
          2   -1    0    0  501    0  0.00000000000E+00  0.00000000000E+00  0.20045892071E+03  0.20045892071E+03  0.00000000000E+00 0.  1.
         -2   -1    0    0    0  501 -0.00000000000E+00 -0.00000000000E+00 -0.23597692647E+03  0.23597692647E+03  0.00000000000E+00 0. -1.
         25    2    1    2    0    0  0.71860982161E+01  0.77676042257E+02 -0.19126259614E+03  0.24148885141E+03  0.12510106764E+03 0.  0.
         23    2    1    2    0    0 -0.71860982161E+01 -0.77676042257E+02  0.15574459037E+03  0.19494699577E+03  0.87537113160E+02 0.  0.
          5    1    3    3  502    0  0.64991534684E+01  0.90030712250E+02 -0.57532526392E+02  0.10712250995E+03  0.41800000000E+01 0.  1.
         -5    1    3    3    0  502  0.68694474778E+00 -0.12354669993E+02 -0.13373006975E+03  0.13436634146E+03  0.41800000000E+01 0.  1.
        -11    1    4    4    0    0 -0.43659567808E+02 -0.18532987593E+02  0.70509340307E+02  0.84977623883E+02  0.00000000000E+00 0.  1.
         11    1    4    4    0    0  0.36473469592E+02 -0.59143054663E+02  0.85235250067E+02  0.10996937189E+03  0.00000000000E+00 0. -1.
</event>
<event>
 7    1  0.6443238E-009  0.1822964E+03  0.7561462E-02  0.1165599E+00
          1   -1    0    0  501    0  0.00000000000E+00  0.00000000000E+00  0.54268076412E+03  0.54268076412E+03  0.00000000000E+00 0. -1.
         -1   -1    0    0    0  501 -0.00000000000E+00 -0.00000000000E+00 -0.83381502549E+02  0.83381502549E+02  0.00000000000E+00 0.  1.
         25    2    1    2    0    0  0.11845173622E+03  0.11062734164E+03  0.23559125346E+03  0.31212236651E+03  0.12509160818E+03 0.  0.
          5    1    3    3  502    0  0.43917729592E+02  0.11737534657E+03  0.17734257169E+03  0.21719484130E+03  0.41800000000E+01 0. -1.
         -5    1    3    3    0  502  0.74534006631E+02 -0.67480049219E+01  0.58248681767E+02  0.94927525211E+02  0.41800000000E+01 0. -1.
        -11    1    1    2    0    0 -0.79288922327E+02 -0.90130943165E+02  0.42383470070E+02  0.12730545414E+03  0.00000000000E+00 0.  1.
         11    1    1    2    0    0 -0.39162813897E+02 -0.20496398479E+02  0.18132453804E+03  0.18663444601E+03  0.00000000000E+00 0. -1.
</event>
<event>
 8    1  0.6443238E-009  0.1030880E+03  0.7561462E-02  0.1273933E+00
         -1   -1    0    0    0  501 -0.00000000000E+00  0.00000000000E+00  0.37896413518E+03  0.37896413518E+03  0.00000000000E+00 0.  1.
          1   -1    0    0  501    0  0.00000000000E+00 -0.00000000000E+00 -0.94731020946E+02  0.94731020946E+02  0.00000000000E+00 0. -1.
         25    2    1    2    0    0 -0.19776669795E+02 -0.74505225054E+02  0.32192572392E+03  0.35387583964E+03  0.12509913241E+03 0.  0.
         23    2    1    2    0    0  0.19776669795E+02  0.74505225054E+02 -0.37692609681E+02  0.11981931649E+03  0.83628885870E+02 0.  0.
          5    1    3    3  502    0  0.89029504602E+01  0.17886887389E+02  0.30711361790E+01  0.20642372557E+02  0.41800000000E+01 0.  1.
         -5    1    3    3    0  502 -0.28679620255E+02 -0.92392112443E+02  0.31885458774E+03  0.33323346708E+03  0.41800000000E+01 0.  1.
        -11    1    4    4    0    0 -0.13748799078E+02  0.13204792002E+02  0.21149901020E+02  0.28473045518E+02  0.00000000000E+00 0.  1.
         11    1    4    4    0    0  0.33525468873E+02  0.61300433052E+02 -0.58842510701E+02  0.91346270976E+02  0.00000000000E+00 0. -1.
</event>
<event>
 8    1  0.6443238E-009  0.3820110E+03  0.7561462E-02  0.1050193E+00
          2   -1    0    0  501    0  0.00000000000E+00  0.00000000000E+00  0.19756313490E+04  0.19756313490E+04  0.00000000000E+00 0. -1.
         -2   -1    0    0    0  501 -0.00000000000E+00 -0.00000000000E+00 -0.10044604518E+03  0.10044604518E+03  0.00000000000E+00 0.  1.
         25    2    1    2    0    0  0.34575034678E+03  0.14320187648E+03  0.14480240099E+04  0.15008233077E+04  0.12508791982E+03 0.  0.
         23    2    1    2    0    0 -0.34575034678E+03 -0.14320187648E+03  0.42716129387E+03  0.57525408652E+03  0.91653768938E+02 0.  0.
          5    1    3    3  502    0  0.18817669725E+03  0.13239985059E+03  0.98714654572E+03  0.10136152944E+04  0.41800000000E+01 0.  1.
         -5    1    3    3    0  502  0.15757364953E+03  0.10802025896E+02  0.46087746423E+03  0.48720801330E+03  0.41800000000E+01 0.  1.
        -11    1    4    4    0    0 -0.18372890813E+03 -0.95125556339E+02  0.17124926289E+03  0.26857306862E+03  0.00000000000E+00 0. -1.
         11    1    4    4    0    0 -0.16202143865E+03 -0.48076320144E+02  0.25591203098E+03  0.30668101790E+03  0.00000000000E+00 0.  1.
</event>
<event>
 8    1  0.6443238E-009  0.1338445E+03  0.7561462E-02  0.1221860E+00
          1   -1    0    0  501    0  0.00000000000E+00  0.00000000000E+00  0.16709242800E+03  0.16709242800E+03  0.00000000000E+00 0. -1.
         -1   -1    0    0    0  501 -0.00000000000E+00 -0.00000000000E+00 -0.15741901584E+03  0.15741901584E+03  0.00000000000E+00 0.  1.
         25    2    1    2    0    0 -0.85508679709E+02 -0.11524261384E+01 -0.79458275520E+02  0.17109714803E+03  0.12509018396E+03 0.  0.
         23    2    1    2    0    0  0.85508679709E+02  0.11524261384E+01  0.89131687675E+02  0.15341429581E+03  0.90985856149E+02 0.  0.
          5    1    3    3  502    0  0.32602993677E+02 -0.59027841334E+00 -0.22967513379E+02  0.40103400056E+02  0.41800000000E+01 0. -1.
         -5    1    3    3    0  502 -0.11811167339E+03 -0.56214772506E+00 -0.56490762141E+02  0.13099374797E+03  0.41800000000E+01 0. -1.
        -11    1    4    4    0    0 -0.49247422820E+01  0.23058064409E+02  0.44176623570E+02  0.50074958721E+02  0.00000000000E+00 0. -1.
         11    1    4    4    0    0  0.90433421991E+02 -0.21905638271E+02  0.44955064105E+02  0.10333933709E+03  0.00000000000E+00 0.  1.
</event>
<event>
 8    1  0.6443238E-009  0.7095210E+02  0.7561462E-02  0.1356885E+00
          1   -1    0    0  501    0  0.00000000000E+00  0.00000000000E+00  0.87745584582E+02  0.87745584582E+02  0.00000000000E+00 0. -1.
         -1   -1    0    0    0  501 -0.00000000000E+00 -0.00000000000E+00 -0.16770379860E+03  0.16770379860E+03  0.00000000000E+00 0.  1.
         25    2    1    2    0    0  0.20822498767E+01  0.27490210799E+02 -0.88009997739E+02  0.15540655037E+03  0.12508152838E+03 0.  0.
         23    2    1    2    0    0 -0.20822498767E+01 -0.27490210799E+02  0.80517837178E+01  0.10004283282E+03  0.95831569551E+02 0.  0.
          5    1    3    3  502    0 -0.73309100480E+01  0.43104356630E+02 -0.11469564797E+03  0.12281812515E+03  0.41800000000E+01 0. -1.
         -5    1    3    3    0  502  0.94131599247E+01 -0.15614145831E+02  0.26685650231E+02  0.32588425216E+02  0.41800000000E+01 0. -1.
        -11    1    4    4    0    0  0.28748016183E+02  0.10271185997E+02  0.33273441712E+02  0.45156036359E+02  0.00000000000E+00 0.  1.
         11    1    4    4    0    0 -0.30830266060E+02 -0.37761396797E+02 -0.25221657995E+02  0.54886796458E+02  0.00000000000E+00 0. -1.
</event>
<event>
 8    1  0.6443238E-009  0.1184935E+03  0.7561462E-02  0.1245603E+00
          1   -1    0    0  501    0  0.00000000000E+00  0.00000000000E+00  0.64047357591E+03  0.64047357591E+03  0.00000000000E+00 0. -1.
         -1   -1    0    0    0  501 -0.00000000000E+00 -0.00000000000E+00 -0.24123021447E+02  0.24123021447E+02  0.00000000000E+00 0.  1.
         25    2    1    2    0    0 -0.19742175569E+02 -0.53765694128E+02  0.33336894491E+03  0.36064266507E+03  0.12509106715E+03 0.  0.
         23    2    1    2    0    0  0.19742175569E+02  0.53765694128E+02  0.28298160956E+03  0.30395393229E+03  0.95020514857E+02 0.  0.
          5    1    3    3  502    0  0.39805426056E+02  0.74858352095E+01  0.49106600671E+02  0.63792164893E+02  0.41800000000E+01 0. -1.
         -5    1    3    3    0  502 -0.59547601625E+02 -0.61251529337E+02  0.28426234424E+03  0.29685050018E+03  0.41800000000E+01 0. -1.
        -11    1    4    4    0    0  0.23186232241E+02 -0.23724642423E+02  0.93500911500E+02  0.99211292074E+02  0.00000000000E+00 0. -1.
         11    1    4    4    0    0 -0.34440566726E+01  0.77490336551E+02  0.18948069806E+03  0.20474264021E+03  0.00000000000E+00 0.  1.
</event>
<event>
 8    1  0.6443238E-009  0.3200513E+03  0.7561462E-02  0.1075626E+00
          1   -1    0    0  501    0  0.00000000000E+00  0.00000000000E+00  0.16054297157E+04  0.16054297157E+04  0.00000000000E+00 0. -1.
         -1   -1    0    0    0  501 -0.00000000000E+00 -0.00000000000E+00 -0.10688958934E+03  0.10688958934E+03  0.00000000000E+00 0.  1.
         25    2    1    2    0    0  0.30674185787E+03  0.15086608950E+02  0.22914925815E+03  0.40308248530E+03  0.12509170357E+03 0.  0.
         23    2    1    2    0    0 -0.30674185787E+03 -0.15086608950E+02  0.12693908682E+04  0.13092368198E+04  0.91813401747E+02 0.  0.
          5    1    3    3  502    0  0.22479158559E+03 -0.44219312159E+02  0.17459265239E+03  0.28807407240E+03  0.41800000000E+01 0. -1.
         -5    1    3    3    0  502  0.81950272287E+02  0.59305921109E+02  0.54556605761E+02  0.11500841290E+03  0.41800000000E+01 0. -1.
        -11    1    4    4    0    0 -0.22024905795E+03 -0.28879595883E+02  0.10452061526E+04  0.10685502234E+04  0.00000000000E+00 0. -1.
         11    1    4    4    0    0 -0.86492799928E+02  0.13792986933E+02  0.22418471565E+03  0.24068659634E+03  0.00000000000E+00 0.  1.
</event>
<event>
 8    1  0.6443238E-009  0.1606362E+03  0.7561462E-02  0.1187980E+00
         -1   -1    0    0    0  501 -0.00000000000E+00  0.00000000000E+00  0.15462084624E+03  0.15462084624E+03  0.00000000000E+00 0.  1.
          1   -1    0    0  501    0  0.00000000000E+00 -0.00000000000E+00 -0.20561973625E+03  0.20561973625E+03  0.00000000000E+00 0. -1.
         25    2    1    2    0    0 -0.12481402156E+03 -0.40311755730E+02 -0.79247062946E+02  0.19782255604E+03  0.12510031601E+03 0.  0.
         23    2    1    2    0    0  0.12481402156E+03  0.40311755730E+02  0.28248172939E+02  0.16241802645E+03  0.91531843714E+02 0.  0.
          5    1    3    3  502    0 -0.14550889670E+02  0.36598648207E+02 -0.43129721775E+02  0.58556252793E+02  0.41800000000E+01 0. -1.
         -5    1    3    3    0  502 -0.11026313189E+03 -0.76910403938E+02 -0.36117341171E+02  0.13926630325E+03  0.41800000000E+01 0. -1.
        -11    1    4    4    0    0  0.80898432135E+02  0.58290527706E+02 -0.11690853643E+02  0.10039431259E+03  0.00000000000E+00 0. -1.
         11    1    4    4    0    0  0.43915589423E+02 -0.17978771976E+02  0.39939026582E+02  0.62023713856E+02  0.00000000000E+00 0.  1.
</event>
<event>
 8    1  0.6443238E-009  0.8208182E+02  0.7561462E-02  0.1323245E+00
         -2   -1    0    0    0  501 -0.00000000000E+00  0.00000000000E+00  0.69231750737E+02  0.69231750737E+02  0.00000000000E+00 0.  1.
          2   -1    0    0  501    0  0.00000000000E+00 -0.00000000000E+00 -0.22040940799E+03  0.22040940799E+03  0.00000000000E+00 0. -1.
         25    2    1    2    0    0 -0.12020438057E+01  0.50284952535E+02 -0.12095968466E+03  0.18111892731E+03  0.12507117636E+03 0.  0.
         23    2    1    2    0    0  0.12020438057E+01 -0.50284952535E+02 -0.30217972589E+02  0.10852223141E+03  0.91290347150E+02 0.  0.
          5    1    3    3  502    0  0.17603776909E+02 -0.71841145557E+01 -0.11888815764E+03  0.12047145260E+03  0.41800000000E+01 0.  1.
         -5    1    3    3    0  502 -0.18805820715E+02  0.57469067091E+02 -0.20715270206E+01  0.60647474714E+02  0.41800000000E+01 0.  1.
        -11    1    4    4    0    0 -0.47278147522E+01 -0.66577988326E+02  0.73471040686E+01  0.67148795224E+02  0.00000000000E+00 0.  1.
         11    1    4    4    0    0  0.59298585580E+01  0.16293035791E+02 -0.37565076658E+02  0.41373436189E+02  0.00000000000E+00 0. -1.
</event>
<event>
 8    1  0.6443238E-009  0.1082956E+03  0.7561462E-02  0.1263759E+00
         -2   -1    0    0    0  501 -0.00000000000E+00  0.00000000000E+00  0.11266989252E+02  0.11266989252E+02  0.00000000000E+00 0.  1.
          2   -1    0    0  501    0  0.00000000000E+00 -0.00000000000E+00 -0.16703752200E+04  0.16703752200E+04  0.00000000000E+00 0. -1.
         25    2    1    2    0    0 -0.55905762946E+02  0.26488296095E+02 -0.12563141857E+04  0.12640416424E+04  0.12509538907E+03 0.  0.
         23    2    1    2    0    0  0.55905762946E+02 -0.26488296095E+02 -0.40279404504E+03  0.41760056684E+03  0.91214618068E+02 0.  0.
          5    1    3    3  502    0 -0.61772448806E+02 -0.25369970704E+02 -0.10105411189E+04  0.10127538181E+04  0.41800000000E+01 0. -1.
         -5    1    3    3    0  502  0.58666858595E+01  0.51858266799E+02 -0.24577306687E+03  0.25128782429E+03  0.41800000000E+01 0. -1.
        -11    1    4    4    0    0 -0.17319071428E+02 -0.15573455222E+02 -0.32535834061E+02  0.40013288302E+02  0.00000000000E+00 0.  1.
         11    1    4    4    0    0  0.73224834374E+02 -0.10914840873E+02 -0.37025821098E+03  0.37758727854E+03  0.00000000000E+00 0. -1.
</event>
<event>
 8    1  0.6443238E-009  0.1110389E+03  0.7561462E-02  0.1258658E+00
         -1   -1    0    0    0  501 -0.00000000000E+00  0.00000000000E+00  0.18516393451E+02  0.18516393451E+02  0.00000000000E+00 0.  1.
          1   -1    0    0  501    0  0.00000000000E+00 -0.00000000000E+00 -0.11045041322E+04  0.11045041322E+04  0.00000000000E+00 0. -1.
         25    2    1    2    0    0 -0.86157852143E+02  0.34459217117E+02 -0.55709894852E+03  0.57846486986E+03  0.12510697057E+03 0.  0.
         23    2    1    2    0    0  0.86157852143E+02 -0.34459217117E+02 -0.52888879023E+03  0.54455565579E+03  0.90591924027E+02 0.  0.
          5    1    3    3  502    0 -0.69285508860E+02  0.46905956227E+02 -0.54938660329E+03  0.55573713457E+03  0.41800000000E+01 0. -1.
         -5    1    3    3    0  502 -0.16872343283E+02 -0.12446739111E+02 -0.77123452354E+01  0.22727735289E+02  0.41800000000E+01 0. -1.
        -11    1    4    4    0    0  0.90093596745E+02 -0.83048364916E+01 -0.48457414012E+03  0.49294819581E+03  0.00000000000E+00 0. -1.
         11    1    4    4    0    0 -0.39357446019E+01 -0.26154380625E+02 -0.44314650109E+02  0.51607459982E+02  0.00000000000E+00 0.  1.
</event>
<event>
 8    1  0.6443238E-009  0.1861203E+03  0.7561462E-02  0.1162008E+00
          2   -1    0    0  501    0  0.00000000000E+00  0.00000000000E+00  0.66612178472E+03  0.66612178472E+03  0.00000000000E+00 0. -1.
         -2   -1    0    0    0  501 -0.00000000000E+00 -0.00000000000E+00 -0.60641484398E+02  0.60641484398E+02  0.00000000000E+00 0.  1.
         25    2    1    2    0    0 -0.10267015981E+03  0.12665504905E+03  0.39309085412E+03  0.44356536056E+03  0.12508855397E+03 0.  0.
         23    2    1    2    0    0  0.10267015981E+03 -0.12665504905E+03  0.21238944621E+03  0.28319790856E+03  0.92244866460E+02 0.  0.
          5    1    3    3  502    0  0.56685457723E+00  0.93810609965E+02  0.22163255326E+03  0.24070565621E+03  0.41800000000E+01 0.  1.
         -5    1    3    3    0  502 -0.10323701438E+03  0.32844439083E+02  0.17145830086E+03  0.20285970436E+03  0.41800000000E+01 0.  1.
        -11    1    4    4    0    0  0.10370415228E+03 -0.10273387804E+03  0.21417209560E+03  0.25918813135E+03  0.00000000000E+00 0.  1.
         11    1    4    4    0    0 -0.10339924767E+01 -0.23921171007E+02 -0.17826493952E+01  0.24009777209E+02  0.00000000000E+00 0. -1.
</event>
<event>
 8    1  0.6443238E-009  0.1794997E+03  0.7561462E-02  0.1168288E+00
         -2   -1    0    0    0  501 -0.00000000000E+00  0.00000000000E+00  0.83612443346E+02  0.83612443346E+02  0.00000000000E+00 0. -1.
          2   -1    0    0  501    0  0.00000000000E+00 -0.00000000000E+00 -0.44350474915E+03  0.44350474915E+03  0.00000000000E+00 0.  1.
         25    2    1    2    0    0 -0.90610844596E+00  0.15783410585E+03 -0.16652649554E+03  0.26132647495E+03  0.12509207327E+03 0.  0.
         23    2    1    2    0    0  0.90610844596E+00 -0.15783410585E+03 -0.19336581027E+03  0.26579071754E+03  0.91334237562E+02 0.  0.
          5    1    3    3  502    0  0.40430225333E+02  0.49275703281E+02 -0.74522594550E+01  0.64309459843E+02  0.41800000000E+01 0.  1.
         -5    1    3    3    0  502 -0.41336333779E+02  0.10855840257E+03 -0.15907423608E+03  0.19701701511E+03  0.41800000000E+01 0.  1.
        -11    1    4    4    0    0  0.42446710247E+02 -0.73503555324E+02 -0.66159733211E+02  0.10761787098E+03  0.00000000000E+00 0. -1.
         11    1    4    4    0    0 -0.41540601801E+02 -0.84330550524E+02 -0.12720607706E+03  0.15817284656E+03  0.00000000000E+00 0.  1.
</event>
<event>
 8    1  0.6443238E-009  0.1101108E+03  0.7561462E-02  0.1260365E+00
          1   -1    0    0  501    0  0.00000000000E+00  0.00000000000E+00  0.35986868414E+03  0.35986868414E+03  0.00000000000E+00 0. -1.
         -1   -1    0    0    0  501 -0.00000000000E+00 -0.00000000000E+00 -0.55410389365E+02  0.55410389365E+02  0.00000000000E+00 0.  1.
         25    2    1    2    0    0 -0.42294861564E+02  0.11124393430E+02  0.50886693917E+02  0.14194943903E+03  0.12509028811E+03 0.  0.
         23    2    1    2    0    0  0.42294861564E+02 -0.11124393430E+02  0.25357160085E+03  0.27332963447E+03  0.92184189956E+02 0.  0.
          5    1    3    3  502    0  0.39021413985E+02 -0.21387581390E+02  0.14048882768E+02  0.46850217653E+02  0.41800000000E+01 0.  1.
         -5    1    3    3    0  502 -0.81316275549E+02  0.32511974820E+02  0.36837811150E+02  0.95099221375E+02  0.41800000000E+01 0.  1.
        -11    1    4    4    0    0 -0.17696359290E+02 -0.20556836234E+02  0.25208918463E+02  0.37030179828E+02  0.00000000000E+00 0.  1.
         11    1    4    4    0    0  0.59991220854E+02  0.94324428039E+01  0.22836268239E+03  0.23629945465E+03  0.00000000000E+00 0. -1.
</event>
<event>
 8    1  0.6443238E-009  0.8899893E+02  0.7561462E-02  0.1305294E+00
         -2   -1    0    0    0  501 -0.00000000000E+00  0.00000000000E+00  0.44917922475E+03  0.44917922475E+03  0.00000000000E+00 0.  1.
          2   -1    0    0  501    0  0.00000000000E+00 -0.00000000000E+00 -0.31741934412E+02  0.31741934412E+02  0.00000000000E+00 0. -1.
         25    2    1    2    0    0  0.52815522792E+02 -0.16338422123E+02  0.21617163517E+03  0.25580221410E+03  0.12509265927E+03 0.  0.
         23    2    1    2    0    0 -0.52815522792E+02  0.16338422123E+02  0.20126565517E+03  0.22511894506E+03  0.84346025330E+02 0.  0.
          5    1    3    3  502    0  0.69896019026E+01 -0.40547016270E+02  0.91581230175E+01  0.42358690730E+02  0.41800000000E+01 0.  1.
         -5    1    3    3    0  502  0.45825920889E+02  0.24208594147E+02  0.20701351215E+03  0.21344352337E+03  0.41800000000E+01 0.  1.
        -11    1    4    4    0    0 -0.31790844309E+02  0.41229777172E+02  0.17698686118E+03  0.18448550441E+03  0.00000000000E+00 0.  1.
         11    1    4    4    0    0 -0.21024678483E+02 -0.24891355049E+02  0.24278793994E+02  0.40633440653E+02  0.00000000000E+00 0. -1.
</event>
<event>
 8    1  0.6443238E-009  0.9534738E+02  0.7561462E-02  0.1290396E+00
          2   -1    0    0  501    0  0.00000000000E+00  0.00000000000E+00  0.36549330179E+03  0.36549330179E+03  0.00000000000E+00 0. -1.
         -2   -1    0    0    0  501 -0.00000000000E+00 -0.00000000000E+00 -0.39668113481E+02  0.39668113481E+02  0.00000000000E+00 0.  1.
         25    2    1    2    0    0  0.43646387117E+02 -0.27281115179E+02  0.20655676561E+03  0.24690720334E+03  0.12509277873E+03 0.  0.
         23    2    1    2    0    0 -0.43646387117E+02  0.27281115179E+02  0.11926842270E+03  0.15825421193E+03  0.90389006994E+02 0.  0.
          5    1    3    3  502    0  0.20912336543E+02  0.22989410980E+02 -0.17213254202E+01  0.31405002756E+02  0.41800000000E+01 0.  1.
         -5    1    3    3    0  502  0.22734050573E+02 -0.50270526159E+02  0.20827809103E+03  0.21550220059E+03  0.41800000000E+01 0.  1.
        -11    1    4    4    0    0  0.56872763171E+01 -0.28776036195E+02  0.34619767848E+02  0.45375474618E+02  0.00000000000E+00 0. -1.
         11    1    4    4    0    0 -0.49333663434E+02  0.56057151374E+02  0.84648654852E+02  0.11287873731E+03  0.00000000000E+00 0.  1.
</event>
<event>
 7    1  0.6443238E-009  0.1039973E+03  0.7561462E-02  0.1272108E+00
          2   -1    0    0  501    0  0.00000000000E+00  0.00000000000E+00  0.14551818041E+04  0.14551818041E+04  0.00000000000E+00 0.  1.
         -2   -1    0    0    0  501 -0.00000000000E+00 -0.00000000000E+00 -0.12119506425E+02  0.12119506425E+02  0.00000000000E+00 0. -1.
         23    2    1    2    0    0  0.23930635334E+02 -0.52090288736E+02  0.37372549936E+03  0.38915755738E+03  0.92123732602E+02 0.  0.
          5    1    1    2  502    0  0.71707763793E+01  0.79543046851E+02  0.90768616935E+03  0.91120259589E+03  0.41800000000E+01 0.  1.
         -5    1    1    2    0  502 -0.31101411714E+02 -0.27452758115E+02  0.16165062901E+03  0.16694115729E+03  0.41800000000E+01 0.  1.
        -11    1    3    3    0    0  0.46177845215E+02 -0.39470649442E+02  0.34656771458E+03  0.35185154021E+03  0.00000000000E+00 0. -1.
         11    1    3    3    0    0 -0.22247209881E+02 -0.12619639295E+02  0.27157784777E+02  0.37306017174E+02  0.00000000000E+00 0.  1.
</event>
<event>
 8    1  0.6443238E-009  0.1078076E+03  0.7561462E-02  0.1264685E+00
         -2   -1    0    0    0  501 -0.00000000000E+00  0.00000000000E+00  0.33369132510E+02  0.33369132510E+02  0.00000000000E+00 0. -1.
          2   -1    0    0  501    0  0.00000000000E+00 -0.00000000000E+00 -0.41984122300E+03  0.41984122300E+03  0.00000000000E+00 0.  1.
         25    2    1    2    0    0 -0.36960989978E+02 -0.73624512970E+01 -0.16903600065E+03  0.21363615489E+03  0.12508763605E+03 0.  0.
         23    2    1    2    0    0  0.36960989978E+02  0.73624512970E+01 -0.21743608984E+03  0.23957420062E+03  0.93257835956E+02 0.  0.
          5    1    3    3  502    0 -0.51977550634E+01 -0.58713090314E+02 -0.12661611228E+03  0.13972600303E+03  0.41800000000E+01 0.  1.
         -5    1    3    3    0  502 -0.31763234914E+02  0.51350639017E+02 -0.42419888363E+02  0.73910151863E+02  0.41800000000E+01 0.  1.
        -11    1    4    4    0    0  0.43479273998E+02  0.42179889912E+02 -0.10004771506E+03  0.11695783714E+03  0.00000000000E+00 0. -1.
         11    1    4    4    0    0 -0.65182840201E+01 -0.34817438615E+02 -0.11738837478E+03  0.12261636347E+03  0.00000000000E+00 0.  1.
</event>
<event>
 8    1  0.6443238E-009  0.1108540E+03  0.7561462E-02  0.1258997E+00
         -1   -1    0    0    0  501 -0.00000000000E+00  0.00000000000E+00  0.55388404545E+03  0.55388404545E+03  0.00000000000E+00 0.  1.
          1   -1    0    0  501    0  0.00000000000E+00 -0.00000000000E+00 -0.24284372949E+02  0.24284372949E+02  0.00000000000E+00 0. -1.
         25    2    1    2    0    0 -0.39833529568E+02  0.11850318722E+01  0.37958324868E+03  0.40165306014E+03  0.12511444224E+03 0.  0.
         23    2    1    2    0    0  0.39833529568E+02 -0.11850318722E+01  0.15001642382E+03  0.17651535826E+03  0.84051352809E+02 0.  0.
          5    1    3    3  502    0 -0.80180944601E+02 -0.21482269821E+02  0.21089342950E+03  0.22668035380E+03  0.41800000000E+01 0.  1.
         -5    1    3    3    0  502  0.40347415033E+02  0.22667301693E+02  0.16868981918E+03  0.17497270634E+03  0.41800000000E+01 0.  1.
        -11    1    4    4    0    0  0.31134562084E+02  0.39628698485E+02  0.94077806088E+02  0.10672594951E+03  0.00000000000E+00 0.  1.
         11    1    4    4    0    0  0.86989674843E+01 -0.40813730357E+02  0.55938617733E+02  0.69789408758E+02  0.00000000000E+00 0. -1.
</event>
<event>
 8    1  0.6443238E-009  0.1780553E+03  0.7561462E-02  0.1169699E+00
          1   -1    0    0  501    0  0.00000000000E+00  0.00000000000E+00  0.16533481885E+03  0.16533481885E+03  0.00000000000E+00 0. -1.
         -1   -1    0    0    0  501 -0.00000000000E+00 -0.00000000000E+00 -0.28546550798E+03  0.28546550798E+03  0.00000000000E+00 0.  1.
         25    2    1    2    0    0 -0.58781877961E+02  0.12663684852E+03 -0.18837548987E+03  0.26575358419E+03  0.12508973477E+03 0.  0.
         23    2    1    2    0    0  0.58781877961E+02 -0.12663684852E+03  0.68244800740E+02  0.18504674265E+03  0.10046264757E+03 0.  0.
          5    1    3    3  502    0  0.26034101860E+02  0.91581256548E+02 -0.10322096838E+03  0.14048822628E+03  0.41800000000E+01 0.  1.
         -5    1    3    3    0  502 -0.84815979821E+02  0.35055591974E+02 -0.85154521490E+02  0.12526535791E+03  0.41800000000E+01 0.  1.
        -11    1    4    4    0    0  0.38554288154E+02 -0.13965845009E+03  0.70038736277E+02  0.16092339915E+03  0.00000000000E+00 0. -1.
         11    1    4    4    0    0  0.20227589807E+02  0.13021601564E+02 -0.17939355366E+01  0.24123343496E+02  0.00000000000E+00 0.  1.
</event>
<event>
 8    1  0.6443238E-009  0.2107574E+03  0.7561462E-02  0.1140968E+00
         -2   -1    0    0    0  501 -0.00000000000E+00  0.00000000000E+00  0.46964169716E+02  0.46964169716E+02  0.00000000000E+00 0.  1.
          2   -1    0    0  501    0  0.00000000000E+00 -0.00000000000E+00 -0.11431840708E+04  0.11431840708E+04  0.00000000000E+00 0. -1.
         25    2    1    2    0    0  0.18367720173E+03  0.73019228198E+02 -0.69814874208E+03  0.73629379192E+03  0.12509100618E+03 0.  0.
         23    2    1    2    0    0 -0.18367720173E+03 -0.73019228198E+02 -0.39807115899E+03  0.45385444859E+03  0.91946129638E+02 0.  0.
          5    1    3    3  502    0  0.12917971914E+03 -0.29025358220E+01 -0.28918656505E+03  0.31676831653E+03  0.41800000000E+01 0.  1.
         -5    1    3    3    0  502  0.54497482596E+02  0.75921764020E+02 -0.40896217703E+03  0.41952547539E+03  0.41800000000E+01 0.  1.
        -11    1    4    4    0    0 -0.65391646985E+02 -0.36509064716E+02 -0.24934767676E+03  0.26035215230E+03  0.00000000000E+00 0.  1.
         11    1    4    4    0    0 -0.11828555475E+03 -0.36510163482E+02 -0.14872348223E+03  0.19350229628E+03  0.00000000000E+00 0. -1.
</event>
<event>
 7    1  0.6443238E-009  0.1068588E+03  0.7561462E-02  0.1266500E+00
          1   -1    0    0  501    0  0.00000000000E+00  0.00000000000E+00  0.28020074571E+03  0.28020074571E+03  0.00000000000E+00 0. -1.
         -1   -1    0    0    0  501 -0.00000000000E+00 -0.00000000000E+00 -0.65327603345E+02  0.65327603345E+02  0.00000000000E+00 0.  1.
         23    2    1    2    0    0 -0.60283444537E+02 -0.52236787670E+02  0.10950384546E+03  0.16351653833E+03  0.91563040945E+02 0.  0.
          5    1    1    2  502    0 -0.20290789197E+02  0.23852892556E+02  0.89644204961E+02  0.95048579645E+02  0.41800000000E+01 0.  1.
         -5    1    1    2    0  502  0.80574233733E+02  0.28383895114E+02  0.15725091953E+02  0.86963231083E+02  0.41800000000E+01 0.  1.
        -11    1    3    3    0    0 -0.50210550754E+02 -0.75361332587E+01  0.10603478199E+03  0.11756388775E+03  0.00000000000E+00 0. -1.
         11    1    3    3    0    0 -0.10072893783E+02 -0.44700654411E+02  0.34690634648E+01  0.45952650579E+02  0.00000000000E+00 0.  1.
</event>
<event>
 8    1  0.6443238E-009  0.8966159E+02  0.7561462E-02  0.1303673E+00
         -2   -1    0    0    0  501 -0.00000000000E+00  0.00000000000E+00  0.15921426956E+02  0.15921426956E+02  0.00000000000E+00 0.  1.
          2   -1    0    0  501    0  0.00000000000E+00 -0.00000000000E+00 -0.10825274689E+04  0.10825274689E+04  0.00000000000E+00 0. -1.
         25    2    1    2    0    0 -0.13461113075E+02 -0.67626304807E+02 -0.67958314352E+03  0.69443177692E+03  0.12509086768E+03 0.  0.
         23    2    1    2    0    0  0.13461113075E+02  0.67626304807E+02 -0.38702289840E+03  0.40401711891E+03  0.93212605470E+02 0.  0.
          5    1    3    3  502    0 -0.16014076076E+02  0.31050753422E+01 -0.51439692934E+03  0.51467248366E+03  0.41800000000E+01 0.  1.
         -5    1    3    3    0  502  0.25529630017E+01 -0.70731380149E+02 -0.16518621418E+03  0.17975929326E+03  0.41800000000E+01 0.  1.
        -11    1    4    4    0    0 -0.21785692929E+02  0.98610175217E+01 -0.21105168633E+02  0.31894893415E+02  0.00000000000E+00 0.  1.
         11    1    4    4    0    0  0.35246806003E+02  0.57765287285E+02 -0.36591772977E+03  0.37212222549E+03  0.00000000000E+00 0. -1.
</event>
<event>
 8    1  0.6443238E-009  0.1274442E+03  0.7561462E-02  0.1231298E+00
          1   -1    0    0  501    0  0.00000000000E+00  0.00000000000E+00  0.27455652338E+03  0.27455652338E+03  0.00000000000E+00 0. -1.
         -1   -1    0    0    0  501 -0.00000000000E+00 -0.00000000000E+00 -0.11350862393E+03  0.11350862393E+03  0.00000000000E+00 0.  1.
         25    2    1    2    0    0  0.70236771989E+02  0.65347965314E+02 -0.24869823014E+02  0.15959546398E+03  0.12509453751E+03 0.  0.
         23    2    1    2    0    0 -0.70236771989E+02 -0.65347965314E+02  0.18591772246E+03  0.22846968333E+03  0.91811959810E+02 0.  0.
          5    1    3    3  502    0 -0.30304456155E+02  0.40718769550E+02  0.65213738527E+01  0.51345681156E+02  0.41800000000E+01 0.  1.
         -5    1    3    3    0  502  0.10054122814E+03  0.24629195764E+02 -0.31391196867E+02  0.10824978282E+03  0.41800000000E+01 0.  1.
        -11    1    4    4    0    0 -0.39146021403E+02 -0.16552804670E+02  0.10532682054E+02  0.43787483662E+02  0.00000000000E+00 0.  1.
         11    1    4    4    0    0 -0.31090750585E+02 -0.48795160644E+02  0.17538504041E+03  0.18468219967E+03  0.00000000000E+00 0. -1.
</event>
<event>
 8    1  0.6443238E-009  0.1057734E+03  0.7561462E-02  0.1268603E+00
         -3   -1    0    0    0  501 -0.00000000000E+00  0.00000000000E+00  0.83692980085E+02  0.83692980085E+02  0.00000000000E+00 0.  1.
          3   -1    0    0  501    0  0.00000000000E+00 -0.00000000000E+00 -0.16677719968E+03  0.16677719968E+03  0.00000000000E+00 0. -1.
         25    2    1    2    0    0 -0.43246837487E+02 -0.10928030022E+01 -0.66942956877E+02  0.14832283944E+03  0.12508725776E+03 0.  0.
         23    2    1    2    0    0  0.43246837487E+02  0.10928030022E+01 -0.16141262718E+02  0.10214734032E+03  0.91115616672E+02 0.  0.
          5    1    3    3  502    0  0.40640109286E+02  0.18721659432E+02 -0.32247748320E+02  0.55312825695E+02  0.41800000000E+01 0. -1.
         -5    1    3    3    0  502 -0.83886946773E+02 -0.19814462435E+02 -0.34695208557E+02  0.93010013748E+02  0.41800000000E+01 0. -1.
        -11    1    4    4    0    0  0.38490575411E+02 -0.30034290962E+02  0.21265006070E+02  0.53252075191E+02  0.00000000000E+00 0.  1.
         11    1    4    4    0    0  0.47562620765E+01  0.31127093964E+02 -0.37406268788E+02  0.48895265131E+02  0.00000000000E+00 0. -1.
</event>
<event>
 8    1  0.6443238E-009  0.7589353E+02  0.7561462E-02  0.1341126E+00
         -4   -1    0    0    0  501 -0.00000000000E+00  0.00000000000E+00  0.77867837459E+02  0.77867837459E+02  0.00000000000E+00 0.  1.
          4   -1    0    0  501    0  0.00000000000E+00 -0.00000000000E+00 -0.21161373910E+03  0.21161373910E+03  0.00000000000E+00 0. -1.
         25    2    1    2    0    0  0.34780957017E+02  0.54003955305E+02 -0.12785535238E+03  0.19005501825E+03  0.12509107349E+03 0.  0.
         23    2    1    2    0    0 -0.34780957017E+02 -0.54003955305E+02 -0.58905492601E+01  0.99426558315E+02  0.75662406572E+02 0.  0.
          5    1    3    3  502    0  0.26893537771E+02  0.14404598848E+02 -0.14333892681E+03  0.14660926021E+03  0.41800000000E+01 0. -1.
         -5    1    3    3    0  502  0.78874192461E+01  0.39599356457E+02  0.15483574424E+02  0.43445758033E+02  0.41800000000E+01 0. -1.
        -11    1    4    4    0    0 -0.14690791083E+02  0.69278465630E+01  0.23733428780E+02  0.28759173186E+02  0.00000000000E+00 0.  1.
         11    1    4    4    0    0 -0.20090165934E+02 -0.60931801868E+02 -0.29623978040E+02  0.70667385130E+02  0.00000000000E+00 0. -1.
</event>
<event>
 8    1  0.6443238E-009  0.8705895E+02  0.7561462E-02  0.1310134E+00
          1   -1    0    0  501    0  0.00000000000E+00  0.00000000000E+00  0.84994224294E+03  0.84994224294E+03  0.00000000000E+00 0. -1.
         -1   -1    0    0    0  501 -0.00000000000E+00 -0.00000000000E+00 -0.16856025750E+02  0.16856025750E+02  0.00000000000E+00 0.  1.
         25    2    1    2    0    0  0.12957840229E+02  0.21872946849E+02  0.56891901487E+03  0.58306363160E+03  0.12509205249E+03 0.  0.
         23    2    1    2    0    0 -0.12957840229E+02 -0.21872946849E+02  0.26416720233E+03  0.28373463709E+03  0.10037281540E+03 0.  0.
          5    1    3    3  502    0  0.39046198833E+02 -0.18259548668E+02  0.48037110607E+03  0.48231928087E+03  0.41800000000E+01 0. -1.
         -5    1    3    3    0  502 -0.26088358604E+02  0.40132495517E+02  0.88547908801E+02  0.10074435073E+03  0.41800000000E+01 0. -1.
        -11    1    4    4    0    0 -0.16559477466E+02  0.28123247405E+02  0.30224387734E+02  0.44481984583E+02  0.00000000000E+00 0.  1.
         11    1    4    4    0    0  0.36016372369E+01 -0.49996194254E+02  0.23394281459E+03  0.23925265250E+03  0.00000000000E+00 0. -1.
</event>
<event>
 8    1  0.6443238E-009  0.1045035E+03  0.7561462E-02  0.1271101E+00
         -1   -1    0    0    0  501 -0.00000000000E+00  0.00000000000E+00  0.37857550822E+02  0.37857550822E+02  0.00000000000E+00 0.  1.
          1   -1    0    0  501    0  0.00000000000E+00 -0.00000000000E+00 -0.63244657298E+03  0.63244657298E+03  0.00000000000E+00 0. -1.
         25    2    1    2    0    0  0.42550028577E+02  0.79890730411E+02 -0.45295556155E+03  0.47854990576E+03  0.12509291677E+03 0.  0.
         23    2    1    2    0    0 -0.42550028577E+02 -0.79890730411E+02 -0.14163346061E+03  0.19175421804E+03  0.92285476840E+02 0.  0.
          5    1    3    3  502    0 -0.11071236352E+02 -0.74357987982E+01 -0.25698032164E+03  0.25736010081E+03  0.41800000000E+01 0. -1.
         -5    1    3    3    0  502  0.53621264929E+02  0.87326529209E+02 -0.19597523991E+03  0.22118980495E+03  0.41800000000E+01 0. -1.
        -11    1    4    4    0    0 -0.25233680277E+02 -0.64658568776E+02 -0.26437771720E+02  0.74272639040E+02  0.00000000000E+00 0.  1.
         11    1    4    4    0    0 -0.17316348300E+02 -0.15232161635E+02 -0.11519568889E+03  0.11748157900E+03  0.00000000000E+00 0. -1.
</event>
<event>
 8    1  0.6443238E-009  0.6174406E+02  0.7561462E-02  0.1390655E+00
         -2   -1    0    0    0  501 -0.00000000000E+00  0.00000000000E+00  0.26769614587E+02  0.26769614587E+02  0.00000000000E+00 0.  1.
          2   -1    0    0  501    0  0.00000000000E+00 -0.00000000000E+00 -0.48730857193E+03  0.48730857193E+03  0.00000000000E+00 0. -1.
         25    2    1    2    0    0 -0.31416819327E+02 -0.13084846060E+02 -0.25389926237E+03  0.28507823556E+03  0.12508611123E+03 0.  0.
         23    2    1    2    0    0  0.31416819327E+02  0.13084846060E+02 -0.20663969497E+03  0.22899995096E+03  0.92643317447E+02 0.  0.
          5    1    3    3  502    0 -0.84661670820E+01  0.59684466925E+01  0.12625181378E+02  0.16857222363E+02  0.41800000000E+01 0.  1.
         -5    1    3    3    0  502 -0.22950652245E+02 -0.19053292752E+02 -0.26652444375E+03  0.26822101319E+03  0.41800000000E+01 0.  1.
        -11    1    4    4    0    0  0.57025702518E+01 -0.30805793879E+02 -0.24160358379E+02  0.39563103531E+02  0.00000000000E+00 0.  1.
         11    1    4    4    0    0  0.25714249075E+02  0.43890639939E+02 -0.18247933659E+03  0.18943684742E+03  0.00000000000E+00 0. -1.
</event>
<event>
 8    1  0.6443238E-009  0.1812658E+03  0.7561462E-02  0.1166584E+00
          2   -1    0    0  501    0  0.00000000000E+00  0.00000000000E+00  0.30076313063E+03  0.30076313063E+03  0.00000000000E+00 0. -1.
         -2   -1    0    0    0  501 -0.00000000000E+00 -0.00000000000E+00 -0.14379484057E+03  0.14379484057E+03  0.00000000000E+00 0.  1.
         25    2    1    2    0    0  0.14583210296E+03 -0.69908345852E+02  0.32122887953E+01  0.20448036405E+03  0.12509085263E+03 0.  0.
         23    2    1    2    0    0 -0.14583210296E+03  0.69908345852E+02  0.15375600126E+03  0.24007760715E+03  0.88556030056E+02 0.  0.
          5    1    3    3  502    0  0.13467828327E+03 -0.50206336876E+01  0.20237806152E+02  0.13634693962E+03  0.41800000000E+01 0. -1.
         -5    1    3    3    0  502  0.11153819690E+02 -0.64887712164E+02 -0.17025517357E+02  0.68133424432E+02  0.41800000000E+01 0. -1.
        -11    1    4    4    0    0 -0.52710043868E+02  0.25051460324E+02  0.45109435702E+01  0.58534374523E+02  0.00000000000E+00 0.  1.
         11    1    4    4    0    0 -0.93122059087E+02  0.44856885527E+02  0.14924505769E+03  0.18154323263E+03  0.00000000000E+00 0. -1.
</event>
<event>
 8    1  0.6443238E-009  0.1137954E+03  0.7561462E-02  0.1253699E+00
         -2   -1    0    0    0  501 -0.00000000000E+00  0.00000000000E+00  0.54303360841E+02  0.54303360841E+02  0.00000000000E+00 0.  1.
          2   -1    0    0  501    0  0.00000000000E+00 -0.00000000000E+00 -0.49904166829E+03  0.49904166829E+03  0.00000000000E+00 0. -1.
         25    2    1    2    0    0 -0.11122795295E+03  0.34988264584E+01 -0.32669056644E+03  0.36709371189E+03  0.12508863979E+03 0.  0.
         23    2    1    2    0    0  0.11122795295E+03 -0.34988264584E+01 -0.11804774101E+03  0.18625131724E+03  0.91489806600E+02 0.  0.
          5    1    3    3  502    0 -0.32142061660E+01 -0.57540565880E+01 -0.20060938722E+03  0.20076114895E+03  0.41800000000E+01 0.  1.
         -5    1    3    3    0  502 -0.10801374679E+03  0.92528830464E+01 -0.12608117922E+03  0.16633256294E+03  0.41800000000E+01 0.  1.
        -11    1    4    4    0    0  0.73833006152E+02 -0.15099343619E+01 -0.13333536388E+02  0.75042493907E+02  0.00000000000E+00 0.  1.
         11    1    4    4    0    0  0.37394946801E+02 -0.19888920965E+01 -0.10471420462E+03  0.11120882333E+03  0.00000000000E+00 0. -1.
</event>
<event>
 8    1  0.6443238E-009  0.1290934E+03  0.7561462E-02  0.1228807E+00
          1   -1    0    0  501    0  0.00000000000E+00  0.00000000000E+00  0.25148108411E+03  0.25148108411E+03  0.00000000000E+00 0. -1.
         -1   -1    0    0    0  501 -0.00000000000E+00 -0.00000000000E+00 -0.73577697703E+02  0.73577697703E+02  0.00000000000E+00 0.  1.
         25    2    1    2    0    0 -0.53945675172E+02 -0.47942095842E+02  0.14312652389E+03  0.20332571969E+03  0.12509023152E+03 0.  0.
         23    2    1    2    0    0  0.53945675172E+02  0.47942095842E+02  0.34776862511E+02  0.12173306212E+03  0.91656575450E+02 0.  0.
          5    1    3    3  502    0  0.37005517489E+02  0.61552377719E+01  0.47175399030E+02  0.60417596363E+02  0.41800000000E+01 0. -1.
         -5    1    3    3    0  502 -0.90951192661E+02 -0.54097333614E+02  0.95951124862E+02  0.14290812333E+03  0.41800000000E+01 0. -1.
        -11    1    4    4    0    0  0.42120947079E+02  0.74432875780E+02  0.35776125536E+02  0.92705762162E+02  0.00000000000E+00 0. -1.
         11    1    4    4    0    0  0.11824728093E+02 -0.26490779938E+02 -0.99926302563E+00  0.29027299957E+02  0.00000000000E+00 0.  1.
</event>
<event>
 8    1  0.6443238E-009  0.1442337E+03  0.7561462E-02  0.1207743E+00
          2   -1    0    0  501    0  0.00000000000E+00  0.00000000000E+00  0.19916893222E+03  0.19916893222E+03  0.00000000000E+00 0. -1.
         -2   -1    0    0    0  501 -0.00000000000E+00 -0.00000000000E+00 -0.12032788835E+03  0.12032788835E+03  0.00000000000E+00 0.  1.
         25    2    1    2    0    0  0.64031934027E+02 -0.86794918050E+02  0.61681182774E+02  0.17631109222E+03  0.12509031359E+03 0.  0.
         23    2    1    2    0    0 -0.64031934027E+02  0.86794918050E+02  0.17159861104E+02  0.14318572836E+03  0.92597222406E+02 0.  0.
          5    1    3    3  502    0 -0.11208348561E+01  0.22252792961E+02 -0.15640360791E+02  0.27541538646E+02  0.41800000000E+01 0. -1.
         -5    1    3    3    0  502  0.65152768883E+02 -0.10904771101E+03  0.77321543565E+02  0.14876955357E+03  0.41800000000E+01 0. -1.
        -11    1    4    4    0    0 -0.63996095295E+01 -0.17999695623E+02 -0.84316804577E+01  0.20881505693E+02  0.00000000000E+00 0. -1.
         11    1    4    4    0    0 -0.57632324497E+02  0.10479461367E+03  0.25591541561E+02  0.12230422266E+03  0.00000000000E+00 0.  1.
</event>
<event>
 8    1  0.6443238E-009  0.1118710E+03  0.7561462E-02  0.1257144E+00
          4   -1    0    0  501    0  0.00000000000E+00  0.00000000000E+00  0.34054276613E+02  0.34054276613E+02  0.00000000000E+00 0. -1.
         -4   -1    0    0    0  501 -0.00000000000E+00 -0.00000000000E+00 -0.37788427702E+03  0.37788427702E+03  0.00000000000E+00 0.  1.
         25    2    1    2    0    0 -0.35236621589E+02  0.14341915154E+02 -0.18174377740E+03  0.22388717906E+03  0.12508940121E+03 0.  0.
         23    2    1    2    0    0  0.35236621589E+02 -0.14341915154E+02 -0.16208622301E+03  0.18805137458E+03  0.87430348034E+02 0.  0.
          5    1    3    3  502    0 -0.80977513599E+02  0.21849262123E+02 -0.12317872860E+03  0.14908125148E+03  0.41800000000E+01 0.  1.
         -5    1    3    3    0  502  0.45740892010E+02 -0.75073469688E+01 -0.58565048801E+02  0.74805927582E+02  0.41800000000E+01 0.  1.
        -11    1    4    4    0    0 -0.27505488615E+02  0.41412576272E+01 -0.67945248346E+02  0.73418381156E+02  0.00000000000E+00 0. -1.
         11    1    4    4    0    0  0.62742110204E+02 -0.18483172781E+02 -0.94140974668E+02  0.11463299342E+03  0.00000000000E+00 0.  1.
</event>
<event>
 8    1  0.6443238E-009  0.9875989E+02  0.7561462E-02  0.1282926E+00
          1   -1    0    0  501    0  0.00000000000E+00  0.00000000000E+00  0.70654869967E+02  0.70654869967E+02  0.00000000000E+00 0. -1.
         -1   -1    0    0    0  501 -0.00000000000E+00 -0.00000000000E+00 -0.19516529632E+03  0.19516529632E+03  0.00000000000E+00 0.  1.
         25    2    1    2    0    0  0.41518482192E+02  0.30989967122E+01 -0.95380346812E+02  0.16272516442E+03  0.12509468588E+03 0.  0.
         23    2    1    2    0    0 -0.41518482192E+02 -0.30989967122E+01 -0.29130079539E+02  0.10309500186E+03  0.89703008481E+02 0.  0.
          5    1    3    3  502    0  0.72219703240E+02 -0.14657766467E+01 -0.11596203629E+02  0.73278771660E+02  0.41800000000E+01 0. -1.
         -5    1    3    3    0  502 -0.30701221049E+02  0.45647733590E+01 -0.83784143183E+02  0.89446392765E+02  0.41800000000E+01 0. -1.
        -11    1    4    4    0    0 -0.32558314696E+02  0.38999716341E+02  0.55941279917E+00  0.50806836875E+02  0.00000000000E+00 0.  1.
         11    1    4    4    0    0 -0.89601674952E+01 -0.42098713053E+02 -0.29689492338E+02  0.52288164986E+02  0.00000000000E+00 0. -1.
</event>
<event>
 8    1  0.6443238E-009  0.1185952E+03  0.7561462E-02  0.1245433E+00
          1   -1    0    0  501    0  0.00000000000E+00  0.00000000000E+00  0.73546044259E+03  0.73546044259E+03  0.00000000000E+00 0. -1.
         -1   -1    0    0    0  501 -0.00000000000E+00 -0.00000000000E+00 -0.23926278005E+02  0.23926278005E+02  0.00000000000E+00 0.  1.
         25    2    1    2    0    0  0.51316197885E+02  0.36588582520E+02  0.26651070517E+03  0.30106881805E+03  0.12506958342E+03 0.  0.
         23    2    1    2    0    0 -0.51316197885E+02 -0.36588582520E+02  0.44502345942E+03  0.45831790254E+03  0.89651234366E+02 0.  0.
          5    1    3    3  502    0  0.24859456281E+02  0.77460409559E+02  0.21571838499E+03  0.23058621303E+03  0.41800000000E+01 0. -1.
         -5    1    3    3    0  502  0.26456741605E+02 -0.40871827039E+02  0.50792320175E+02  0.70482605021E+02  0.41800000000E+01 0. -1.
        -11    1    4    4    0    0 -0.56465295257E+02 -0.60294497404E+02  0.38101078278E+03  0.38986276122E+03  0.00000000000E+00 0.  1.
         11    1    4    4    0    0  0.51490973719E+01  0.23705914884E+02  0.64012676635E+02  0.68455141328E+02  0.00000000000E+00 0. -1.
</event>
<event>
 8    1  0.6443238E-009  0.1350959E+03  0.7561462E-02  0.1220084E+00
          1   -1    0    0  501    0  0.00000000000E+00  0.00000000000E+00  0.10929104345E+04  0.10929104345E+04  0.00000000000E+00 0. -1.
         -1   -1    0    0    0  501 -0.00000000000E+00 -0.00000000000E+00 -0.23680632914E+02  0.23680632914E+02  0.00000000000E+00 0.  1.
         25    2    1    2    0    0 -0.50331922615E+02  0.10788007707E+03  0.61384325988E+03  0.63766957853E+03  0.12509008840E+03 0.  0.
         23    2    1    2    0    0  0.50331922615E+02 -0.10788007707E+03  0.45538654174E+03  0.47892148892E+03  0.88416495572E+02 0.  0.
          5    1    3    3  502    0 -0.54309772225E+02  0.28517662634E+02  0.46356615516E+03  0.46762577031E+03  0.41800000000E+01 0. -1.
         -5    1    3    3    0  502  0.39778496101E+01  0.79362414436E+02  0.15027710472E+03  0.17004380822E+03  0.41800000000E+01 0. -1.
        -11    1    4    4    0    0  0.23912132481E+02 -0.98086758641E+02  0.42756937444E+03  0.43932718133E+03  0.00000000000E+00 0. -1.
         11    1    4    4    0    0  0.26419790134E+02 -0.97933184291E+01  0.27817167298E+02  0.39594307584E+02  0.00000000000E+00 0.  1.
</event>
<event>
 8    1  0.6443238E-009  0.1191652E+03  0.7561462E-02  0.1244481E+00
         -1   -1    0    0    0  501 -0.00000000000E+00  0.00000000000E+00  0.31717882174E+02  0.31717882174E+02  0.00000000000E+00 0.  1.
          1   -1    0    0  501    0  0.00000000000E+00 -0.00000000000E+00 -0.72178525432E+03  0.72178525432E+03  0.00000000000E+00 0. -1.
         25    2    1    2    0    0  0.61434047142E+02  0.63587900985E+02 -0.23459287540E+03  0.28017645579E+03  0.12508983127E+03 0.  0.
         23    2    1    2    0    0 -0.61434047142E+02 -0.63587900985E+02 -0.45547449675E+03  0.47332668071E+03  0.93613920902E+02 0.  0.
          5    1    3    3  502    0  0.76546736132E+02  0.17593338798E+02 -0.21289261379E+03  0.22695740963E+03  0.41800000000E+01 0. -1.
         -5    1    3    3    0  502 -0.15112688989E+02  0.45994562187E+02 -0.21700261618E+02  0.53219046154E+02  0.41800000000E+01 0. -1.
        -11    1    4    4    0    0 -0.25089619594E+02 -0.69835218016E+02 -0.39924873666E+03  0.40608619826E+03  0.00000000000E+00 0. -1.
         11    1    4    4    0    0 -0.36344427548E+02  0.62473170307E+01 -0.56225760084E+02  0.67240482456E+02  0.00000000000E+00 0.  1.
</event>
<event>
 8    1  0.6443238E-009  0.8467245E+02  0.7561462E-02  0.1316291E+00
         -3   -1    0    0    0  501 -0.00000000000E+00  0.00000000000E+00  0.20073339440E+03  0.20073339440E+03  0.00000000000E+00 0.  1.
          3   -1    0    0  501    0  0.00000000000E+00 -0.00000000000E+00 -0.61809372521E+02  0.61809372521E+02  0.00000000000E+00 0. -1.
         25    2    1    2    0    0  0.53025031355E+01 -0.21409574674E+02  0.10106113600E+03  0.16232179470E+03  0.12509406619E+03 0.  0.
         23    2    1    2    0    0 -0.53025031355E+01  0.21409574674E+02  0.37862885878E+02  0.10022097222E+03  0.90134115178E+02 0.  0.
          5    1    3    3  502    0 -0.30409357104E+02 -0.37048823389E+02  0.11176205745E+03  0.12167815827E+03  0.41800000000E+01 0.  1.
         -5    1    3    3    0  502  0.35711860239E+02  0.15639248715E+02 -0.10700921452E+02  0.40643636427E+02  0.41800000000E+01 0.  1.
        -11    1    4    4    0    0  0.29119101627E+02  0.34544546863E+02  0.43773146235E+02  0.62907361484E+02  0.00000000000E+00 0.  1.
         11    1    4    4    0    0 -0.34421604763E+02 -0.13134972189E+02 -0.59102603569E+01  0.37313610739E+02  0.00000000000E+00 0. -1.
</event>
<event>
 8    1  0.6443238E-009  0.8849589E+02  0.7561462E-02  0.1306536E+00
          2   -1    0    0  501    0  0.00000000000E+00  0.00000000000E+00  0.34822223198E+03  0.34822223198E+03  0.00000000000E+00 0. -1.
         -2   -1    0    0    0  501 -0.00000000000E+00 -0.00000000000E+00 -0.45169603287E+02  0.45169603287E+02  0.00000000000E+00 0.  1.
         25    2    1    2    0    0 -0.27404406980E+02  0.53723525067E+02  0.19109471131E+03  0.23622313635E+03  0.12508782031E+03 0.  0.
         23    2    1    2    0    0  0.27404406980E+02 -0.53723525067E+02  0.11195791738E+03  0.15716869891E+03  0.92359114253E+02 0.  0.
          5    1    3    3  502    0  0.33307467100E+01  0.53332909720E+02  0.19741772940E+03  0.20456472183E+03  0.41800000000E+01 0. -1.
         -5    1    3    3    0  502 -0.30735153690E+02  0.39061534686E+00 -0.63230180916E+01  0.31658414529E+02  0.41800000000E+01 0. -1.
        -11    1    4    4    0    0  0.74226189174E+01  0.17175177902E+02 -0.46169032058E+01  0.19271683963E+02  0.00000000000E+00 0.  1.
         11    1    4    4    0    0  0.19981788062E+02 -0.70898702969E+02  0.11657482058E+03  0.13789701495E+03  0.00000000000E+00 0. -1.
</event>
<event>
 8    1  0.6443238E-009  0.1272963E+03  0.7561462E-02  0.1231524E+00
          1   -1    0    0  501    0  0.00000000000E+00  0.00000000000E+00  0.33974161369E+03  0.33974161369E+03  0.00000000000E+00 0. -1.
         -1   -1    0    0    0  501 -0.00000000000E+00 -0.00000000000E+00 -0.72002409290E+02  0.72002409290E+02  0.00000000000E+00 0.  1.
         25    2    1    2    0    0  0.80636236326E+01  0.10292232844E+03  0.19942594878E+03  0.25705343393E+03  0.12509089148E+03 0.  0.
         23    2    1    2    0    0 -0.80636236326E+01 -0.10292232844E+03  0.68313255624E+02  0.15469058905E+03  0.92760173188E+02 0.  0.
          5    1    3    3  502    0 -0.13300015425E+02  0.90204485738E+02  0.21056036821E+03  0.22949265940E+03  0.41800000000E+01 0. -1.
         -5    1    3    3    0  502  0.21363639058E+02  0.12717842704E+02 -0.11134419428E+02  0.27560774532E+02  0.41800000000E+01 0. -1.
        -11    1    4    4    0    0  0.38929825618E+02 -0.72001387204E+02  0.47961338677E+02  0.94868440957E+02  0.00000000000E+00 0.  1.
         11    1    4    4    0    0 -0.46993449250E+02 -0.30920941239E+02  0.20351916947E+02  0.59822148097E+02  0.00000000000E+00 0. -1.
</event>
<event>
 8    1  0.6443238E-009  0.2222108E+03  0.7561462E-02  0.1132245E+00
         -2   -1    0    0    0  501 -0.00000000000E+00  0.00000000000E+00  0.10734954405E+03  0.10734954405E+03  0.00000000000E+00 0. -1.
          2   -1    0    0  501    0  0.00000000000E+00 -0.00000000000E+00 -0.59033272920E+03  0.59033272920E+03  0.00000000000E+00 0.  1.
         25    2    1    2    0    0 -0.11466531357E+03 -0.16774148026E+03 -0.38807142169E+03  0.45555753526E+03  0.12509157153E+03 0.  0.
         23    2    1    2    0    0  0.11466531357E+03  0.16774148026E+03 -0.94911763471E+02  0.24212473799E+03  0.91273257667E+02 0.  0.
          5    1    3    3  502    0 -0.26236808685E+02  0.64167822451E+01 -0.84396054694E+01  0.28604974477E+02  0.41800000000E+01 0.  1.
         -5    1    3    3    0  502 -0.88428504888E+02 -0.17415826250E+03 -0.37963181622E+03  0.42695256078E+03  0.41800000000E+01 0.  1.
        -11    1    4    4    0    0  0.11160087098E+03  0.88526371451E+02 -0.71970017482E+02  0.15959748200E+03  0.00000000000E+00 0.  1.
         11    1    4    4    0    0  0.30644425961E+01  0.79215108806E+02 -0.22941745989E+02  0.82527255986E+02  0.00000000000E+00 0. -1.
</event>
<event>
 8    1  0.6443238E-009  0.2496687E+03  0.7561462E-02  0.1113514E+00
         -1   -1    0    0    0  501 -0.00000000000E+00  0.00000000000E+00  0.73771353534E+03  0.73771353534E+03  0.00000000000E+00 0.  1.
          1   -1    0    0  501    0  0.00000000000E+00 -0.00000000000E+00 -0.12500175391E+03  0.12500175391E+03  0.00000000000E+00 0. -1.
         25    2    1    2    0    0 -0.49477894499E+02  0.21938642113E+03  0.67640750820E+02  0.26608427444E+03  0.12508839320E+03 0.  0.
         23    2    1    2    0    0  0.49477894499E+02 -0.21938642113E+03  0.54507103060E+03  0.59663101481E+03  0.91036671758E+02 0.  0.
          5    1    3    3  502    0 -0.25581725273E+02 -0.89386711733E+01  0.32149865481E+01  0.27606757303E+02  0.41800000000E+01 0.  1.
         -5    1    3    3    0  502 -0.23896169226E+02  0.22832509230E+03  0.64425764272E+02  0.23847751714E+03  0.41800000000E+01 0.  1.
        -11    1    4    4    0    0  0.41164165152E+02 -0.25880566929E+02  0.12198585886E+03  0.13131961772E+03  0.00000000000E+00 0.  1.
         11    1    4    4    0    0  0.83137293477E+01 -0.19350585420E+03  0.42308517175E+03  0.46531139709E+03  0.00000000000E+00 0. -1.
</event>
<event>
 8    1  0.6443238E-009  0.1511375E+03  0.7561462E-02  0.1199082E+00
         -1   -1    0    0    0  501 -0.00000000000E+00  0.00000000000E+00  0.31175406510E+02  0.31175406510E+02  0.00000000000E+00 0.  1.
          1   -1    0    0  501    0  0.00000000000E+00 -0.00000000000E+00 -0.96063670553E+03  0.96063670553E+03  0.00000000000E+00 0. -1.
         25    2    1    2    0    0  0.60652059278E+02  0.87487064528E+02 -0.72697253513E+03  0.74530050823E+03  0.12510444430E+03 0.  0.
         23    2    1    2    0    0 -0.60652059278E+02 -0.87487064528E+02 -0.20248876389E+03  0.24651160380E+03  0.91834702347E+02 0.  0.
          5    1    3    3  502    0  0.11770812313E+02  0.10889600077E+03 -0.52774118503E+03  0.53900382353E+03  0.41800000000E+01 0. -1.
         -5    1    3    3    0  502  0.48881246965E+02 -0.21408936238E+02 -0.19923135010E+03  0.20629668470E+03  0.41800000000E+01 0. -1.
        -11    1    4    4    0    0 -0.52789292020E+02 -0.10633375622E+03 -0.15865076162E+03  0.19815055192E+03  0.00000000000E+00 0.  1.
         11    1    4    4    0    0 -0.78627672586E+01  0.18846691690E+02 -0.43838002270E+02  0.48361051888E+02  0.00000000000E+00 0. -1.
</event>
<event>
 8    1  0.6443238E-009  0.1001712E+03  0.7561462E-02  0.1279936E+00
          1   -1    0    0  501    0  0.00000000000E+00  0.00000000000E+00  0.64104115881E+02  0.64104115881E+02  0.00000000000E+00 0. -1.
         -1   -1    0    0    0  501 -0.00000000000E+00 -0.00000000000E+00 -0.21506957004E+03  0.21506957004E+03  0.00000000000E+00 0.  1.
         25    2    1    2    0    0  0.19939672976E+02  0.20283147167E+02 -0.27481868591E+02  0.13119311380E+03  0.12508950152E+03 0.  0.
         23    2    1    2    0    0 -0.19939672976E+02 -0.20283147167E+02 -0.12348358557E+03  0.14798057212E+03  0.76426809452E+02 0.  0.
          5    1    3    3  502    0  0.62506852319E+02 -0.13821812906E+02  0.99329460134E+01  0.64917523947E+02  0.41800000000E+01 0.  1.
         -5    1    3    3    0  502 -0.42567179343E+02  0.34104960074E+02 -0.37414814604E+02  0.66275589855E+02  0.41800000000E+01 0.  1.
        -11    1    4    4    0    0  0.18361507647E+02  0.19137495270E+02 -0.42950939659E+02  0.50479420618E+02  0.00000000000E+00 0.  1.
         11    1    4    4    0    0 -0.38301180623E+02 -0.39420642437E+02 -0.80532645913E+02  0.97501151506E+02  0.00000000000E+00 0. -1.
</event>
<event>
 8    1  0.6443238E-009  0.9091312E+02  0.7561462E-02  0.1300655E+00
         -2   -1    0    0    0  501 -0.00000000000E+00  0.00000000000E+00  0.16162888459E+02  0.16162888459E+02  0.00000000000E+00 0.  1.
          2   -1    0    0  501    0  0.00000000000E+00 -0.00000000000E+00 -0.16033461705E+04  0.16033461705E+04  0.00000000000E+00 0. -1.
         25    2    1    2    0    0 -0.17323752179E+02  0.35480401903E+01 -0.14367810384E+04  0.14423216930E+04  0.12505763805E+03 0.  0.
         23    2    1    2    0    0  0.17323752179E+02 -0.35480401903E+01 -0.15040224360E+03  0.17718736591E+03  0.91988188263E+02 0.  0.
          5    1    3    3  502    0  0.23808571848E+02 -0.49408232874E+02 -0.83306017190E+03  0.83487408869E+03  0.41800000000E+01 0. -1.
         -5    1    3    3    0  502 -0.41132324028E+02  0.52956273065E+02 -0.60372086650E+03  0.60744760432E+03  0.41800000000E+01 0. -1.
        -11    1    4    4    0    0  0.20071927548E+02  0.24377257991E+02 -0.87285505617E+01  0.32761571659E+02  0.00000000000E+00 0.  1.
         11    1    4    4    0    0 -0.27481753690E+01 -0.27925298181E+02 -0.14167369304E+03  0.14442579425E+03  0.00000000000E+00 0. -1.
</event>
<event>
 8    1  0.6443238E-009  0.4158683E+02  0.7561462E-02  0.1496849E+00
         -1   -1    0    0    0  501 -0.00000000000E+00  0.00000000000E+00  0.16568844954E+03  0.16568844954E+03  0.00000000000E+00 0.  1.
          1   -1    0    0  501    0  0.00000000000E+00 -0.00000000000E+00 -0.12307288045E+03  0.12307288045E+03  0.00000000000E+00 0. -1.
         25    2    1    2    0    0  0.14121615809E+02  0.37268734909E+02  0.11339380551E+03  0.17347538957E+03  0.12508867664E+03 0.  0.
         23    2    1    2    0    0 -0.14121615809E+02 -0.37268734909E+02 -0.70778236415E+02  0.11528594042E+03  0.81810211309E+02 0.  0.
          5    1    3    3  502    0  0.78816371656E+01  0.31260154371E+02 -0.21023728208E+02  0.38714170577E+02  0.41800000000E+01 0.  1.
         -5    1    3    3    0  502  0.62399786435E+01  0.60085805385E+01  0.13441753372E+03  0.13476121899E+03  0.41800000000E+01 0.  1.
        -11    1    4    4    0    0 -0.90448004421E+01 -0.10760181199E+02  0.17803363434E+02  0.22683687179E+02  0.00000000000E+00 0.  1.
         11    1    4    4    0    0 -0.50768153670E+01 -0.26508553710E+02 -0.88581599849E+02  0.92602253244E+02  0.00000000000E+00 0. -1.
</event>
<event>
 8    1  0.6443238E-009  0.1022202E+03  0.7561462E-02  0.1275695E+00
          1   -1    0    0  501    0  0.00000000000E+00  0.00000000000E+00  0.51415003547E+03  0.51415003547E+03  0.00000000000E+00 0. -1.
         -1   -1    0    0    0  501 -0.00000000000E+00 -0.00000000000E+00 -0.36675314799E+02  0.36675314799E+02  0.00000000000E+00 0.  1.
         25    2    1    2    0    0 -0.52557218588E+02 -0.38137311889E+02  0.35822656237E+03  0.38495675850E+03  0.12509484457E+03 0.  0.
         23    2    1    2    0    0  0.52557218588E+02  0.38137311889E+02  0.11924815829E+03  0.16586859177E+03  0.95265684772E+02 0.  0.
          5    1    3    3  502    0  0.16009931987E+02  0.34751286042E+02  0.13314136791E+03  0.13859316741E+03  0.41800000000E+01 0.  1.
         -5    1    3    3    0  502 -0.68567150575E+02 -0.72888597931E+02  0.22508519446E+03  0.24636359109E+03  0.41800000000E+01 0.  1.
        -11    1    4    4    0    0  0.12981362926E+02  0.41582726199E+01 -0.15935731575E+02  0.20970325592E+02  0.00000000000E+00 0.  1.
         11    1    4    4    0    0  0.39575855662E+02  0.33979039269E+02  0.13518388987E+03  0.14489826618E+03  0.00000000000E+00 0. -1.
</event>
<event>
 8    1  0.6443238E-009  0.8706591E+02  0.7561462E-02  0.1310117E+00
         -4   -1    0    0    0  501 -0.00000000000E+00  0.00000000000E+00  0.59528412219E+02  0.59528412219E+02  0.00000000000E+00 0.  1.
          4   -1    0    0  501    0  0.00000000000E+00 -0.00000000000E+00 -0.35481889828E+03  0.35481889828E+03  0.00000000000E+00 0. -1.
         25    2    1    2    0    0  0.25988298283E+02 -0.57146154663E+02 -0.57553506018E+02  0.15133450594E+03  0.12509457219E+03 0.  0.
         23    2    1    2    0    0 -0.25988298283E+02  0.57146154663E+02 -0.23773698005E+03  0.26301280457E+03  0.93358390322E+02 0.  0.
          5    1    3    3  502    0  0.20654497553E+02 -0.68740049845E+02 -0.90601116150E+02  0.11566260143E+03  0.41800000000E+01 0. -1.
         -5    1    3    3    0  502  0.53338007304E+01  0.11593895183E+02  0.33047610132E+02  0.35671904507E+02  0.41800000000E+01 0. -1.
        -11    1    4    4    0    0 -0.19455175815E+02 -0.96313871186E+01 -0.71400823671E+01  0.22852751695E+02  0.00000000000E+00 0.  1.
         11    1    4    4    0    0 -0.65331224684E+01  0.66777541781E+02 -0.23059689768E+03  0.24016005287E+03  0.00000000000E+00 0. -1.
</event>
<event>
 8    1  0.6443238E-009  0.1309834E+03  0.7561462E-02  0.1226004E+00
          2   -1    0    0  501    0  0.00000000000E+00  0.00000000000E+00  0.54848853009E+03  0.54848853009E+03  0.00000000000E+00 0. -1.
         -2   -1    0    0    0  501 -0.00000000000E+00 -0.00000000000E+00 -0.51004444449E+02  0.51004444449E+02  0.00000000000E+00 0.  1.
         25    2    1    2    0    0  0.65394267332E+02  0.56519374699E+02  0.43196210731E+03  0.45794095258E+03  0.12509118265E+03 0.  0.
         23    2    1    2    0    0 -0.65394267332E+02 -0.56519374699E+02  0.65521978326E+02  0.14155202196E+03  0.90956007832E+02 0.  0.
          5    1    3    3  502    0 -0.82358308822E+01 -0.32225997186E+02  0.63106417279E+02  0.71457932427E+02  0.41800000000E+01 0.  1.
         -5    1    3    3    0  502  0.73630098214E+02  0.88745371885E+02  0.36885569003E+03  0.38648302015E+03  0.41800000000E+01 0.  1.
        -11    1    4    4    0    0 -0.80619555166E+02 -0.38134840017E+02  0.74340542887E+02  0.11610467267E+03  0.00000000000E+00 0. -1.
         11    1    4    4    0    0  0.15225287834E+02 -0.18384534682E+02 -0.88185645610E+01  0.25447349293E+02  0.00000000000E+00 0.  1.
</event>
<event>
 8    1  0.6443238E-009  0.1198552E+03  0.7561462E-02  0.1243336E+00
          3   -1    0    0  501    0  0.00000000000E+00  0.00000000000E+00  0.60318354849E+02  0.60318354849E+02  0.00000000000E+00 0. -1.
         -3   -1    0    0    0  501 -0.00000000000E+00 -0.00000000000E+00 -0.38151898633E+03  0.38151898633E+03  0.00000000000E+00 0.  1.
         25    2    1    2    0    0 -0.56506292232E+02 -0.10964647446E+02 -0.45989118215E+02  0.14517407732E+03  0.12508928481E+03 0.  0.
         23    2    1    2    0    0  0.56506292232E+02  0.10964647446E+02 -0.27521151326E+03  0.29666326386E+03  0.94628381241E+02 0.  0.
          5    1    3    3  502    0 -0.91253793431E+02  0.38643736921E+01 -0.54198005974E+02  0.10628774365E+03  0.41800000000E+01 0. -1.
         -5    1    3    3    0  502  0.34747501198E+02 -0.14829021138E+02  0.82088877588E+01  0.38886333662E+02  0.41800000000E+01 0. -1.
        -11    1    4    4    0    0  0.21394916346E+02  0.52019690715E+02 -0.12641612644E+03  0.13836483546E+03  0.00000000000E+00 0.  1.
         11    1    4    4    0    0  0.35111375886E+02 -0.41055043269E+02 -0.14879538682E+03  0.15829842840E+03  0.00000000000E+00 0. -1.
</event>
<event>
 8    1  0.6443238E-009  0.1933279E+03  0.7561462E-02  0.1155494E+00
         -2   -1    0    0    0  501 -0.00000000000E+00  0.00000000000E+00  0.10487000794E+04  0.10487000794E+04  0.00000000000E+00 0. -1.
          2   -1    0    0  501    0  0.00000000000E+00 -0.00000000000E+00 -0.39528057169E+02  0.39528057169E+02  0.00000000000E+00 0.  1.
         25    2    1    2    0    0  0.55816622181E+02  0.15736951631E+03  0.63888803596E+03  0.67209070708E+03  0.12508931240E+03 0.  0.
         23    2    1    2    0    0 -0.55816622181E+02 -0.15736951631E+03  0.37028398632E+03  0.41613742954E+03  0.90440421059E+02 0.  0.
          5    1    3    3  502    0  0.75888825683E+02  0.16039536790E+03  0.61667973933E+03  0.64171423641E+03  0.41800000000E+01 0. -1.
         -5    1    3    3    0  502 -0.20072203502E+02 -0.30258515946E+01  0.22208296624E+02  0.30376470668E+02  0.41800000000E+01 0. -1.
        -11    1    4    4    0    0 -0.27631794866E+02  0.93286452209E+00  0.37991327611E+02  0.46986458659E+02  0.00000000000E+00 0.  1.
         11    1    4    4    0    0 -0.28184827316E+02 -0.15830238083E+03  0.33229265871E+03  0.36915097088E+03  0.00000000000E+00 0. -1.
</event>
<event>
 8    1  0.6443238E-009  0.1414394E+03  0.7561462E-02  0.1211405E+00
         -1   -1    0    0    0  501 -0.00000000000E+00  0.00000000000E+00  0.66335924667E+03  0.66335924667E+03  0.00000000000E+00 0.  1.
          1   -1    0    0  501    0  0.00000000000E+00 -0.00000000000E+00 -0.43400709190E+02  0.43400709190E+02  0.00000000000E+00 0. -1.
         25    2    1    2    0    0 -0.61110430727E+02 -0.77018569702E+02  0.50676936087E+03  0.53115834647E+03  0.12509060351E+03 0.  0.
         23    2    1    2    0    0  0.61110430727E+02  0.77018569702E+02  0.11318917661E+03  0.17560160939E+03  0.91420953270E+02 0.  0.
          5    1    3    3  502    0  0.25804499511E+02 -0.65878637467E+02  0.24761007031E+03  0.25755404557E+03  0.41800000000E+01 0. -1.
         -5    1    3    3    0  502 -0.86914930238E+02 -0.11139932235E+02  0.25915929056E+03  0.27360430090E+03  0.41800000000E+01 0. -1.
        -11    1    4    4    0    0  0.13684745312E+02 -0.15277240310E+02 -0.19497610223E+01  0.20602618615E+02  0.00000000000E+00 0. -1.
         11    1    4    4    0    0  0.47425685415E+02  0.92295810012E+02  0.11513893764E+03  0.15499899078E+03  0.00000000000E+00 0.  1.
</event>
<event>
 8    1  0.6443238E-009  0.8713017E+02  0.7561462E-02  0.1309954E+00
         -1   -1    0    0    0  501 -0.00000000000E+00  0.00000000000E+00  0.43948441311E+03  0.43948441311E+03  0.00000000000E+00 0.  1.
          1   -1    0    0  501    0  0.00000000000E+00 -0.00000000000E+00 -0.30232556662E+02  0.30232556662E+02  0.00000000000E+00 0. -1.
         25    2    1    2    0    0 -0.14486981657E+02  0.19759866611E+02  0.17292283398E+03  0.21482503482E+03  0.12508862502E+03 0.  0.
         23    2    1    2    0    0  0.14486981657E+02 -0.19759866611E+02  0.23632902247E+03  0.25489193495E+03  0.92293914609E+02 0.  0.
          5    1    3    3  502    0 -0.47028406362E+02 -0.16975297061E+02  0.19736083447E+02  0.53914906149E+02  0.41800000000E+01 0.  1.
         -5    1    3    3    0  502  0.32541424704E+02  0.36735163672E+02  0.15318675053E+03  0.16091012868E+03  0.41800000000E+01 0.  1.
        -11    1    4    4    0    0 -0.88405315986E+01 -0.41810179172E+02  0.20715020823E+03  0.21151230425E+03  0.00000000000E+00 0.  1.
         11    1    4    4    0    0  0.23327513256E+02  0.22050312561E+02  0.29178814244E+02  0.43379630697E+02  0.00000000000E+00 0. -1.
</event>
<event>
 8    1  0.6443238E-009  0.1266978E+03  0.7561462E-02  0.1232440E+00
          2   -1    0    0  501    0  0.00000000000E+00  0.00000000000E+00  0.11144179392E+04  0.11144179392E+04  0.00000000000E+00 0. -1.
         -2   -1    0    0    0  501 -0.00000000000E+00 -0.00000000000E+00 -0.19759916679E+02  0.19759916679E+02  0.00000000000E+00 0.  1.
         25    2    1    2    0    0 -0.14111931864E+02  0.84135715092E+02  0.82669100200E+03  0.84044046061E+03  0.12507673597E+03 0.  0.
         23    2    1    2    0    0  0.14111931864E+02 -0.84135715092E+02  0.26796702052E+03  0.29373739526E+03  0.84837303780E+02 0.  0.
          5    1    3    3  502    0 -0.53897667374E+02  0.19634821750E+02  0.17192986911E+03  0.18129488979E+03  0.41800000000E+01 0. -1.
         -5    1    3    3    0  502  0.39785735509E+02  0.64500893342E+02  0.65476113289E+03  0.65914557082E+03  0.41800000000E+01 0. -1.
        -11    1    4    4    0    0  0.41858530705E+02 -0.13324851704E+02  0.87795323374E+02  0.98171824227E+02  0.00000000000E+00 0.  1.
         11    1    4    4    0    0 -0.27746598840E+02 -0.70810863389E+02  0.18017169714E+03  0.19556557103E+03  0.00000000000E+00 0. -1.
</event>
<event>
 8    1  0.6443238E-009  0.1716952E+03  0.7561462E-02  0.1176091E+00
          1   -1    0    0  501    0  0.00000000000E+00  0.00000000000E+00  0.74658940549E+03  0.74658940549E+03  0.00000000000E+00 0. -1.
         -1   -1    0    0    0  501 -0.00000000000E+00 -0.00000000000E+00 -0.53766948400E+02  0.53766948400E+02  0.00000000000E+00 0.  1.
         25    2    1    2    0    0 -0.13757564395E+03 -0.70207823205E+02  0.49217492010E+03  0.53079236843E+03  0.12509272623E+03 0.  0.
         23    2    1    2    0    0  0.13757564395E+03  0.70207823205E+02  0.20064753699E+03  0.26956398547E+03  0.92461407683E+02 0.  0.
          5    1    3    3  502    0 -0.46126109083E+02  0.27054845054E+02  0.23450255155E+03  0.24055872810E+03  0.41800000000E+01 0. -1.
         -5    1    3    3    0  502 -0.91449534872E+02 -0.97262668259E+02  0.25767236855E+03  0.29023364033E+03  0.41800000000E+01 0. -1.
        -11    1    4    4    0    0  0.91809849758E+02  0.34281712266E+02  0.54219557118E+02  0.11200019948E+03  0.00000000000E+00 0.  1.
         11    1    4    4    0    0  0.45765794196E+02  0.35926110939E+02  0.14642797988E+03  0.15756378599E+03  0.00000000000E+00 0. -1.
</event>
<event>
 8    1  0.6443238E-009  0.1135172E+03  0.7561462E-02  0.1254192E+00
          1   -1    0    0  501    0  0.00000000000E+00  0.00000000000E+00  0.21495009811E+02  0.21495009811E+02  0.00000000000E+00 0. -1.
         -1   -1    0    0    0  501 -0.00000000000E+00 -0.00000000000E+00 -0.10541364388E+04  0.10541364388E+04  0.00000000000E+00 0.  1.
         25    2    1    2    0    0  0.92773705684E+02 -0.26383623194E+02 -0.69034384000E+03  0.70818532144E+03  0.12509506804E+03 0.  0.
         23    2    1    2    0    0 -0.92773705684E+02  0.26383623194E+02 -0.34229758900E+03  0.36744612718E+03  0.92444366522E+02 0.  0.
          5    1    3    3  502    0  0.73819833917E+02 -0.33022574436E+02 -0.68073248564E+03  0.68553194507E+03  0.41800000000E+01 0.  1.
         -5    1    3    3    0  502  0.18953871767E+02  0.66389512420E+01 -0.96113543521E+01  0.22653376372E+02  0.41800000000E+01 0.  1.
        -11    1    4    4    0    0 -0.10874225695E+02  0.40940946941E+02 -0.18183627949E+03  0.18670522880E+03  0.00000000000E+00 0.  1.
         11    1    4    4    0    0 -0.81899479989E+02 -0.14557323748E+02 -0.16046130951E+03  0.18074089837E+03  0.00000000000E+00 0. -1.
</event>
<event>
 8    1  0.6443238E-009  0.9949611E+02  0.7561462E-02  0.1281359E+00
         -2   -1    0    0    0  501 -0.00000000000E+00  0.00000000000E+00  0.36997581712E+02  0.36997581712E+02  0.00000000000E+00 0.  1.
          2   -1    0    0  501    0  0.00000000000E+00 -0.00000000000E+00 -0.39651096738E+03  0.39651096738E+03  0.00000000000E+00 0. -1.
         25    2    1    2    0    0  0.31468401420E+02 -0.14186168749E+02 -0.27591950758E+03  0.30491165894E+03  0.12509211577E+03 0.  0.
         23    2    1    2    0    0 -0.31468401420E+02  0.14186168749E+02 -0.83593878097E+02  0.12859689015E+03  0.91420544903E+02 0.  0.
          5    1    3    3  502    0  0.23923184567E+02 -0.67632668529E+02 -0.12012211076E+03  0.13997603547E+03  0.41800000000E+01 0. -1.
         -5    1    3    3    0  502  0.75452168537E+01  0.53446499780E+02 -0.15579739682E+03  0.16493562347E+03  0.41800000000E+01 0. -1.
        -11    1    4    4    0    0 -0.35867198156E+02 -0.18261809380E+02 -0.86817905962E+02  0.95693773993E+02  0.00000000000E+00 0. -1.
         11    1    4    4    0    0  0.43987967360E+01  0.32447978129E+02  0.32240278652E+01  0.32903116161E+02  0.00000000000E+00 0.  1.
</event>
<event>
 8    1  0.6443238E-009  0.2729518E+03  0.7561462E-02  0.1099602E+00
          1   -1    0    0  501    0  0.00000000000E+00  0.00000000000E+00  0.17781968774E+04  0.17781968774E+04  0.00000000000E+00 0. -1.
         -1   -1    0    0    0  501 -0.00000000000E+00 -0.00000000000E+00 -0.47167299500E+02  0.47167299500E+02  0.00000000000E+00 0.  1.
         25    2    1    2    0    0  0.12629150868E+03 -0.23746457888E+03  0.84312654282E+03  0.89378373277E+03  0.12509205556E+03 0.  0.
         23    2    1    2    0    0 -0.12629150868E+03  0.23746457888E+03  0.88790303511E+03  0.93158044416E+03  0.84447337426E+02 0.  0.
          5    1    3    3  502    0  0.63330780471E+02 -0.13789385293E+03  0.65027730258E+03  0.66776009545E+03  0.41800000000E+01 0.  1.
         -5    1    3    3    0  502  0.62960728209E+02 -0.99570725955E+02  0.19284924025E+03  0.22602363732E+03  0.41800000000E+01 0.  1.
        -11    1    4    4    0    0 -0.10598632608E+03  0.13431860864E+03  0.63620933194E+03  0.65881477214E+03  0.00000000000E+00 0.  1.
         11    1    4    4    0    0 -0.20305182600E+02  0.10314597024E+03  0.25169370317E+03  0.27276567203E+03  0.00000000000E+00 0. -1.
</event>
<event>
 8    1  0.6443238E-009  0.2566040E+03  0.7561462E-02  0.1109201E+00
         -2   -1    0    0    0  501 -0.00000000000E+00  0.00000000000E+00  0.96619990163E+02  0.96619990163E+02  0.00000000000E+00 0.  1.
          2   -1    0    0  501    0  0.00000000000E+00 -0.00000000000E+00 -0.70822772720E+03  0.70822772720E+03  0.00000000000E+00 0. -1.
         25    2    1    2    0    0  0.22906720219E+03 -0.55984781626E+02 -0.35154305075E+03  0.44140262424E+03  0.12509069215E+03 0.  0.
         23    2    1    2    0    0 -0.22906720219E+03  0.55984781626E+02 -0.26006468629E+03  0.36344509313E+03  0.94088340264E+02 0.  0.
          5    1    3    3  502    0  0.44122598667E+01  0.23073192456E+02 -0.62245706181E+02  0.66662137568E+02  0.41800000000E+01 0.  1.
         -5    1    3    3    0  502  0.22465494232E+03 -0.79057974081E+02 -0.28929734457E+03  0.37474048667E+03  0.41800000000E+01 0.  1.
        -11    1    4    4    0    0 -0.19002948529E+03  0.92459211206E+01 -0.17267786513E+03  0.25693255427E+03  0.00000000000E+00 0.  1.
         11    1    4    4    0    0 -0.39037716891E+02  0.46738860505E+02 -0.87386821161E+02  0.10651253886E+03  0.00000000000E+00 0. -1.
</event>
<event>
 8    1  0.6443238E-009  0.9488827E+02  0.7561462E-02  0.1291428E+00
          1   -1    0    0  501    0  0.00000000000E+00  0.00000000000E+00  0.24536720845E+03  0.24536720845E+03  0.00000000000E+00 0. -1.
         -1   -1    0    0    0  501 -0.00000000000E+00 -0.00000000000E+00 -0.55027263739E+02  0.55027263739E+02  0.00000000000E+00 0.  1.
         25    2    1    2    0    0  0.36509190972E+02  0.33414172379E+01  0.12933980935E+03  0.18363014911E+03  0.12508860574E+03 0.  0.
         23    2    1    2    0    0 -0.36509190972E+02 -0.33414172379E+01  0.61000135360E+02  0.11676432308E+03  0.92567837477E+02 0.  0.
          5    1    3    3  502    0  0.69234189151E+02  0.25807978462E+02  0.12252151582E+03  0.14313776210E+03  0.41800000000E+01 0. -1.
         -5    1    3    3    0  502 -0.32724998179E+02 -0.22466561224E+02  0.68182935268E+01  0.40492387009E+02  0.41800000000E+01 0. -1.
        -11    1    4    4    0    0 -0.24530549748E+02 -0.34581460137E+02 -0.50750980358E+01  0.42701075821E+02  0.00000000000E+00 0.  1.
         11    1    4    4    0    0 -0.11978641224E+02  0.31240042899E+02  0.66075233395E+02  0.74063247257E+02  0.00000000000E+00 0. -1.
</event>
<event>
 8    1  0.6443238E-009  0.1081690E+03  0.7561462E-02  0.1263999E+00
         -1   -1    0    0    0  501 -0.00000000000E+00  0.00000000000E+00  0.58613267525E+02  0.58613267525E+02  0.00000000000E+00 0.  1.
          1   -1    0    0  501    0  0.00000000000E+00 -0.00000000000E+00 -0.33789960916E+03  0.33789960916E+03  0.00000000000E+00 0. -1.
         25    2    1    2    0    0  0.55338045107E+02 -0.50389706174E+02 -0.82881741075E+02  0.16768453119E+03  0.12508915729E+03 0.  0.
         23    2    1    2    0    0 -0.55338045107E+02  0.50389706174E+02 -0.19640460056E+03  0.22882834550E+03  0.90477747864E+02 0.  0.
          5    1    3    3  502    0  0.61211584320E+02 -0.71440711718E+02 -0.10165578473E+03  0.13857129687E+03  0.41800000000E+01 0.  1.
         -5    1    3    3    0  502 -0.58735392130E+01  0.21051005544E+02  0.18774043656E+02  0.29113234319E+02  0.41800000000E+01 0.  1.
        -11    1    4    4    0    0 -0.32776123975E+01  0.47672393259E+02 -0.35049987630E+02  0.59261298121E+02  0.00000000000E+00 0.  1.
         11    1    4    4    0    0 -0.52060432709E+02  0.27173129156E+01 -0.16135461293E+03  0.16956704738E+03  0.00000000000E+00 0. -1.
</event>
<event>
 8    1  0.6443238E-009  0.8902407E+02  0.7561462E-02  0.1305232E+00
          2   -1    0    0  501    0  0.00000000000E+00  0.00000000000E+00  0.12334881512E+03  0.12334881512E+03  0.00000000000E+00 0.  1.
         -2   -1    0    0    0  501 -0.00000000000E+00 -0.00000000000E+00 -0.12087074333E+03  0.12087074333E+03  0.00000000000E+00 0. -1.
         25    2    1    2    0    0 -0.17767395207E+02  0.89212377251E+00  0.50702174609E+02  0.13614170953E+03  0.12508948136E+03 0.  0.
         23    2    1    2    0    0  0.17767395207E+02 -0.89212377251E+00 -0.48224102822E+02  0.10807784892E+03  0.95072504530E+02 0.  0.
          5    1    3    3  502    0 -0.56713624272E+02 -0.16657367853E+02  0.67705814738E+02  0.89974734405E+02  0.41800000000E+01 0. -1.
         -5    1    3    3    0  502  0.38946229065E+02  0.17549491626E+02 -0.17003640130E+02  0.46166975127E+02  0.41800000000E+01 0. -1.
        -11    1    4    4    0    0 -0.69417691004E+01  0.33114364150E+02  0.10888577509E+02  0.35543077968E+02  0.00000000000E+00 0.  1.
         11    1    4    4    0    0  0.24709164307E+02 -0.34006487922E+02 -0.59112680332E+02  0.72534770955E+02  0.00000000000E+00 0. -1.
</event>
<event>
 8    1  0.6443238E-009  0.2380726E+03  0.7561462E-02  0.1121083E+00
         -2   -1    0    0    0  501 -0.00000000000E+00  0.00000000000E+00  0.92132170003E+02  0.92132170003E+02  0.00000000000E+00 0.  1.
          2   -1    0    0  501    0  0.00000000000E+00 -0.00000000000E+00 -0.83303422871E+03  0.83303422871E+03  0.00000000000E+00 0. -1.
         25    2    1    2    0    0 -0.11156532806E+03  0.19078928920E+03 -0.59027906683E+03  0.64259149042E+03  0.12508825492E+03 0.  0.
         23    2    1    2    0    0  0.11156532806E+03 -0.19078928920E+03 -0.15062299187E+03  0.28257490829E+03  0.91180687727E+02 0.  0.
          5    1    3    3  502    0 -0.86767395416E+02  0.19342356786E+03 -0.42044067203E+03  0.47088118311E+03  0.41800000000E+01 0. -1.
         -5    1    3    3    0  502 -0.24797932648E+02 -0.26342786536E+01 -0.16983839480E+03  0.17171030731E+03  0.41800000000E+01 0. -1.
        -11    1    4    4    0    0  0.12373129079E+03 -0.14109136603E+03 -0.12365963818E+03  0.22473965383E+03  0.00000000000E+00 0. -1.
         11    1    4    4    0    0 -0.12165962722E+02 -0.49697923169E+02 -0.26963353697E+02  0.57835254463E+02  0.00000000000E+00 0.  1.
</event>
<event>
 8    1  0.6443238E-009  0.1524107E+03  0.7561462E-02  0.1197542E+00
          2   -1    0    0  501    0  0.00000000000E+00  0.00000000000E+00  0.67281492646E+03  0.67281492646E+03  0.00000000000E+00 0.  1.
         -2   -1    0    0    0  501 -0.00000000000E+00 -0.00000000000E+00 -0.49048817528E+02  0.49048817528E+02  0.00000000000E+00 0. -1.
         25    2    1    2    0    0  0.12624156834E+03 -0.66956282329E+02  0.37884218897E+03  0.42377851645E+03  0.12508696793E+03 0.  0.
         23    2    1    2    0    0 -0.12624156834E+03  0.66956282329E+02  0.24492391996E+03  0.29808522753E+03  0.91907556730E+02 0.  0.
          5    1    3    3  502    0  0.83674317766E+02 -0.23712067883E+02  0.78155512358E+02  0.11700175267E+03  0.41800000000E+01 0.  1.
         -5    1    3    3    0  502  0.42567250573E+02 -0.43244214445E+02  0.30068667661E+03  0.30677676378E+03  0.41800000000E+01 0.  1.
        -11    1    4    4    0    0 -0.90480587003E+02  0.78042683300E+02  0.12706140229E+03  0.17441902704E+03  0.00000000000E+00 0. -1.
         11    1    4    4    0    0 -0.35760981336E+02 -0.11086400971E+02  0.11786251768E+03  0.12366620050E+03  0.00000000000E+00 0.  1.
</event>
<event>
 8    1  0.6443238E-009  0.1136044E+03  0.7561462E-02  0.1254037E+00
          2   -1    0    0  501    0  0.00000000000E+00  0.00000000000E+00  0.36723590313E+03  0.36723590313E+03  0.00000000000E+00 0. -1.
         -2   -1    0    0    0  501 -0.00000000000E+00 -0.00000000000E+00 -0.46540847555E+02  0.46540847555E+02  0.00000000000E+00 0.  1.
         25    2    1    2    0    0  0.17650908156E+02 -0.65909927517E+02  0.13687981270E+03  0.19758440056E+03  0.12509132310E+03 0.  0.
         23    2    1    2    0    0 -0.17650908156E+02  0.65909927517E+02  0.18381524287E+03  0.21619235013E+03  0.91079172356E+02 0.  0.
          5    1    3    3  502    0  0.36760559842E+02 -0.83684746917E+02  0.14363619245E+03  0.17030356370E+03  0.41800000000E+01 0. -1.
         -5    1    3    3    0  502 -0.19109651686E+02  0.17774819400E+02 -0.67563797525E+01  0.27280836857E+02  0.41800000000E+01 0. -1.
        -11    1    4    4    0    0  0.50608334715E+01 -0.19890419339E+02  0.63142334228E+02  0.66394240629E+02  0.00000000000E+00 0. -1.
         11    1    4    4    0    0 -0.22711741627E+02  0.85800346856E+02  0.12067290864E+03  0.14979810950E+03  0.00000000000E+00 0.  1.
</event>
<event>
 8    1  0.6443238E-009  0.8235900E+02  0.7561462E-02  0.1322487E+00
         -3   -1    0    0    0  501 -0.00000000000E+00  0.00000000000E+00  0.12493622303E+04  0.12493622303E+04  0.00000000000E+00 0.  1.
          3   -1    0    0  501    0  0.00000000000E+00 -0.00000000000E+00 -0.12976936233E+02  0.12976936233E+02  0.00000000000E+00 0. -1.
         25    2    1    2    0    0 -0.19453842127E+01 -0.18329443623E+02  0.99962491327E+03  0.10075896741E+04  0.12508889292E+03 0.  0.
         23    2    1    2    0    0  0.19453842127E+01  0.18329443623E+02  0.23676038078E+03  0.25474949240E+03  0.92206686024E+02 0.  0.
          5    1    3    3  502    0 -0.25586933054E+02 -0.41873982994E+02  0.16273172003E+03  0.17002119485E+03  0.41800000000E+01 0.  1.
         -5    1    3    3    0  502  0.23641548841E+02  0.23544539370E+02  0.83689319324E+03  0.83756847926E+03  0.41800000000E+01 0.  1.
        -11    1    4    4    0    0  0.38229974578E+02 -0.52195908250E+01  0.17590396557E+03  0.18008603552E+03  0.00000000000E+00 0.  1.
         11    1    4    4    0    0 -0.36284590366E+02  0.23549034448E+02  0.60856415204E+02  0.74663456878E+02  0.00000000000E+00 0. -1.
</event>
<event>
 8    1  0.6443238E-009  0.1206337E+03  0.7561462E-02  0.1242055E+00
         -1   -1    0    0    0  501 -0.00000000000E+00  0.00000000000E+00  0.39709374141E+02  0.39709374141E+02  0.00000000000E+00 0.  1.
          1   -1    0    0  501    0  0.00000000000E+00 -0.00000000000E+00 -0.47173721349E+03  0.47173721349E+03  0.00000000000E+00 0. -1.
         25    2    1    2    0    0  0.56254368219E+02  0.11416589637E+02 -0.34965394600E+03  0.37576664715E+03  0.12509116154E+03 0.  0.
         23    2    1    2    0    0 -0.56254368219E+02 -0.11416589637E+02 -0.82373893356E+02  0.13567994048E+03  0.91261686817E+02 0.  0.
          5    1    3    3  502    0 -0.22621616935E+02 -0.37561529163E+02 -0.13001709426E+03  0.13727535550E+03  0.41800000000E+01 0. -1.
         -5    1    3    3    0  502  0.78875985154E+02  0.48978118800E+02 -0.21963685173E+03  0.23849129165E+03  0.41800000000E+01 0. -1.
        -11    1    4    4    0    0  0.74516544861E+01  0.28263018157E+02 -0.86673252052E+01  0.30486847593E+02  0.00000000000E+00 0.  1.
         11    1    4    4    0    0 -0.63706022705E+02 -0.39679607794E+02 -0.73706568150E+02  0.10519309289E+03  0.00000000000E+00 0. -1.
</event>
<event>
 8    1  0.6443238E-009  0.8060316E+02  0.7561462E-02  0.1327348E+00
         -1   -1    0    0    0  501 -0.00000000000E+00  0.00000000000E+00  0.20043687750E+02  0.20043687750E+02  0.00000000000E+00 0.  1.
          1   -1    0    0  501    0  0.00000000000E+00 -0.00000000000E+00 -0.69650615381E+03  0.69650615381E+03  0.00000000000E+00 0. -1.
         25    2    1    2    0    0 -0.43663848257E+02  0.10269098594E+02 -0.33516095079E+03  0.36054429392E+03  0.12508932375E+03 0.  0.
         23    2    1    2    0    0  0.43663848257E+02 -0.10269098594E+02 -0.34130151527E+03  0.35600554764E+03  0.90781273354E+02 0.  0.
          5    1    3    3  502    0  0.18756627674E+01 -0.10572334882E+02  0.78042136294E+01  0.13916555826E+02  0.41800000000E+01 0.  1.
         -5    1    3    3    0  502 -0.45539511024E+02  0.20841433476E+02 -0.34296516442E+03  0.34662773809E+03  0.41800000000E+01 0.  1.
        -11    1    4    4    0    0  0.43951493594E+02  0.33745621786E+02 -0.15603150583E+03  0.16557877760E+03  0.00000000000E+00 0.  1.
         11    1    4    4    0    0 -0.28764533684E+00 -0.44014720379E+02 -0.18527000944E+03  0.19042677004E+03  0.00000000000E+00 0. -1.
</event>
<event>
 8    1  0.6443238E-009  0.1443579E+03  0.7561462E-02  0.1207583E+00
          2   -1    0    0  501    0  0.00000000000E+00  0.00000000000E+00  0.28018919116E+03  0.28018919116E+03  0.00000000000E+00 0. -1.
         -2   -1    0    0    0  501 -0.00000000000E+00 -0.00000000000E+00 -0.10027216177E+03  0.10027216177E+03  0.00000000000E+00 0.  1.
         25    2    1    2    0    0  0.84813417413E+02 -0.89560378463E+02  0.59916847857E+02  0.18561224810E+03  0.12508997091E+03 0.  0.
         23    2    1    2    0    0 -0.84813417413E+02  0.89560378463E+02  0.12000018153E+03  0.19484910483E+03  0.91387925474E+02 0.  0.
          5    1    3    3  502    0  0.13903848237E+02 -0.88702882946E+02 -0.41119365807E+01  0.89977213010E+02  0.41800000000E+01 0.  1.
         -5    1    3    3    0  502  0.70909569176E+02 -0.85749551762E+00  0.64028784437E+02  0.95635035086E+02  0.41800000000E+01 0.  1.
        -11    1    4    4    0    0 -0.68459744286E+02  0.49370197481E+02  0.12536272473E+03  0.15112897055E+03  0.00000000000E+00 0. -1.
         11    1    4    4    0    0 -0.16353673127E+02  0.40190180983E+02 -0.53625431997E+01  0.43720134283E+02  0.00000000000E+00 0.  1.
</event>
<event>
 8    1  0.6443238E-009  0.1277443E+03  0.7561462E-02  0.1230842E+00
          1   -1    0    0  501    0  0.00000000000E+00  0.00000000000E+00  0.37719994255E+03  0.37719994255E+03  0.00000000000E+00 0. -1.
         -1   -1    0    0    0  501 -0.00000000000E+00 -0.00000000000E+00 -0.69095265574E+02  0.69095265574E+02  0.00000000000E+00 0.  1.
         25    2    1    2    0    0 -0.66805599268E+02 -0.70622635715E+02  0.72260548815E+02  0.17412489890E+03  0.12508936299E+03 0.  0.
         23    2    1    2    0    0  0.66805599268E+02  0.70622635715E+02  0.23584412816E+03  0.27217030922E+03  0.94887721370E+02 0.  0.
          5    1    3    3  502    0 -0.21526696886E+02  0.13760002485E+02  0.73851097063E+02  0.78257225127E+02  0.41800000000E+01 0. -1.
         -5    1    3    3    0  502 -0.45278902383E+02 -0.84382638200E+02 -0.15905482479E+01  0.95867673771E+02  0.41800000000E+01 0. -1.
        -11    1    4    4    0    0 -0.52584304464E+01  0.60786558909E+02  0.84157103021E+02  0.10394746184E+03  0.00000000000E+00 0.  1.
         11    1    4    4    0    0  0.72064029715E+02  0.98360768066E+01  0.15168702514E+03  0.16822284738E+03  0.00000000000E+00 0. -1.
</event>
<event>
 8    1  0.6443238E-009  0.1424965E+03  0.7561462E-02  0.1210009E+00
         -3   -1    0    0    0  501 -0.00000000000E+00  0.00000000000E+00  0.66606106514E+03  0.66606106514E+03  0.00000000000E+00 0.  1.
          3   -1    0    0  501    0  0.00000000000E+00 -0.00000000000E+00 -0.37255389881E+02  0.37255389881E+02  0.00000000000E+00 0. -1.
         25    2    1    2    0    0 -0.25563949385E+02  0.10993198494E+03  0.36733506921E+03  0.40413023024E+03  0.12509049964E+03 0.  0.
         23    2    1    2    0    0  0.25563949385E+02 -0.10993198494E+03  0.26147060605E+03  0.29918622478E+03  0.91689489319E+02 0.  0.
          5    1    3    3  502    0  0.38866797562E+02  0.60266813110E+02  0.90412738783E+02  0.11547576564E+03  0.41800000000E+01 0. -1.
         -5    1    3    3    0  502 -0.64430746947E+02  0.49665171826E+02  0.27692233043E+03  0.28865446460E+03  0.41800000000E+01 0. -1.
        -11    1    4    4    0    0  0.48015443528E+02 -0.59211866431E+02  0.84874906312E+02  0.11408451983E+03  0.00000000000E+00 0. -1.
         11    1    4    4    0    0 -0.22451494144E+02 -0.50720118505E+02  0.17659569973E+03  0.18510170495E+03  0.00000000000E+00 0.  1.
</event>
<event>
 8    1  0.6443238E-009  0.1106122E+03  0.7561462E-02  0.1259440E+00
          1   -1    0    0  501    0  0.00000000000E+00  0.00000000000E+00  0.77983068664E+03  0.77983068664E+03  0.00000000000E+00 0. -1.
         -1   -1    0    0    0  501 -0.00000000000E+00 -0.00000000000E+00 -0.27600365455E+02  0.27600365455E+02  0.00000000000E+00 0.  1.
         25    2    1    2    0    0 -0.40340098400E+02  0.85978401264E+02  0.39760840608E+03  0.42750364583E+03  0.12508922251E+03 0.  0.
         23    2    1    2    0    0  0.40340098400E+02 -0.85978401264E+02  0.35462191510E+03  0.37992740626E+03  0.97818824040E+02 0.  0.
          5    1    3    3  502    0 -0.42513034333E+02  0.19240727616E+02  0.32659436325E+03  0.32993774290E+03  0.41800000000E+01 0. -1.
         -5    1    3    3    0  502  0.21729359324E+01  0.66737673648E+02  0.71014042838E+02  0.97565902931E+02  0.41800000000E+01 0. -1.
        -11    1    4    4    0    0 -0.24142361815E+01 -0.54062398201E+02  0.29498506605E+03  0.29990792025E+03  0.00000000000E+00 0. -1.
         11    1    4    4    0    0  0.42754334582E+02 -0.31916003063E+02  0.59636849049E+02  0.80019486012E+02  0.00000000000E+00 0.  1.
</event>
<event>
 8    1  0.6443238E-009  0.1247273E+03  0.7561462E-02  0.1235496E+00
         -1   -1    0    0    0  501 -0.00000000000E+00  0.00000000000E+00  0.37052667140E+02  0.37052667140E+02  0.00000000000E+00 0.  1.
          1   -1    0    0  501    0  0.00000000000E+00 -0.00000000000E+00 -0.61287085436E+03  0.61287085436E+03  0.00000000000E+00 0. -1.
         25    2    1    2    0    0  0.20672982442E+02 -0.89846305603E+02 -0.42024092010E+03  0.44806587545E+03  0.12514338568E+03 0.  0.
         23    2    1    2    0    0 -0.20672982442E+02  0.89846305603E+02 -0.15557726712E+03  0.20185764605E+03  0.89679944201E+02 0.  0.
          5    1    3    3  502    0 -0.47993975640E+02 -0.85941531732E+01 -0.12784416453E+03  0.13689004336E+03  0.41800000000E+01 0.  1.
         -5    1    3    3    0  502  0.68666958082E+02 -0.81252152430E+02 -0.29239675557E+03  0.31117583208E+03  0.41800000000E+01 0.  1.
        -11    1    4    4    0    0 -0.22338545860E+02  0.57823205541E+02 -0.24070041092E+02  0.66497372943E+02  0.00000000000E+00 0.  1.
         11    1    4    4    0    0  0.16655634178E+01  0.32023100062E+02 -0.13150722602E+03  0.13536027311E+03  0.00000000000E+00 0. -1.
</event>
<event>
 8    1  0.6443238E-009  0.1258547E+03  0.7561462E-02  0.1233740E+00
         -3   -1    0    0    0  501 -0.00000000000E+00  0.00000000000E+00  0.11055644775E+03  0.11055644775E+03  0.00000000000E+00 0.  1.
          3   -1    0    0  501    0  0.00000000000E+00 -0.00000000000E+00 -0.20728185988E+03  0.20728185988E+03  0.00000000000E+00 0. -1.
         25    2    1    2    0    0  0.60683020176E+02  0.84409483574E+02 -0.64426505479E+02  0.17494493659E+03  0.12509023293E+03 0.  0.
         23    2    1    2    0    0 -0.60683020176E+02 -0.84409483574E+02 -0.32298906651E+02  0.14289337104E+03  0.92562985381E+02 0.  0.
          5    1    3    3  502    0 -0.92151054257E+01 -0.19466271528E+02  0.15034125166E+02  0.26596075175E+02  0.41800000000E+01 0. -1.
         -5    1    3    3    0  502  0.69898125602E+02  0.10387575510E+03 -0.79460630645E+02  0.14834886142E+03  0.41800000000E+01 0. -1.
        -11    1    4    4    0    0 -0.16489151390E+02 -0.31530720958E+02 -0.59071878582E+02  0.68960606994E+02  0.00000000000E+00 0. -1.
         11    1    4    4    0    0 -0.44193868786E+02 -0.52878762616E+02  0.26772971931E+02  0.73932764050E+02  0.00000000000E+00 0.  1.
</event>
<event>
 8    1  0.6443238E-009  0.1265602E+03  0.7561462E-02  0.1232651E+00
          2   -1    0    0  501    0  0.00000000000E+00  0.00000000000E+00  0.98860149686E+03  0.98860149686E+03  0.00000000000E+00 0. -1.
         -2   -1    0    0    0  501 -0.00000000000E+00 -0.00000000000E+00 -0.48319981083E+02  0.48319981083E+02  0.00000000000E+00 0.  1.
         25    2    1    2    0    0 -0.93284020033E+02 -0.31619176553E+02  0.86877080576E+03  0.88324230909E+03  0.12511028300E+03 0.  0.
         23    2    1    2    0    0  0.93284020033E+02  0.31619176553E+02  0.71510710023E+02  0.15367916886E+03  0.93818039698E+02 0.  0.
          5    1    3    3  502    0 -0.44557845529E+00  0.30430291357E+02  0.66811349707E+02  0.73535229801E+02  0.41800000000E+01 0.  1.
         -5    1    3    3    0  502 -0.92838441578E+02 -0.62049467910E+02  0.80195945605E+03  0.80970707929E+03  0.41800000000E+01 0.  1.
        -11    1    4    4    0    0  0.36545254875E+02 -0.12670699237E+02  0.71963128152E+02  0.81699413012E+02  0.00000000000E+00 0. -1.
         11    1    4    4    0    0  0.56738765158E+02  0.44289875790E+02 -0.45241812884E+00  0.71979755844E+02  0.00000000000E+00 0.  1.
</event>
<event>
 8    1  0.6443238E-009  0.7876033E+02  0.7561462E-02  0.1332607E+00
          1   -1    0    0  501    0  0.00000000000E+00  0.00000000000E+00  0.51677216972E+03  0.51677216972E+03  0.00000000000E+00 0. -1.
         -1   -1    0    0    0  501 -0.00000000000E+00 -0.00000000000E+00 -0.31550305363E+02  0.31550305363E+02  0.00000000000E+00 0.  1.
         25    2    1    2    0    0  0.37375512025E+02  0.13494520353E+02  0.39375551596E+03  0.41505580864E+03  0.12509551134E+03 0.  0.
         23    2    1    2    0    0 -0.37375512025E+02 -0.13494520353E+02  0.91466348393E+02  0.13326666644E+03  0.88401812860E+02 0.  0.
          5    1    3    3  502    0 -0.17445576993E+02 -0.12369488753E+02  0.31418473591E+03  0.31493947528E+03  0.41800000000E+01 0.  1.
         -5    1    3    3    0  502  0.54821089018E+02  0.25864009106E+02  0.79570780046E+02  0.10011633336E+03  0.41800000000E+01 0.  1.
        -11    1    4    4    0    0 -0.16839048316E+02  0.25697758997E+02 -0.10207352026E+01  0.30740368671E+02  0.00000000000E+00 0.  1.
         11    1    4    4    0    0 -0.20536463709E+02 -0.39192279350E+02  0.92487083595E+02  0.10252629777E+03  0.00000000000E+00 0. -1.
</event>
<event>
 8    1  0.6443238E-009  0.1334507E+03  0.7561462E-02  0.1222424E+00
         -1   -1    0    0    0  501 -0.00000000000E+00  0.00000000000E+00  0.77845520897E+02  0.77845520897E+02  0.00000000000E+00 0.  1.
          1   -1    0    0  501    0  0.00000000000E+00 -0.00000000000E+00 -0.30696046231E+03  0.30696046231E+03  0.00000000000E+00 0. -1.
         25    2    1    2    0    0  0.98096844543E+02 -0.16146575875E+02 -0.65261077514E+02  0.17259973872E+03  0.12509180128E+03 0.  0.
         23    2    1    2    0    0 -0.98096844543E+02  0.16146575875E+02 -0.16385386390E+03  0.21220624449E+03  0.91102681974E+02 0.  0.
          5    1    3    3  502    0  0.12316053074E+03 -0.14351011824E+02 -0.75403782817E+02  0.14518150962E+03  0.41800000000E+01 0.  1.
         -5    1    3    3    0  502 -0.25063686198E+02 -0.17955640510E+01  0.10142705303E+02  0.27418229099E+02  0.41800000000E+01 0.  1.
        -11    1    4    4    0    0 -0.62104526828E+02 -0.21078378308E+02 -0.14119975342E+03  0.15568763808E+03  0.00000000000E+00 0. -1.
         11    1    4    4    0    0 -0.35992317714E+02  0.37224954184E+02 -0.22654110474E+02  0.56518606403E+02  0.00000000000E+00 0.  1.
</event>
<event>
 8    1  0.6443238E-009  0.8697903E+02  0.7561462E-02  0.1310337E+00
         -2   -1    0    0    0  501 -0.00000000000E+00  0.00000000000E+00  0.19520987829E+02  0.19520987829E+02  0.00000000000E+00 0. -1.
          2   -1    0    0  501    0  0.00000000000E+00 -0.00000000000E+00 -0.68249738045E+03  0.68249738045E+03  0.00000000000E+00 0.  1.
         25    2    1    2    0    0  0.38079520997E+02  0.11205292020E+01 -0.41686772585E+03  0.43689571299E+03  0.12509139727E+03 0.  0.
         23    2    1    2    0    0 -0.38079520997E+02 -0.11205292020E+01 -0.24610866677E+03  0.26512265529E+03  0.90935367055E+02 0.  0.
          5    1    3    3  502    0  0.61131539768E+02 -0.28779210444E+02 -0.37199405140E+03  0.37810362969E+03  0.41800000000E+01 0. -1.
         -5    1    3    3    0  502 -0.23052018770E+02  0.29899739646E+02 -0.44873674447E+02  0.58792083299E+02  0.41800000000E+01 0. -1.
        -11    1    4    4    0    0 -0.50617214200E+02  0.99091942967E+01 -0.24264778461E+03  0.24806902645E+03  0.00000000000E+00 0.  1.
         11    1    4    4    0    0  0.12537693203E+02 -0.11029723499E+02 -0.34608821588E+01  0.17053628840E+02  0.00000000000E+00 0. -1.
</event>
<event>
 8    1  0.6443238E-009  0.1164040E+03  0.7561462E-02  0.1249150E+00
          2   -1    0    0  501    0  0.00000000000E+00  0.00000000000E+00  0.11756825314E+04  0.11756825314E+04  0.00000000000E+00 0. -1.
         -2   -1    0    0    0  501 -0.00000000000E+00 -0.00000000000E+00 -0.11626028103E+02  0.11626028103E+02  0.00000000000E+00 0.  1.
         25    2    1    2    0    0 -0.20668238227E+02  0.39242058850E+02  0.63664366537E+03  0.65033013805E+03  0.12508803521E+03 0.  0.
         23    2    1    2    0    0  0.20668238227E+02 -0.39242058850E+02  0.52741283788E+03  0.53697842140E+03  0.90633372646E+02 0.  0.
          5    1    3    3  502    0 -0.70343780903E+02  0.20077007859E+01  0.33765251391E+03  0.34493328474E+03  0.41800000000E+01 0. -1.
         -5    1    3    3    0  502  0.49675542677E+02  0.37234358064E+02  0.29899115146E+03  0.30539685331E+03  0.41800000000E+01 0. -1.
        -11    1    4    4    0    0  0.49695140927E+02  0.19086069158E+01  0.29610972548E+03  0.30025692221E+03  0.00000000000E+00 0. -1.
         11    1    4    4    0    0 -0.29026902700E+02 -0.41150665766E+02  0.23130311241E+03  0.23672149920E+03  0.00000000000E+00 0.  1.
</event>
<event>
 8    1  0.6443238E-009  0.2323331E+03  0.7561462E-02  0.1125008E+00
         -3   -1    0    0    0  501 -0.00000000000E+00  0.00000000000E+00  0.56556580194E+03  0.56556580194E+03  0.00000000000E+00 0.  1.
          3   -1    0    0  501    0  0.00000000000E+00 -0.00000000000E+00 -0.11867041699E+03  0.11867041699E+03  0.00000000000E+00 0. -1.
         25    2    1    2    0    0  0.21761971149E+03  0.67258940986E+02  0.30214205863E+03  0.39852193480E+03  0.12509118655E+03 0.  0.
         23    2    1    2    0    0 -0.21761971149E+03 -0.67258940986E+02  0.14475332632E+03  0.28571428412E+03  0.93792444790E+02 0.  0.
          5    1    3    3  502    0  0.13962129959E+03  0.73839357696E+02  0.11438359724E+03  0.19505752424E+03  0.41800000000E+01 0. -1.
         -5    1    3    3    0  502  0.77998411899E+02 -0.65804167097E+01  0.18775846139E+03  0.20346441057E+03  0.41800000000E+01 0. -1.
        -11    1    4    4    0    0 -0.92272382018E+02 -0.20707955041E+02  0.87205395180E+01  0.94968730090E+02  0.00000000000E+00 0. -1.
         11    1    4    4    0    0 -0.12534732947E+03 -0.46550985945E+02  0.13603278680E+03  0.19074555403E+03  0.00000000000E+00 0.  1.
</event>
<event>
 8    1  0.6443238E-009  0.1219830E+03  0.7561462E-02  0.1239861E+00
         -2   -1    0    0    0  501 -0.00000000000E+00  0.00000000000E+00  0.51227183445E+02  0.51227183445E+02  0.00000000000E+00 0.  1.
          2   -1    0    0  501    0  0.00000000000E+00 -0.00000000000E+00 -0.34469637417E+03  0.34469637417E+03  0.00000000000E+00 0. -1.
         25    2    1    2    0    0 -0.72465562559E+02 -0.24426427891E+02 -0.15652157168E+03  0.21446582495E+03  0.12509468228E+03 0.  0.
         23    2    1    2    0    0  0.72465562559E+02  0.24426427891E+02 -0.13694761904E+03  0.18145773266E+03  0.91237877242E+02 0.  0.
          5    1    3    3  502    0  0.33461774009E+02 -0.20599636917E+02 -0.31715054695E+02  0.50669048297E+02  0.41800000000E+01 0. -1.
         -5    1    3    3    0  502 -0.10592733657E+03 -0.38267909740E+01 -0.12480651698E+03  0.16379677666E+03  0.41800000000E+01 0. -1.
        -11    1    4    4    0    0  0.33179725235E+02 -0.20256073696E+02 -0.83461760534E+01  0.39760047070E+02  0.00000000000E+00 0.  1.
         11    1    4    4    0    0  0.39285837324E+02  0.44682501587E+02 -0.12860144299E+03  0.14169768559E+03  0.00000000000E+00 0. -1.
</event>
<event>
 8    1  0.6443238E-009  0.1215536E+03  0.7561462E-02  0.1240556E+00
          2   -1    0    0  501    0  0.00000000000E+00  0.00000000000E+00  0.69664788842E+03  0.69664788842E+03  0.00000000000E+00 0. -1.
         -2   -1    0    0    0  501 -0.00000000000E+00 -0.00000000000E+00 -0.37303191786E+02  0.37303191786E+02  0.00000000000E+00 0.  1.
         25    2    1    2    0    0  0.74494897513E+00  0.54228262573E+02  0.11279083336E+03  0.17694729778E+03  0.12508922691E+03 0.  0.
         23    2    1    2    0    0 -0.74494897513E+00 -0.54228262573E+02  0.54655386327E+03  0.55700378242E+03  0.92686723812E+02 0.  0.
          5    1    3    3  502    0 -0.32743673983E+02  0.84603247312E+02  0.71659012213E+02  0.11568208190E+03  0.41800000000E+01 0.  1.
         -5    1    3    3    0  502  0.33488622958E+02 -0.30374984739E+02  0.41131821152E+02  0.61265215880E+02  0.41800000000E+01 0.  1.
        -11    1    4    4    0    0  0.40541385386E+02 -0.51455965745E+02  0.36055312845E+03  0.36645583468E+03  0.00000000000E+00 0. -1.
         11    1    4    4    0    0 -0.41286334361E+02 -0.27722968275E+01  0.18600073482E+03  0.19054794774E+03  0.00000000000E+00 0.  1.
</event>
<event>
 8    1  0.6443238E-009  0.6809132E+02  0.7561462E-02  0.1366707E+00
         -1   -1    0    0    0  501 -0.00000000000E+00  0.00000000000E+00  0.13624131872E+03  0.13624131872E+03  0.00000000000E+00 0.  1.
          1   -1    0    0  501    0  0.00000000000E+00 -0.00000000000E+00 -0.11020856070E+03  0.11020856070E+03  0.00000000000E+00 0. -1.
         25    2    1    2    0    0  0.40877412515E+02  0.21388462107E+02 -0.19042831342E+02  0.13467972279E+03  0.12509024398E+03 0.  0.
         23    2    1    2    0    0 -0.40877412515E+02 -0.21388462107E+02  0.45075589362E+02  0.11177015662E+03  0.91281597215E+02 0.  0.
          5    1    3    3  502    0  0.25352465279E+02  0.23044590032E+02  0.51673199785E+02  0.62140104615E+02  0.41800000000E+01 0.  1.
         -5    1    3    3    0  502  0.15524947236E+02 -0.16561279244E+01 -0.70716031127E+02  0.72539618174E+02  0.41800000000E+01 0.  1.
        -11    1    4    4    0    0  0.20013966549E+02 -0.13414306690E+02 -0.12888113224E+02  0.27324090899E+02  0.00000000000E+00 0. -1.
         11    1    4    4    0    0 -0.60891379064E+02 -0.79741554174E+01  0.57963702586E+02  0.84446065724E+02  0.00000000000E+00 0.  1.
</event>
<event>
 8    1  0.6443238E-009  0.7564954E+02  0.7561462E-02  0.1341871E+00
          4   -1    0    0  501    0  0.00000000000E+00  0.00000000000E+00  0.22694249087E+02  0.22694249087E+02  0.00000000000E+00 0. -1.
         -4   -1    0    0    0  501 -0.00000000000E+00 -0.00000000000E+00 -0.65971933437E+03  0.65971933437E+03  0.00000000000E+00 0.  1.
         25    2    1    2    0    0 -0.30592069726E+01 -0.10429492380E+02 -0.19965894395E+03  0.23585983311E+03  0.12509210174E+03 0.  0.
         23    2    1    2    0    0  0.30592069726E+01  0.10429492380E+02 -0.43736614133E+03  0.44655375034E+03  0.89459361196E+02 0.  0.
          5    1    3    3  502    0  0.18573548697E+02 -0.28603795683E+02 -0.19438628959E+00  0.34360791968E+02  0.41800000000E+01 0.  1.
         -5    1    3    3    0  502 -0.21632755669E+02  0.18174303303E+02 -0.19946455766E+03  0.20149904114E+03  0.41800000000E+01 0.  1.
        -11    1    4    4    0    0  0.45367641847E+02  0.34669638853E+01 -0.18128121178E+03  0.18690404091E+03  0.00000000000E+00 0. -1.
         11    1    4    4    0    0 -0.42308434874E+02  0.69625284942E+01 -0.25608492955E+03  0.25964970943E+03  0.00000000000E+00 0.  1.
</event>
<event>
 8    1  0.6443238E-009  0.2777608E+03  0.7561462E-02  0.1096918E+00
         -3   -1    0    0    0  501 -0.00000000000E+00  0.00000000000E+00  0.24912887450E+03  0.24912887450E+03  0.00000000000E+00 0.  1.
          3   -1    0    0  501    0  0.00000000000E+00 -0.00000000000E+00 -0.39348408469E+03  0.39348408469E+03  0.00000000000E+00 0. -1.
         25    2    1    2    0    0 -0.15320802115E+03  0.23129993933E+03  0.24700262811E+02  0.30533506428E+03  0.12508812423E+03 0.  0.
         23    2    1    2    0    0  0.15320802115E+03 -0.23129993933E+03 -0.16905547300E+03  0.33727789491E+03  0.90577402090E+02 0.  0.
          5    1    3    3  502    0 -0.14081934395E+03  0.20543181514E+03  0.63347330069E+02  0.25702660354E+03  0.41800000000E+01 0. -1.
         -5    1    3    3    0  502 -0.12388677194E+02  0.25868124186E+02 -0.38647067258E+02  0.48308460741E+02  0.41800000000E+01 0. -1.
        -11    1    4    4    0    0  0.74957335697E+02 -0.11319715678E+03 -0.30573667957E+02  0.13916518117E+03  0.00000000000E+00 0.  1.
         11    1    4    4    0    0  0.78250685449E+02 -0.11810278255E+03 -0.13848180504E+03  0.19811271374E+03  0.00000000000E+00 0. -1.
</event>
<event>
 8    1  0.6443238E-009  0.1383425E+03  0.7561462E-02  0.1215577E+00
         -2   -1    0    0    0  501 -0.00000000000E+00  0.00000000000E+00  0.55804280034E+02  0.55804280034E+02  0.00000000000E+00 0.  1.
          2   -1    0    0  501    0  0.00000000000E+00 -0.00000000000E+00 -0.67553231127E+03  0.67553231127E+03  0.00000000000E+00 0. -1.
         25    2    1    2    0    0 -0.66382523039E+02 -0.68586357211E+02 -0.56891212894E+03  0.59027109843E+03  0.12509289120E+03 0.  0.
         23    2    1    2    0    0  0.66382523039E+02  0.68586357211E+02 -0.50815902300E+02  0.14106549287E+03  0.90589677077E+02 0.  0.
          5    1    3    3  502    0 -0.42856406696E+01 -0.86030682611E+02 -0.23890157314E+03  0.25399031303E+03  0.41800000000E+01 0.  1.
         -5    1    3    3    0  502 -0.62096882369E+02  0.17444325400E+02 -0.33001055580E+03  0.33628078540E+03  0.41800000000E+01 0.  1.
        -11    1    4    4    0    0 -0.18104248642E+02  0.24644595876E+02 -0.31487914300E+02  0.43893150624E+02  0.00000000000E+00 0. -1.
         11    1    4    4    0    0  0.84486771681E+02  0.43941761335E+02 -0.19327988000E+02  0.97172342250E+02  0.00000000000E+00 0.  1.
</event>
<event>
 8    1  0.6443238E-009  0.1109248E+03  0.7561462E-02  0.1258867E+00
         -1   -1    0    0    0  501 -0.00000000000E+00  0.00000000000E+00  0.59419909406E+02  0.59419909406E+02  0.00000000000E+00 0.  1.
          1   -1    0    0  501    0  0.00000000000E+00 -0.00000000000E+00 -0.44151879372E+03  0.44151879372E+03  0.00000000000E+00 0. -1.
         25    2    1    2    0    0 -0.59555549026E+01  0.26515267623E+02 -0.36379866338E+03  0.38566234621E+03  0.12508976677E+03 0.  0.
         23    2    1    2    0    0  0.59555549026E+01 -0.26515267623E+02 -0.18300220932E+02  0.11527635692E+03  0.11052245169E+03 0.  0.
          5    1    3    3  502    0 -0.61369905603E+02  0.36487807101E+02 -0.19926753035E+03  0.21171359529E+03  0.41800000000E+01 0. -1.
         -5    1    3    3    0  502  0.55414350700E+02 -0.99725394778E+01 -0.16453113304E+03  0.17394875092E+03  0.41800000000E+01 0. -1.
        -11    1    4    4    0    0 -0.32121621733E+02  0.16757346106E+02 -0.39741646378E+02  0.53777371525E+02  0.00000000000E+00 0. -1.
         11    1    4    4    0    0  0.38077176635E+02 -0.43272613729E+02  0.21441425446E+02  0.61498985395E+02  0.00000000000E+00 0.  1.
</event>
<event>
 8    1  0.6443238E-009  0.9926183E+02  0.7561462E-02  0.1281856E+00
         -1   -1    0    0    0  501 -0.00000000000E+00  0.00000000000E+00  0.60431821968E+03  0.60431821968E+03  0.00000000000E+00 0.  1.
          1   -1    0    0  501    0  0.00000000000E+00 -0.00000000000E+00 -0.31844675182E+02  0.31844675182E+02  0.00000000000E+00 0. -1.
         25    2    1    2    0    0 -0.11625634990E+02 -0.51645798213E+02  0.46630050496E+03  0.48568165778E+03  0.12509223761E+03 0.  0.
         23    2    1    2    0    0  0.11625634990E+02  0.51645798213E+02  0.10617303954E+03  0.15048123709E+03  0.92571294300E+02 0.  0.
          5    1    3    3  502    0 -0.59569722663E+02 -0.35247418908E+02  0.14914700397E+03  0.16447867215E+03  0.41800000000E+01 0. -1.
         -5    1    3    3    0  502  0.47944087673E+02 -0.16398379305E+02  0.31715350099E+03  0.32120298563E+03  0.41800000000E+01 0. -1.
        -11    1    4    4    0    0  0.28980504155E+02  0.61244694983E+01  0.96327699288E+02  0.10077898788E+03  0.00000000000E+00 0.  1.
         11    1    4    4    0    0 -0.17354869165E+02  0.45521328714E+02  0.98453402495E+01  0.49702249207E+02  0.00000000000E+00 0. -1.
</event>
<event>
 8    1  0.6443238E-009  0.8374932E+02  0.7561462E-02  0.1318736E+00
         -1   -1    0    0    0  501 -0.00000000000E+00  0.00000000000E+00  0.12297360176E+03  0.12297360176E+03  0.00000000000E+00 0.  1.
          1   -1    0    0  501    0  0.00000000000E+00 -0.00000000000E+00 -0.14994567350E+03  0.14994567350E+03  0.00000000000E+00 0. -1.
         25    2    1    2    0    0 -0.35387044621E+02  0.52732981494E+02 -0.66816897059E+02  0.15538685041E+03  0.12509022857E+03 0.  0.
         23    2    1    2    0    0  0.35387044621E+02 -0.52732981494E+02  0.39844825323E+02  0.11753242485E+03  0.90516575955E+02 0.  0.
          5    1    3    3  502    0 -0.16669960474E+01  0.20802088836E+02 -0.97351754891E+02  0.99651103135E+02  0.41800000000E+01 0.  1.
         -5    1    3    3    0  502 -0.33720048573E+02  0.31930892658E+02  0.30534857831E+02  0.55735747277E+02  0.41800000000E+01 0.  1.
        -11    1    4    4    0    0 -0.11324846962E+02 -0.51636092494E+02  0.46414544944E+02  0.70348050358E+02  0.00000000000E+00 0.  1.
         11    1    4    4    0    0  0.46711891582E+02 -0.10968889997E+01 -0.65697196206E+01  0.47184374496E+02  0.00000000000E+00 0. -1.
</event>
<event>
 8    1  0.6443238E-009  0.9781535E+02  0.7561462E-02  0.1284958E+00
          2   -1    0    0  501    0  0.00000000000E+00  0.00000000000E+00  0.71872600742E+03  0.71872600742E+03  0.00000000000E+00 0. -1.
         -2   -1    0    0    0  501 -0.00000000000E+00 -0.00000000000E+00 -0.51772718300E+02  0.51772718300E+02  0.00000000000E+00 0.  1.
         25    2    1    2    0    0 -0.58361624402E+02 -0.48971801174E+02  0.62901123798E+03  0.64583812533E+03  0.12508968826E+03 0.  0.
         23    2    1    2    0    0  0.58361624402E+02  0.48971801174E+02  0.37942051137E+02  0.12466060039E+03  0.91084299041E+02 0.  0.
          5    1    3    3  502    0 -0.69500535246E+02 -0.65025183603E+01  0.15820767307E+03  0.17297325620E+03  0.41800000000E+01 0. -1.
         -5    1    3    3    0  502  0.11138910844E+02 -0.42469282814E+02  0.47080356491E+03  0.47286486913E+03  0.41800000000E+01 0. -1.
        -11    1    4    4    0    0  0.18610814153E+02  0.34674858659E+02 -0.26616344604E+02  0.47509346728E+02  0.00000000000E+00 0.  1.
         11    1    4    4    0    0  0.39750810249E+02  0.14296942515E+02  0.64558395741E+02  0.77151253661E+02  0.00000000000E+00 0. -1.
</event>
<event>
 7    1  0.6443238E-009  0.1006977E+03  0.7561462E-02  0.1278836E+00
         -1   -1    0    0    0  501 -0.00000000000E+00  0.00000000000E+00  0.58929413900E+02  0.58929413900E+02  0.00000000000E+00 0.  1.
          1   -1    0    0  501    0  0.00000000000E+00 -0.00000000000E+00 -0.32226669001E+03  0.32226669001E+03  0.00000000000E+00 0. -1.
         23    2    1    2    0    0  0.36249089591E+02 -0.38186729986E+02 -0.23152139516E+02  0.10535831523E+03  0.88273043341E+02 0.  0.
          5    1    1    2  502    0 -0.40723569165E+02 -0.23891222252E+02 -0.28849892900E+02  0.55488632228E+02  0.41800000000E+01 0.  1.
         -5    1    1    2    0  502  0.44744795742E+01  0.62077952238E+02 -0.21133524370E+03  0.22034915645E+03  0.41800000000E+01 0.  1.
        -11    1    3    3    0    0  0.59763814542E+02 -0.27588278912E+02  0.63985101116E+01  0.66134466003E+02  0.00000000000E+00 0.  1.
         11    1    3    3    0    0 -0.23514724951E+02 -0.10598451074E+02 -0.29550649627E+02  0.39223849226E+02  0.00000000000E+00 0. -1.
</event>
<event>
 8    1  0.6443238E-009  0.1433236E+03  0.7561462E-02  0.1208925E+00
          2   -1    0    0  501    0  0.00000000000E+00  0.00000000000E+00  0.10333784175E+03  0.10333784175E+03  0.00000000000E+00 0. -1.
         -2   -1    0    0    0  501 -0.00000000000E+00 -0.00000000000E+00 -0.24254902475E+03  0.24254902475E+03  0.00000000000E+00 0.  1.
         25    2    1    2    0    0 -0.49833289584E+02 -0.10281282651E+03 -0.60964274699E+02  0.18005095571E+03  0.12509144581E+03 0.  0.
         23    2    1    2    0    0  0.49833289584E+02  0.10281282651E+03 -0.78246908301E+02  0.16583591079E+03  0.91242186526E+02 0.  0.
          5    1    3    3  502    0 -0.53835673726E+02 -0.12904655675E+03 -0.62341938954E+02  0.15315117802E+03  0.41800000000E+01 0.  1.
         -5    1    3    3    0  502  0.40023841421E+01  0.26233730238E+02  0.13776642549E+01  0.26899777691E+02  0.41800000000E+01 0.  1.
        -11    1    4    4    0    0  0.31352177610E+02  0.94619482151E+02 -0.96398485454E+02  0.13866677122E+03  0.00000000000E+00 0.  1.
         11    1    4    4    0    0  0.18481111975E+02  0.81933443630E+01  0.18151577153E+02  0.27169139567E+02  0.00000000000E+00 0. -1.
</event>
<event>
 8    1  0.6443238E-009  0.2014477E+03  0.7561462E-02  0.1148523E+00
          1   -1    0    0  501    0  0.00000000000E+00  0.00000000000E+00  0.24015981164E+03  0.24015981164E+03  0.00000000000E+00 0. -1.
         -1   -1    0    0    0  501 -0.00000000000E+00 -0.00000000000E+00 -0.18634823086E+03  0.18634823086E+03  0.00000000000E+00 0.  1.
         25    2    1    2    0    0 -0.16718292537E+03  0.50543766347E+02 -0.22105298792E+02  0.21596727684E+03  0.12509363525E+03 0.  0.
         23    2    1    2    0    0  0.16718292537E+03 -0.50543766347E+02  0.75916879577E+02  0.21054076565E+03  0.89773261849E+02 0.  0.
          5    1    3    3  502    0 -0.91173307199E+02 -0.35414555611E+02 -0.25252622695E+02  0.10110356100E+03  0.41800000000E+01 0. -1.
         -5    1    3    3    0  502 -0.76009618175E+02  0.85958321958E+02  0.31473239033E+01  0.11486371584E+03  0.41800000000E+01 0. -1.
        -11    1    4    4    0    0  0.61874601921E+02  0.18103293708E+02  0.15574010086E+01  0.64487371662E+02  0.00000000000E+00 0.  1.
         11    1    4    4    0    0  0.10530832345E+03 -0.68647060055E+02  0.74359478568E+02  0.14605339399E+03  0.00000000000E+00 0. -1.
</event>
<event>
 8    1  0.6443238E-009  0.1091999E+03  0.7561462E-02  0.1262059E+00
          2   -1    0    0  501    0  0.00000000000E+00  0.00000000000E+00  0.12553046440E+03  0.12553046440E+03  0.00000000000E+00 0. -1.
         -2   -1    0    0    0  501 -0.00000000000E+00 -0.00000000000E+00 -0.12974250461E+03  0.12974250461E+03  0.00000000000E+00 0.  1.
         25    2    1    2    0    0  0.60364657337E+02 -0.12556410581E+02  0.26494350804E+02  0.14195387200E+03  0.12508955131E+03 0.  0.
         23    2    1    2    0    0 -0.60364657337E+02  0.12556410581E+02 -0.30706391011E+02  0.11331909701E+03  0.89982109317E+02 0.  0.
          5    1    3    3  502    0  0.68267102538E+02 -0.58857575168E+02  0.56914108785E+01  0.90412808835E+02  0.41800000000E+01 0. -1.
         -5    1    3    3    0  502 -0.79024452007E+01  0.46301164587E+02  0.20802939926E+02  0.51541063162E+02  0.41800000000E+01 0. -1.
        -11    1    4    4    0    0 -0.45437628492E+02 -0.16502254552E+02 -0.54540429937E+02  0.72880456818E+02  0.00000000000E+00 0.  1.
         11    1    4    4    0    0 -0.14927028846E+02  0.29058665133E+02  0.23834038926E+02  0.40438640197E+02  0.00000000000E+00 0. -1.
</event>
<event>
 7    1  0.6443238E-009  0.1025015E+03  0.7561462E-02  0.1275122E+00
          2   -1    0    0  501    0  0.00000000000E+00  0.00000000000E+00  0.27913621466E+03  0.27913621466E+03  0.00000000000E+00 0. -1.
         -2   -1    0    0    0  501 -0.00000000000E+00 -0.00000000000E+00 -0.58462934917E+02  0.58462934917E+02  0.00000000000E+00 0.  1.
         23    2    1    2    0    0  0.37608400724E+02 -0.49325076377E+02  0.12899973799E+03  0.17036988451E+03  0.92399189282E+02 0.  0.
          5    1    1    2  502    0 -0.31782778277E+02  0.90600194552E+02  0.75912571700E+02  0.12246930713E+03  0.41800000000E+01 0.  1.
         -5    1    1    2    0  502 -0.58256224468E+01 -0.41275118174E+02  0.15760970043E+02  0.44759957930E+02  0.41800000000E+01 0.  1.
        -11    1    3    3    0    0  0.33057464340E+02 -0.22955481426E+02  0.16935724123E+01  0.40281736105E+02  0.00000000000E+00 0.  1.
         11    1    3    3    0    0  0.45509363845E+01 -0.26369594951E+02  0.12730616558E+03  0.13008814840E+03  0.00000000000E+00 0. -1.
</event>
<event>
 7    1  0.6443238E-009  0.1415006E+03  0.7561462E-02  0.1211324E+00
          2   -1    0    0  501    0  0.00000000000E+00  0.00000000000E+00  0.39416938740E+03  0.39416938740E+03  0.00000000000E+00 0. -1.
         -2   -1    0    0    0  501 -0.00000000000E+00 -0.00000000000E+00 -0.70571756088E+02  0.70571756088E+02  0.00000000000E+00 0.  1.
         25    2    1    2    0    0 -0.15475975967E+02  0.13953167277E+03  0.15188260503E+03  0.24170086058E+03  0.12506952768E+03 0.  0.
          5    1    3    3  502    0  0.50351714913E+01  0.58171908218E+02  0.14621781228E+03  0.15750061868E+03  0.41800000000E+01 0. -1.
         -5    1    3    3    0  502 -0.20511147458E+02  0.81359764556E+02  0.56647927522E+01  0.84200241897E+02  0.41800000000E+01 0. -1.
        -11    1    1    2    0    0  0.39983885319E+01 -0.21850996373E+02  0.42068296650E+02  0.47573046322E+02  0.00000000000E+00 0. -1.
         11    1    1    2    0    0  0.11477587435E+02 -0.11768067640E+03  0.12964672964E+03  0.17546723659E+03  0.00000000000E+00 0.  1.
</event>
<event>
 8    1  0.6443238E-009  0.8861270E+02  0.7561462E-02  0.1306246E+00
          3   -1    0    0  501    0  0.00000000000E+00  0.00000000000E+00  0.65176430003E+02  0.65176430003E+02  0.00000000000E+00 0. -1.
         -3   -1    0    0    0  501 -0.00000000000E+00 -0.00000000000E+00 -0.22575833273E+03  0.22575833273E+03  0.00000000000E+00 0.  1.
         25    2    1    2    0    0  0.25470063330E+02  0.43125180208E+02 -0.66331015170E+02  0.15018534904E+03  0.12508928890E+03 0.  0.
         23    2    1    2    0    0 -0.25470063330E+02 -0.43125180208E+02 -0.94250887556E+02  0.14074941369E+03  0.91753268911E+02 0.  0.
          5    1    3    3  502    0 -0.38409629103E+02 -0.10916814721E+02 -0.51180585659E+02  0.65049221363E+02  0.41800000000E+01 0. -1.
         -5    1    3    3    0  502  0.63879692433E+02  0.54041994929E+02 -0.15150429510E+02  0.85136127676E+02  0.41800000000E+01 0. -1.
        -11    1    4    4    0    0 -0.11300527084E+02 -0.45117141275E+01  0.17701556896E+02  0.21480283827E+02  0.00000000000E+00 0. -1.
         11    1    4    4    0    0 -0.14169536247E+02 -0.38613466080E+02 -0.11195244445E+03  0.11926912987E+03  0.00000000000E+00 0.  1.
</event>
<event>
 8    1  0.6443238E-009  0.1198794E+03  0.7561462E-02  0.1243296E+00
         -2   -1    0    0    0  501 -0.00000000000E+00  0.00000000000E+00  0.85667056081E+03  0.85667056081E+03  0.00000000000E+00 0.  1.
          2   -1    0    0  501    0  0.00000000000E+00 -0.00000000000E+00 -0.19095993298E+02  0.19095993298E+02  0.00000000000E+00 0. -1.
         25    2    1    2    0    0 -0.40192614973E+02 -0.32082153698E+02  0.52904191844E+03  0.54605675123E+03  0.12509161927E+03 0.  0.
         23    2    1    2    0    0  0.40192614973E+02  0.32082153698E+02  0.30853264908E+03  0.32970980288E+03  0.10426623464E+03 0.  0.
          5    1    3    3  502    0 -0.79009979404E+02 -0.12320209144E+02  0.43531357076E+03  0.44261692431E+03  0.41800000000E+01 0.  1.
         -5    1    3    3    0  502  0.38817364432E+02 -0.19761944554E+02  0.93728347672E+02  0.10343982691E+03  0.41800000000E+01 0.  1.
        -11    1    4    4    0    0 -0.35328464346E+02  0.49208054380E+01  0.10677953429E+03  0.11257967695E+03  0.00000000000E+00 0.  1.
         11    1    4    4    0    0  0.75521079319E+02  0.27161348260E+02  0.20175311479E+03  0.21713012593E+03  0.00000000000E+00 0. -1.
</event>
<event>
 8    1  0.6443238E-009  0.1223863E+03  0.7561462E-02  0.1239212E+00
         -1   -1    0    0    0  501 -0.00000000000E+00  0.00000000000E+00  0.86514256723E+02  0.86514256723E+02  0.00000000000E+00 0.  1.
          1   -1    0    0  501    0  0.00000000000E+00 -0.00000000000E+00 -0.28003145757E+03  0.28003145757E+03  0.00000000000E+00 0. -1.
         25    2    1    2    0    0 -0.51118698053E+02 -0.97572003732E+02 -0.12277006662E+03  0.20701583553E+03  0.12509855994E+03 0.  0.
         23    2    1    2    0    0  0.51118698053E+02  0.97572003732E+02 -0.70747134229E+02  0.15952987877E+03  0.91165827015E+02 0.  0.
          5    1    3    3  502    0 -0.60353787922E+02 -0.33316711933E+02 -0.11303641731E+01  0.69074837196E+02  0.41800000000E+01 0. -1.
         -5    1    3    3    0  502  0.92350898690E+01 -0.64255291799E+02 -0.12163970245E+03  0.13794099833E+03  0.41800000000E+01 0. -1.
        -11    1    4    4    0    0  0.43893861742E+02  0.90316350685E+02 -0.13437571617E+02  0.10131279599E+03  0.00000000000E+00 0.  1.
         11    1    4    4    0    0  0.72248363114E+01  0.72556530471E+01 -0.57309562612E+02  0.58217082782E+02  0.00000000000E+00 0. -1.
</event>
<event>
 8    1  0.6443238E-009  0.8751099E+02  0.7561462E-02  0.1308994E+00
         -2   -1    0    0    0  501 -0.00000000000E+00  0.00000000000E+00  0.43137212339E+02  0.43137212339E+02  0.00000000000E+00 0.  1.
          2   -1    0    0  501    0  0.00000000000E+00 -0.00000000000E+00 -0.30767745776E+03  0.30767745776E+03  0.00000000000E+00 0. -1.
         25    2    1    2    0    0  0.24458271966E+01  0.28476707279E+02 -0.10987549858E+03  0.16893095436E+03  0.12509251466E+03 0.  0.
         23    2    1    2    0    0 -0.24458271966E+01 -0.28476707279E+02 -0.15466474685E+03  0.18188371574E+03  0.91343293172E+02 0.  0.
          5    1    3    3  502    0  0.43515643099E+02  0.30671018151E+02 -0.11546340219E+03  0.12721474833E+03  0.41800000000E+01 0. -1.
         -5    1    3    3    0  502 -0.41069815902E+02 -0.21943108725E+01  0.55879036097E+01  0.41716206026E+02  0.41800000000E+01 0. -1.
        -11    1    4    4    0    0  0.34255103113E+02 -0.71705670343E+00 -0.20225190190E+02  0.39786738718E+02  0.00000000000E+00 0.  1.
         11    1    4    4    0    0 -0.36700930310E+02 -0.27759650575E+02 -0.13443955666E+03  0.14209697703E+03  0.00000000000E+00 0. -1.
</event>
<event>
 8    1  0.6443238E-009  0.9576836E+02  0.7561462E-02  0.1289455E+00
         -1   -1    0    0    0  501 -0.00000000000E+00  0.00000000000E+00  0.81049099542E+02  0.81049099542E+02  0.00000000000E+00 0.  1.
          1   -1    0    0  501    0  0.00000000000E+00 -0.00000000000E+00 -0.16386740718E+03  0.16386740718E+03  0.00000000000E+00 0. -1.
         25    2    1    2    0    0 -0.52082786003E+01  0.73972916171E+01 -0.88564164762E+02  0.15353525556E+03  0.12509043661E+03 0.  0.
         23    2    1    2    0    0  0.52082786003E+01 -0.73972916171E+01  0.57458571259E+01  0.91381251158E+02  0.90750603854E+02 0.  0.
          5    1    3    3  502    0 -0.42908960510E+02 -0.29315430159E+02 -0.20346844102E+01  0.52174569266E+02  0.41800000000E+01 0.  1.
         -5    1    3    3    0  502  0.37700681909E+02  0.36712721776E+02 -0.86529480351E+02  0.10136068630E+03  0.41800000000E+01 0.  1.
        -11    1    4    4    0    0 -0.27357056324E+02  0.27563520706E+02 -0.11633932569E+02  0.40540160229E+02  0.00000000000E+00 0. -1.
         11    1    4    4    0    0  0.32565334924E+02 -0.34960812323E+02  0.17379789695E+02  0.50841090929E+02  0.00000000000E+00 0.  1.
</event>
<event>
 8    1  0.6443238E-009  0.1400438E+03  0.7561462E-02  0.1213270E+00
         -2   -1    0    0    0  501 -0.00000000000E+00  0.00000000000E+00  0.17586260317E+03  0.17586260317E+03  0.00000000000E+00 0.  1.
          2   -1    0    0  501    0  0.00000000000E+00 -0.00000000000E+00 -0.13318742618E+03  0.13318742618E+03  0.00000000000E+00 0. -1.
         25    2    1    2    0    0 -0.50802028616E+02  0.81732628369E+02  0.73280996526E+02  0.17400970419E+03  0.12509278176E+03 0.  0.
         23    2    1    2    0    0  0.50802028616E+02 -0.81732628369E+02 -0.30605819538E+02  0.13504032515E+03  0.89655477115E+02 0.  0.
          5    1    3    3  502    0  0.25919646296E+02  0.66254463395E+02  0.62695168869E+02  0.94919116006E+02  0.41800000000E+01 0. -1.
         -5    1    3    3    0  502 -0.76721674912E+02  0.15478164975E+02  0.10585827657E+02  0.79090588185E+02  0.41800000000E+01 0. -1.
        -11    1    4    4    0    0  0.72157211011E+02 -0.37490775513E+02 -0.10627349846E+02  0.82007084536E+02  0.00000000000E+00 0.  1.
         11    1    4    4    0    0 -0.21355182395E+02 -0.44241852857E+02 -0.19978469692E+02  0.53033240619E+02  0.00000000000E+00 0. -1.
</event>
<event>
 8    1  0.6443238E-009  0.1200955E+03  0.7561462E-02  0.1242940E+00
          1   -1    0    0  501    0  0.00000000000E+00  0.00000000000E+00  0.17629460445E+03  0.17629460445E+03  0.00000000000E+00 0. -1.
         -1   -1    0    0    0  501 -0.00000000000E+00 -0.00000000000E+00 -0.12483091013E+03  0.12483091013E+03  0.00000000000E+00 0.  1.
         25    2    1    2    0    0  0.75237641130E+02  0.52792165871E+02 -0.15813396727E+02  0.15604384865E+03  0.12510756878E+03 0.  0.
         23    2    1    2    0    0 -0.75237641130E+02 -0.52792165871E+02  0.67277091038E+02  0.14508166593E+03  0.89859709492E+02 0.  0.
          5    1    3    3  502    0  0.34630709197E+02  0.71211106701E+02  0.36403473087E+02  0.87252466956E+02  0.41800000000E+01 0. -1.
         -5    1    3    3    0  502  0.40606931933E+02 -0.18418940831E+02 -0.52216869813E+02  0.68791381694E+02  0.41800000000E+01 0. -1.
        -11    1    4    4    0    0 -0.15543734065E+02 -0.54215870523E+02  0.63965147845E+02  0.85279003419E+02  0.00000000000E+00 0. -1.
         11    1    4    4    0    0 -0.59693907065E+02  0.14237046519E+01  0.33119431928E+01  0.59802662510E+02  0.00000000000E+00 0.  1.
</event>
<event>
 8    1  0.6443238E-009  0.1292940E+03  0.7561462E-02  0.1228507E+00
          2   -1    0    0  501    0  0.00000000000E+00  0.00000000000E+00  0.45922935352E+03  0.45922935352E+03  0.00000000000E+00 0. -1.
         -2   -1    0    0    0  501 -0.00000000000E+00 -0.00000000000E+00 -0.46792143286E+02  0.46792143286E+02  0.00000000000E+00 0.  1.
         25    2    1    2    0    0  0.29691888441E+01 -0.95833272692E+02  0.26335073700E+03  0.30690925799E+03  0.12508736838E+03 0.  0.
         23    2    1    2    0    0 -0.29691888441E+01  0.95833272692E+02  0.14908647324E+03  0.19911223881E+03  0.90697711681E+02 0.  0.
          5    1    3    3  502    0 -0.50549148503E+02 -0.84234953866E+02  0.20139249202E+03  0.22411414973E+03  0.41800000000E+01 0. -1.
         -5    1    3    3    0  502  0.53518337347E+02 -0.11598318826E+02  0.61958244975E+02  0.82795108264E+02  0.41800000000E+01 0. -1.
        -11    1    4    4    0    0  0.19341985663E+02  0.28801315005E+02  0.11604462023E+03  0.12111970128E+03  0.00000000000E+00 0. -1.
         11    1    4    4    0    0 -0.22311174507E+02  0.67031957687E+02  0.33041853008E+02  0.77992537524E+02  0.00000000000E+00 0.  1.
</event>
<event>
 7    1  0.6443238E-009  0.1234134E+03  0.7561462E-02  0.1237570E+00
         -3   -1    0    0    0  501 -0.00000000000E+00  0.00000000000E+00  0.10433561924E+03  0.10433561924E+03  0.00000000000E+00 0.  1.
          3   -1    0    0  501    0  0.00000000000E+00 -0.00000000000E+00 -0.20071918816E+03  0.20071918816E+03  0.00000000000E+00 0. -1.
         23    2    1    2    0    0 -0.85484175996E+02  0.12525690487E+01 -0.83469457579E+00  0.12587147681E+03  0.92378670066E+02 0.  0.
          5    1    1    2  502    0 -0.18977268675E+01 -0.50732558034E+02 -0.35761414948E+02  0.62239416859E+02  0.41800000000E+01 0.  1.
         -5    1    1    2    0  502  0.87381902864E+02  0.49479988985E+02 -0.59787459402E+02  0.11694391374E+03  0.41800000000E+01 0.  1.
        -11    1    3    3    0    0 -0.83750754569E+02 -0.96836829345E+01  0.32797461122E+02  0.90463451526E+02  0.00000000000E+00 0.  1.
         11    1    3    3    0    0 -0.17334214275E+01  0.10936251983E+02 -0.33632155698E+02  0.35408025279E+02  0.00000000000E+00 0. -1.
</event>
<event>
 8    1  0.6443238E-009  0.1151799E+03  0.7561462E-02  0.1251267E+00
          4   -1    0    0  501    0  0.00000000000E+00  0.00000000000E+00  0.96286519178E+02  0.96286519178E+02  0.00000000000E+00 0.  1.
         -4   -1    0    0    0  501 -0.00000000000E+00 -0.00000000000E+00 -0.17237918559E+03  0.17237918559E+03  0.00000000000E+00 0. -1.
         25    2    1    2    0    0  0.24190652425E+02 -0.55982968962E+02 -0.81002563573E+01  0.13940007425E+03  0.12508991194E+03 0.  0.
         23    2    1    2    0    0 -0.24190652425E+02  0.55982968962E+02 -0.67992410054E+02  0.12926563052E+03  0.91473247076E+02 0.  0.
          5    1    3    3  502    0  0.64720173420E+02 -0.63523460822E+02 -0.25746795566E+02  0.94362602785E+02  0.41800000000E+01 0.  1.
         -5    1    3    3    0  502 -0.40529520996E+02  0.75404918600E+01  0.17646539208E+02  0.45037471462E+02  0.41800000000E+01 0.  1.
        -11    1    4    4    0    0 -0.43458218720E+02  0.51294133608E+01 -0.20717825132E+01  0.43808902503E+02  0.00000000000E+00 0.  1.
         11    1    4    4    0    0  0.19267566295E+02  0.50853555601E+02 -0.65920627541E+02  0.85456728018E+02  0.00000000000E+00 0. -1.
</event>
<event>
 8    1  0.6443238E-009  0.8977389E+02  0.7561462E-02  0.1303400E+00
         -3   -1    0    0    0  501 -0.00000000000E+00  0.00000000000E+00  0.22160361135E+03  0.22160361135E+03  0.00000000000E+00 0.  1.
          3   -1    0    0  501    0  0.00000000000E+00 -0.00000000000E+00 -0.88359076251E+02  0.88359076251E+02  0.00000000000E+00 0. -1.
         25    2    1    2    0    0  0.70974639522E+02  0.25291489308E+02  0.11941978273E+03  0.18864311383E+03  0.12509228993E+03 0.  0.
         23    2    1    2    0    0 -0.70974639522E+02 -0.25291489308E+02  0.13824752362E+02  0.12131957377E+03  0.94075800904E+02 0.  0.
          5    1    3    3  502    0  0.78767728335E+02  0.37157694039E+02  0.13900940058E+03  0.16409184959E+03  0.41800000000E+01 0. -1.
         -5    1    3    3    0  502 -0.77930888131E+01 -0.11866204731E+02 -0.19589617848E+02  0.24551264232E+02  0.41800000000E+01 0. -1.
        -11    1    4    4    0    0 -0.30181221031E+02 -0.12533863708E+01  0.52241417800E+02  0.60346025669E+02  0.00000000000E+00 0.  1.
         11    1    4    4    0    0 -0.40793418491E+02 -0.24038102937E+02 -0.38416665437E+02  0.60973548103E+02  0.00000000000E+00 0. -1.
</event>
<event>
 8    1  0.6443238E-009  0.7975381E+02  0.7561462E-02  0.1329752E+00
         -1   -1    0    0    0  501 -0.00000000000E+00  0.00000000000E+00  0.85280781816E+02  0.85280781816E+02  0.00000000000E+00 0.  1.
          1   -1    0    0  501    0  0.00000000000E+00 -0.00000000000E+00 -0.15002835424E+03  0.15002835424E+03  0.00000000000E+00 0. -1.
         25    2    1    2    0    0 -0.10283720181E+01 -0.22348818412E+02 -0.14156877920E+02  0.12785847021E+03  0.12508734539E+03 0.  0.
         23    2    1    2    0    0  0.10283720181E+01  0.22348818412E+02 -0.50590694501E+02  0.10745066584E+03  0.92117859219E+02 0.  0.
          5    1    3    3  502    0  0.10097156213E+01 -0.47545772422E+02  0.43612555271E+02  0.64661792258E+02  0.41800000000E+01 0.  1.
         -5    1    3    3    0  502 -0.20380876394E+01  0.25196954010E+02 -0.57769433191E+02  0.63196677949E+02  0.41800000000E+01 0.  1.
        -11    1    4    4    0    0 -0.33998530945E+02 -0.12983540563E+02 -0.44254418217E+02  0.57296823329E+02  0.00000000000E+00 0. -1.
         11    1    4    4    0    0  0.35026902963E+02  0.35332358975E+02 -0.63362762841E+01  0.50153842516E+02  0.00000000000E+00 0.  1.
</event>
<event>
 8    1  0.6443238E-009  0.1332898E+03  0.7561462E-02  0.1222654E+00
         -1   -1    0    0    0  501 -0.00000000000E+00  0.00000000000E+00  0.22968920869E+03  0.22968920869E+03  0.00000000000E+00 0.  1.
          1   -1    0    0  501    0  0.00000000000E+00 -0.00000000000E+00 -0.87408533850E+02  0.87408533850E+02  0.00000000000E+00 0. -1.
         25    2    1    2    0    0 -0.85479774455E+02  0.19808653075E+02  0.10361395365E+03  0.18461285388E+03  0.12508748878E+03 0.  0.
         23    2    1    2    0    0  0.85479774455E+02 -0.19808653075E+02  0.38666721192E+02  0.13248488866E+03  0.91421856353E+02 0.  0.
          5    1    3    3  502    0 -0.48597381062E+01 -0.39786067948E+02  0.66241364551E+02  0.77536694764E+02  0.41800000000E+01 0. -1.
         -5    1    3    3    0  502 -0.80620036349E+02  0.59594721023E+02  0.37372589099E+02  0.10707615911E+03  0.41800000000E+01 0. -1.
        -11    1    4    4    0    0  0.57205546080E+02 -0.55972150340E+02  0.31569914220E+02  0.86034967309E+02  0.00000000000E+00 0.  1.
         11    1    4    4    0    0  0.28274228376E+02  0.36163497266E+02  0.70968069723E+01  0.46449921355E+02  0.00000000000E+00 0. -1.
</event>
<event>
 8    1  0.6443238E-009  0.1250456E+03  0.7561462E-02  0.1234998E+00
          2   -1    0    0  501    0  0.00000000000E+00  0.00000000000E+00  0.40908569023E+03  0.40908569023E+03  0.00000000000E+00 0. -1.
         -2   -1    0    0    0  501 -0.00000000000E+00 -0.00000000000E+00 -0.61035823239E+02  0.61035823239E+02  0.00000000000E+00 0.  1.
         25    2    1    2    0    0 -0.13342012953E+02 -0.62247950743E+02  0.44909149781E+02  0.14736864653E+03  0.12509144481E+03 0.  0.
         23    2    1    2    0    0  0.13342012953E+02  0.62247950743E+02  0.30314071721E+03  0.32275286694E+03  0.90676909979E+02 0.  0.
          5    1    3    3  502    0  0.53104593734E+02 -0.48596936784E+02  0.18380621177E+02  0.74411556732E+02  0.41800000000E+01 0.  1.
         -5    1    3    3    0  502 -0.66446606688E+02 -0.13651013959E+02  0.26528528604E+02  0.72957089802E+02  0.41800000000E+01 0.  1.
        -11    1    4    4    0    0 -0.38524583556E+02  0.21933309638E+02  0.14119418840E+03  0.14798990657E+03  0.00000000000E+00 0. -1.
         11    1    4    4    0    0  0.51866596509E+02  0.40314641105E+02  0.16194652882E+03  0.17476296037E+03  0.00000000000E+00 0.  1.
</event>
<event>
 8    1  0.6443238E-009  0.8878875E+02  0.7561462E-02  0.1305812E+00
         -4   -1    0    0    0  501 -0.00000000000E+00  0.00000000000E+00  0.15063842252E+03  0.15063842252E+03  0.00000000000E+00 0.  1.
          4   -1    0    0  501    0  0.00000000000E+00 -0.00000000000E+00 -0.95416452168E+02  0.95416452168E+02  0.00000000000E+00 0. -1.
         25    2    1    2    0    0 -0.37073145066E+02  0.35246004234E+02  0.29280019002E+02  0.13828035190E+03  0.12508971704E+03 0.  0.
         23    2    1    2    0    0  0.37073145066E+02 -0.35246004234E+02  0.25941951347E+02  0.10777452279E+03  0.91245076705E+02 0.  0.
          5    1    3    3  502    0 -0.67546296767E+02  0.54416022173E+02  0.46107875934E+02  0.98320975886E+02  0.41800000000E+01 0.  1.
         -5    1    3    3    0  502  0.30473151701E+02 -0.19170017940E+02 -0.16827856932E+02  0.39959376012E+02  0.41800000000E+01 0.  1.
        -11    1    4    4    0    0  0.40978226123E+01 -0.15559393451E+02 -0.33409054725E+02  0.37081691066E+02  0.00000000000E+00 0. -1.
         11    1    4    4    0    0  0.32975322454E+02 -0.19686610783E+02  0.59351006072E+02  0.70692831722E+02  0.00000000000E+00 0.  1.
</event>
<event>
 7    1  0.6443238E-009  0.2601357E+03  0.7561462E-02  0.1107062E+00
         -3   -1    0    0    0  501 -0.00000000000E+00  0.00000000000E+00  0.10536462782E+04  0.10536462782E+04  0.00000000000E+00 0. -1.
          3   -1    0    0  501    0  0.00000000000E+00 -0.00000000000E+00 -0.72333337383E+02  0.72333337383E+02  0.00000000000E+00 0.  1.
         23    2    1    2    0    0 -0.68026882724E+02 -0.24357571186E+03  0.44213850243E+03  0.51757280497E+03  0.91860595121E+02 0.  0.
          5    1    1    2  502    0  0.43780743958E+01  0.48314236281E+02  0.24387403033E+03  0.24868745049E+03  0.41800000000E+01 0.  1.
         -5    1    1    2    0  502  0.63648808328E+02  0.19526147558E+03  0.29530040810E+03  0.35971936015E+03  0.41800000000E+01 0.  1.
        -11    1    3    3    0    0  0.40001820311E+01 -0.13971053068E+03  0.19409196732E+03  0.23917927506E+03  0.00000000000E+00 0.  1.
         11    1    3    3    0    0 -0.72027064755E+02 -0.10386518118E+03  0.24804653510E+03  0.27839352991E+03  0.00000000000E+00 0. -1.
</event>
<event>
 8    1  0.6443238E-009  0.1106104E+03  0.7561462E-02  0.1259444E+00
         -1   -1    0    0    0  501 -0.00000000000E+00  0.00000000000E+00  0.15712292592E+04  0.15712292592E+04  0.00000000000E+00 0.  1.
          1   -1    0    0  501    0  0.00000000000E+00 -0.00000000000E+00 -0.14511781777E+02  0.14511781777E+02  0.00000000000E+00 0. -1.
         25    2    1    2    0    0 -0.13011262737E+02 -0.82357315985E+02  0.11832951776E+04  0.11928057776E+04  0.12508447327E+03 0.  0.
         23    2    1    2    0    0  0.13011262737E+02  0.82357315985E+02  0.37342229988E+03  0.39293526336E+03  0.89453265420E+02 0.  0.
          5    1    3    3  502    0 -0.31191942140E+02 -0.60291996915E+00  0.74928412668E+02  0.81271398363E+02  0.41800000000E+01 0.  1.
         -5    1    3    3    0  502  0.18180679403E+02 -0.81754396016E+02  0.11083667649E+04  0.11115343793E+04  0.41800000000E+01 0.  1.
        -11    1    4    4    0    0  0.38636469696E+02  0.35437042296E+02  0.87072270879E+02  0.10163730178E+03  0.00000000000E+00 0. -1.
         11    1    4    4    0    0 -0.25625206959E+02  0.46920273689E+02  0.28635002900E+03  0.29129796158E+03  0.00000000000E+00 0.  1.
</event>
<event>
 8    1  0.6443238E-009  0.1091722E+03  0.7561462E-02  0.1262111E+00
         -2   -1    0    0    0  501 -0.00000000000E+00  0.00000000000E+00  0.92850924235E+02  0.92850924235E+02  0.00000000000E+00 0.  1.
          2   -1    0    0  501    0  0.00000000000E+00 -0.00000000000E+00 -0.13941891446E+03  0.13941891446E+03  0.00000000000E+00 0. -1.
         25    2    1    2    0    0  0.26990677504E+01 -0.35985148354E+02 -0.21413290873E+02  0.13195729079E+03  0.12510788023E+03 0.  0.
         23    2    1    2    0    0 -0.26990677504E+01  0.35985148354E+02 -0.25154699357E+02  0.10031254791E+03  0.90153383189E+02 0.  0.
          5    1    3    3  502    0 -0.56207202503E+02 -0.42303633452E+02 -0.68349586857E+01  0.70802797096E+02  0.41800000000E+01 0. -1.
         -5    1    3    3    0  502  0.58906270253E+02  0.63184850977E+01 -0.14578332187E+02  0.61154493690E+02  0.41800000000E+01 0. -1.
        -11    1    4    4    0    0  0.34920767168E+02  0.36960639414E+02  0.63373008460E+01  0.51241684472E+02  0.00000000000E+00 0. -1.
         11    1    4    4    0    0 -0.37619834918E+02 -0.97549106008E+00 -0.31492000203E+02  0.49070863442E+02  0.00000000000E+00 0.  1.
</event>
<event>
 8    1  0.6443238E-009  0.9520824E+02  0.7561462E-02  0.1290708E+00
          1   -1    0    0  501    0  0.00000000000E+00  0.00000000000E+00  0.35771204927E+03  0.35771204927E+03  0.00000000000E+00 0. -1.
         -1   -1    0    0    0  501 -0.00000000000E+00 -0.00000000000E+00 -0.40278426063E+02  0.40278426063E+02  0.00000000000E+00 0.  1.
         25    2    1    2    0    0  0.20267131701E+00 -0.57490267197E+02  0.14992023380E+03  0.20352404845E+03  0.12506314364E+03 0.  0.
         23    2    1    2    0    0 -0.20267131701E+00  0.57490267197E+02  0.16751338941E+03  0.19446642688E+03  0.80319883315E+02 0.  0.
          5    1    3    3  502    0  0.39690116740E+02 -0.42359416782E+02  0.15014539295E+03  0.16103023623E+03  0.41800000000E+01 0.  1.
         -5    1    3    3    0  502 -0.39487445423E+02 -0.15130850415E+02 -0.22515914800E+00  0.42493812220E+02  0.41800000000E+01 0.  1.
        -11    1    4    4    0    0 -0.25851943579E+02  0.58602241714E+02  0.15078197204E+03  0.16382230865E+03  0.00000000000E+00 0. -1.
         11    1    4    4    0    0  0.25649272262E+02 -0.11119745168E+01  0.16731417369E+02  0.30644118229E+02  0.00000000000E+00 0.  1.
</event>
<event>
 8    1  0.6443238E-009  0.2057268E+03  0.7561462E-02  0.1144995E+00
         -2   -1    0    0    0  501 -0.00000000000E+00  0.00000000000E+00  0.43887278641E+02  0.43887278641E+02  0.00000000000E+00 0.  1.
          2   -1    0    0  501    0  0.00000000000E+00 -0.00000000000E+00 -0.11847913871E+04  0.11847913871E+04  0.00000000000E+00 0. -1.
         25    2    1    2    0    0  0.18888514235E+03 -0.68459276914E+02 -0.58632127794E+03  0.63228521611E+03  0.12509070291E+03 0.  0.
         23    2    1    2    0    0 -0.18888514235E+03  0.68459276914E+02 -0.55458283051E+03  0.59639344962E+03  0.88083830859E+02 0.  0.
          5    1    3    3  502    0  0.63947658050E+02  0.70845129511E+01 -0.33881585756E+03  0.34489585534E+03  0.41800000000E+01 0.  1.
         -5    1    3    3    0  502  0.12493748430E+03 -0.75543789865E+02 -0.24750542037E+03  0.28738936077E+03  0.41800000000E+01 0.  1.
        -11    1    4    4    0    0 -0.11125440383E+03  0.41356939848E+02 -0.20147015922E+03  0.23383362440E+03  0.00000000000E+00 0.  1.
         11    1    4    4    0    0 -0.77630738519E+02  0.27102337066E+02 -0.35311267129E+03  0.36255982522E+03  0.00000000000E+00 0. -1.
</event>
<event>
 8    1  0.6443238E-009  0.8579414E+02  0.7561462E-02  0.1313369E+00
         -2   -1    0    0    0  501 -0.00000000000E+00  0.00000000000E+00  0.11871660794E+03  0.11871660794E+03  0.00000000000E+00 0. -1.
          2   -1    0    0  501    0  0.00000000000E+00 -0.00000000000E+00 -0.13019600818E+03  0.13019600818E+03  0.00000000000E+00 0.  1.
         25    2    1    2    0    0  0.29383813630E+02  0.38650155788E+02 -0.44840655492E+02  0.14147756432E+03  0.12509186135E+03 0.  0.
         23    2    1    2    0    0 -0.29383813630E+02 -0.38650155788E+02  0.33361255251E+02  0.10743505179E+03  0.89844721356E+02 0.  0.
          5    1    3    3  502    0 -0.19808780114E+02  0.12513044081E+02 -0.74514850009E+02  0.78223393647E+02  0.41800000000E+01 0. -1.
         -5    1    3    3    0  502  0.49192593744E+02  0.26137111706E+02  0.29674194516E+02  0.63254170675E+02  0.41800000000E+01 0. -1.
        -11    1    4    4    0    0 -0.21307106075E+02  0.22066886579E+02 -0.10140235409E+02  0.32307346327E+02  0.00000000000E+00 0.  1.
         11    1    4    4    0    0 -0.80767075559E+01 -0.60717042366E+02  0.43501490660E+02  0.75127705464E+02  0.00000000000E+00 0. -1.
</event>
<event>
 8    1  0.6443238E-009  0.7599443E+02  0.7561462E-02  0.1340819E+00
          1   -1    0    0  501    0  0.00000000000E+00  0.00000000000E+00  0.48246386292E+03  0.48246386292E+03  0.00000000000E+00 0. -1.
         -1   -1    0    0    0  501 -0.00000000000E+00 -0.00000000000E+00 -0.25637982596E+02  0.25637982596E+02  0.00000000000E+00 0.  1.
         25    2    1    2    0    0 -0.19850716465E+02 -0.34052317569E+01  0.30182849639E+03  0.32734544970E+03  0.12509578592E+03 0.  0.
         23    2    1    2    0    0  0.19850716465E+02  0.34052317569E+01  0.15499738393E+03  0.18075639582E+03  0.90791183800E+02 0.  0.
          5    1    3    3  502    0 -0.34320385757E+01 -0.46167796677E+02  0.26322030367E+03  0.26729318173E+03  0.41800000000E+01 0. -1.
         -5    1    3    3    0  502 -0.16418677890E+02  0.42762564920E+02  0.38608192727E+02  0.60052267966E+02  0.41800000000E+01 0. -1.
        -11    1    4    4    0    0 -0.19537670296E+02  0.47153378443E+01 -0.73767278672E+00  0.20112163800E+02  0.00000000000E+00 0.  1.
         11    1    4    4    0    0  0.39388386761E+02 -0.13101060873E+01  0.15573505672E+03  0.16064423202E+03  0.00000000000E+00 0. -1.
</event>
<event>
 8    1  0.6443238E-009  0.8256931E+02  0.7561462E-02  0.1321914E+00
         -2   -1    0    0    0  501 -0.00000000000E+00  0.00000000000E+00  0.16955442224E+03  0.16955442224E+03  0.00000000000E+00 0. -1.
          2   -1    0    0  501    0  0.00000000000E+00 -0.00000000000E+00 -0.14441320070E+03  0.14441320070E+03  0.00000000000E+00 0.  1.
         25    2    1    2    0    0  0.22180997643E+02 -0.53616904471E+02  0.10874039437E+03  0.17561176737E+03  0.12509296691E+03 0.  0.
         23    2    1    2    0    0 -0.22180997643E+02  0.53616904471E+02 -0.83599172827E+02  0.13835585557E+03  0.93737676368E+02 0.  0.
          5    1    3    3  502    0 -0.25870655312E+02 -0.43753145095E+02  0.11517485585E+03  0.12596169390E+03  0.41800000000E+01 0.  1.
         -5    1    3    3    0  502  0.48051652955E+02 -0.98637593754E+01 -0.64344614765E+01  0.49650073467E+02  0.41800000000E+01 0.  1.
        -11    1    4    4    0    0 -0.22474225316E+02  0.16728447866E+02 -0.95554699468E+02  0.99577268300E+02  0.00000000000E+00 0.  1.
         11    1    4    4    0    0  0.29322767259E+00  0.36888456605E+02  0.11955526641E+02  0.38778587267E+02  0.00000000000E+00 0. -1.
</event>
<event>
 8    1  0.6443238E-009  0.1413482E+03  0.7561462E-02  0.1211526E+00
          1   -1    0    0  501    0  0.00000000000E+00  0.00000000000E+00  0.49491232379E+03  0.49491232379E+03  0.00000000000E+00 0. -1.
         -1   -1    0    0    0  501 -0.00000000000E+00 -0.00000000000E+00 -0.53166275607E+02  0.53166275607E+02  0.00000000000E+00 0.  1.
         25    2    1    2    0    0 -0.70553240084E+02 -0.92825683496E+02  0.27055837022E+03  0.32006877711E+03  0.12509125941E+03 0.  0.
         23    2    1    2    0    0  0.70553240084E+02  0.92825683496E+02  0.17118767795E+03  0.22800982228E+03  0.95335674176E+02 0.  0.
          5    1    3    3  502    0 -0.10272529879E+03 -0.56321964780E+02  0.22281967539E+03  0.25177515936E+03  0.41800000000E+01 0.  1.
         -5    1    3    3    0  502  0.32172058705E+02 -0.36503718716E+02  0.47738694828E+02  0.68293617750E+02  0.41800000000E+01 0.  1.
        -11    1    4    4    0    0  0.56352645071E+02  0.76060572140E+02  0.18075807691E+03  0.20404488136E+03  0.00000000000E+00 0. -1.
         11    1    4    4    0    0  0.14200595014E+02  0.16765111356E+02 -0.95703989511E+01  0.23964940927E+02  0.00000000000E+00 0.  1.
</event>
<event>
 7    1  0.6443238E-009  0.1303370E+03  0.7561462E-02  0.1226956E+00
          3   -1    0    0  501    0  0.00000000000E+00  0.00000000000E+00  0.30410070965E+03  0.30410070965E+03  0.00000000000E+00 0. -1.
         -3   -1    0    0    0  501 -0.00000000000E+00 -0.00000000000E+00 -0.72667647905E+02  0.72667647905E+02  0.00000000000E+00 0.  1.
         23    2    1    2    0    0 -0.72163376065E+02  0.10714892194E+02  0.17503188180E+02  0.11847291949E+03  0.91690290085E+02 0.  0.
          5    1    1    2  502    0  0.68671558977E+02  0.48411838344E+02  0.10846769483E+03  0.13726690179E+03  0.41800000000E+01 0. -1.
         -5    1    1    2    0  502  0.34918170883E+01 -0.59126730538E+02  0.10546217873E+03  0.12102853628E+03  0.41800000000E+01 0. -1.
        -11    1    3    3    0    0 -0.92844886463E+01  0.44729428397E+02  0.69939221987E+01  0.46215132174E+02  0.00000000000E+00 0.  1.
         11    1    3    3    0    0 -0.62878887419E+02 -0.34014536203E+02  0.10509265981E+02  0.72257787315E+02  0.00000000000E+00 0. -1.
</event>
<event>
 8    1  0.6443238E-009  0.9482144E+02  0.7561462E-02  0.1291579E+00
          3   -1    0    0  501    0  0.00000000000E+00  0.00000000000E+00  0.39384296294E+03  0.39384296294E+03  0.00000000000E+00 0. -1.
         -3   -1    0    0    0  501 -0.00000000000E+00 -0.00000000000E+00 -0.38400513684E+02  0.38400513684E+02  0.00000000000E+00 0.  1.
         25    2    1    2    0    0 -0.16498158107E+02  0.43558695421E+02  0.14677495038E+03  0.19839613287E+03  0.12509432565E+03 0.  0.
         23    2    1    2    0    0  0.16498158107E+02 -0.43558695421E+02  0.20866749887E+03  0.23384734375E+03  0.94725423867E+02 0.  0.
          5    1    3    3  502    0 -0.48652217673E+02  0.73190109569E+02  0.11166818011E+03  0.14216569654E+03  0.41800000000E+01 0.  1.
         -5    1    3    3    0  502  0.32154059566E+02 -0.29631414147E+02  0.35106770268E+02  0.56230436328E+02  0.41800000000E+01 0.  1.
        -11    1    4    4    0    0  0.26919923452E+02 -0.26711622693E+02  0.21055927813E+03  0.21394719599E+03  0.00000000000E+00 0. -1.
         11    1    4    4    0    0 -0.10421765345E+02 -0.16847072728E+02 -0.18917792526E+01  0.19900147767E+02  0.00000000000E+00 0.  1.
</event>
<event>
 8    1  0.6443238E-009  0.1025442E+03  0.7561462E-02  0.1275035E+00
         -1   -1    0    0    0  501 -0.00000000000E+00  0.00000000000E+00  0.31963743461E+02  0.31963743461E+02  0.00000000000E+00 0.  1.
          1   -1    0    0  501    0  0.00000000000E+00 -0.00000000000E+00 -0.58369030618E+03  0.58369030618E+03  0.00000000000E+00 0. -1.
         25    2    1    2    0    0 -0.49003143169E+02  0.41417954994E+02 -0.18502730065E+03  0.23237821558E+03  0.12509107904E+03 0.  0.
         23    2    1    2    0    0  0.49003143169E+02 -0.41417954994E+02 -0.36669926207E+03  0.38327583406E+03  0.91188053692E+02 0.  0.
          5    1    3    3  502    0 -0.44817906475E+02  0.66703637852E+02 -0.18963684287E+03  0.20600394321E+03  0.41800000000E+01 0.  1.
         -5    1    3    3    0  502 -0.41852366942E+01 -0.25285682858E+02  0.46095422197E+01  0.26374272374E+02  0.41800000000E+01 0.  1.
        -11    1    4    4    0    0 -0.18656897913E+02 -0.20748064087E+02 -0.38559533241E+02  0.47596214207E+02  0.00000000000E+00 0.  1.
         11    1    4    4    0    0  0.67660041082E+02 -0.20669890908E+02 -0.32813972882E+03  0.33567961985E+03  0.00000000000E+00 0. -1.
</event>
<event>
 8    1  0.6443238E-009  0.8302252E+02  0.7561462E-02  0.1320686E+00
          1   -1    0    0  501    0  0.00000000000E+00  0.00000000000E+00  0.44061879631E+03  0.44061879631E+03  0.00000000000E+00 0. -1.
         -1   -1    0    0    0  501 -0.00000000000E+00 -0.00000000000E+00 -0.27014898819E+02  0.27014898819E+02  0.00000000000E+00 0.  1.
         25    2    1    2    0    0 -0.58155988546E+01 -0.42173371554E+01  0.27313227251E+03  0.30050090360E+03  0.12509175694E+03 0.  0.
         23    2    1    2    0    0  0.58155988546E+01  0.42173371554E+01  0.14047162498E+03  0.16713279153E+03  0.90274500591E+02 0.  0.
          5    1    3    3  502    0 -0.12587502525E+02 -0.50168558995E+02  0.23381266457E+03  0.23950190822E+03  0.41800000000E+01 0. -1.
         -5    1    3    3    0  502  0.67719036709E+01  0.45951221840E+02  0.39319607940E+02  0.60998995372E+02  0.41800000000E+01 0. -1.
        -11    1    4    4    0    0  0.28116843242E+02 -0.20069614346E+02  0.12682858088E+03  0.13144898334E+03  0.00000000000E+00 0.  1.
         11    1    4    4    0    0 -0.22301244388E+02  0.24286951501E+02  0.13643044104E+02  0.35683808189E+02  0.00000000000E+00 0. -1.
</event>
<event>
 7    1  0.6443238E-009  0.1234578E+03  0.7561462E-02  0.1237499E+00
          2   -1    0    0  501    0  0.00000000000E+00  0.00000000000E+00  0.13736722602E+04  0.13736722602E+04  0.00000000000E+00 0.  1.
         -2   -1    0    0    0  501 -0.00000000000E+00 -0.00000000000E+00 -0.14266289208E+02  0.14266289208E+02  0.00000000000E+00 0. -1.
         23    2    1    2    0    0 -0.73325135398E+02  0.30174290596E+02  0.45773392634E+03  0.47419346217E+03  0.95142151262E+02 0.  0.
          5    1    1    2  502    0  0.69588452768E+02  0.24599292195E+02  0.27847848103E+03  0.28812395723E+03  0.41800000000E+01 0. -1.
         -5    1    1    2    0  502  0.37366826301E+01 -0.54773582791E+02  0.62319356363E+03  0.62562113002E+03  0.41800000000E+01 0. -1.
        -11    1    3    3    0    0 -0.93641889502E+02  0.26054007525E+02  0.42040012727E+03  0.43149030323E+03  0.00000000000E+00 0.  1.
         11    1    3    3    0    0  0.20316754104E+02  0.41202830719E+01  0.37333799074E+02  0.42703158938E+02  0.00000000000E+00 0. -1.
</event>
<event>
 8    1  0.6443238E-009  0.1009386E+03  0.7561462E-02  0.1278335E+00
         -2   -1    0    0    0  501 -0.00000000000E+00  0.00000000000E+00  0.14333575858E+03  0.14333575858E+03  0.00000000000E+00 0.  1.
          2   -1    0    0  501    0  0.00000000000E+00 -0.00000000000E+00 -0.91725862892E+02  0.91725862892E+02  0.00000000000E+00 0. -1.
         25    2    1    2    0    0  0.16689250395E+02 -0.30191795660E+02  0.14734397397E+02  0.13059466397E+03  0.12509111954E+03 0.  0.
         23    2    1    2    0    0 -0.16689250395E+02  0.30191795660E+02  0.36875498295E+02  0.10446695750E+03  0.91451994136E+02 0.  0.
          5    1    3    3  502    0  0.10039054150E+02 -0.66581969550E+02  0.46268601788E+02  0.81805850578E+02  0.41800000000E+01 0. -1.
         -5    1    3    3    0  502  0.66501962450E+01  0.36390173890E+02 -0.31534204391E+02  0.48788813395E+02  0.41800000000E+01 0. -1.
        -11    1    4    4    0    0 -0.54301693170E+02  0.13036277638E+02  0.26667374086E+02  0.61885113367E+02  0.00000000000E+00 0. -1.
         11    1    4    4    0    0  0.37612442775E+02  0.17155518022E+02  0.10208124209E+02  0.42581844135E+02  0.00000000000E+00 0.  1.
</event>
<event>
 8    1  0.6443238E-009  0.7529236E+02  0.7561462E-02  0.1342968E+00
         -1   -1    0    0    0  501 -0.00000000000E+00  0.00000000000E+00  0.52393687234E+02  0.52393687234E+02  0.00000000000E+00 0.  1.
          1   -1    0    0  501    0  0.00000000000E+00 -0.00000000000E+00 -0.23739133438E+03  0.23739133438E+03  0.00000000000E+00 0. -1.
         25    2    1    2    0    0 -0.12437263918E+02  0.72920052212E+01 -0.13900636449E+03  0.18756039098E+03  0.12509305345E+03 0.  0.
         23    2    1    2    0    0  0.12437263918E+02 -0.72920052212E+01 -0.45991282661E+02  0.10222463064E+03  0.90148866630E+02 0.  0.
          5    1    3    3  502    0  0.21718983620E+01  0.31043549059E+02 -0.15292541914E+03  0.15611558314E+03  0.41800000000E+01 0.  1.
         -5    1    3    3    0  502 -0.14609162280E+02 -0.23751543838E+02  0.13919054653E+02  0.31444807833E+02  0.41800000000E+01 0.  1.
        -11    1    4    4    0    0  0.51535240844E+02 -0.58322626125E+01 -0.22059841703E+02  0.56360739456E+02  0.00000000000E+00 0. -1.
         11    1    4    4    0    0 -0.39097976926E+02 -0.14597426086E+01 -0.23931440958E+02  0.45863891183E+02  0.00000000000E+00 0.  1.
</event>
<event>
 8    1  0.6443238E-009  0.1806438E+03  0.7561462E-02  0.1167181E+00
          1   -1    0    0  501    0  0.00000000000E+00  0.00000000000E+00  0.17198649287E+03  0.17198649287E+03  0.00000000000E+00 0. -1.
         -1   -1    0    0    0  501 -0.00000000000E+00 -0.00000000000E+00 -0.31723921903E+03  0.31723921903E+03  0.00000000000E+00 0.  1.
         25    2    1    2    0    0 -0.16857876236E+03  0.13600644566E+01 -0.19913926452E+03  0.28935187281E+03  0.12508961080E+03 0.  0.
         23    2    1    2    0    0  0.16857876236E+03 -0.13600644566E+01  0.53886538363E+02  0.19987383909E+03  0.92871651448E+02 0.  0.
          5    1    3    3  502    0 -0.39633637489E+02 -0.38751701896E+02 -0.93235868652E+01  0.56364184484E+02  0.41800000000E+01 0.  1.
         -5    1    3    3    0  502 -0.12894512487E+03  0.40111766352E+02 -0.18981567765E+03  0.23298768832E+03  0.41800000000E+01 0.  1.
        -11    1    4    4    0    0  0.27412866848E+02 -0.99637500375E+01  0.50603774492E+02  0.58407906798E+02  0.00000000000E+00 0. -1.
         11    1    4    4    0    0  0.14116589551E+03  0.86036855809E+01  0.32827638708E+01  0.14146593230E+03  0.00000000000E+00 0.  1.
</event>
<event>
 8    1  0.6443238E-009  0.1068722E+03  0.7561462E-02  0.1266474E+00
          1   -1    0    0  501    0  0.00000000000E+00  0.00000000000E+00  0.38386948473E+02  0.38386948473E+02  0.00000000000E+00 0. -1.
         -1   -1    0    0    0  501 -0.00000000000E+00 -0.00000000000E+00 -0.31727905304E+03  0.31727905304E+03  0.00000000000E+00 0.  1.
         25    2    1    2    0    0  0.10052805913E+02  0.12973093696E+02 -0.14957919868E+03  0.19568072800E+03  0.12509056944E+03 0.  0.
         23    2    1    2    0    0 -0.10052805913E+02 -0.12973093696E+02 -0.12931290588E+03  0.15998527351E+03  0.92758288294E+02 0.  0.
          5    1    3    3  502    0  0.67524446201E+02  0.33590426610E+01 -0.79390249064E+02  0.10436051959E+03  0.41800000000E+01 0. -1.
         -5    1    3    3    0  502 -0.57471640289E+02  0.96140510352E+01 -0.70188949619E+02  0.91320208407E+02  0.41800000000E+01 0. -1.
        -11    1    4    4    0    0  0.28449669095E+02 -0.33503733389E+02 -0.94299815889E+02  0.10404008410E+03  0.00000000000E+00 0.  1.
         11    1    4    4    0    0 -0.38502475007E+02  0.20530639693E+02 -0.35013089991E+02  0.55945189415E+02  0.00000000000E+00 0. -1.
</event>
<event>
 8    1  0.6443238E-009  0.1228391E+03  0.7561462E-02  0.1238486E+00
         -1   -1    0    0    0  501 -0.00000000000E+00  0.00000000000E+00  0.36209785966E+03  0.36209785966E+03  0.00000000000E+00 0.  1.
          1   -1    0    0  501    0  0.00000000000E+00 -0.00000000000E+00 -0.55264042733E+02  0.55264042733E+02  0.00000000000E+00 0. -1.
         25    2    1    2    0    0 -0.71174299290E+02  0.56573060730E+02  0.15929341217E+03  0.22200014147E+03  0.12507349669E+03 0.  0.
         23    2    1    2    0    0  0.71174299290E+02 -0.56573060730E+02  0.14754040476E+03  0.19536176092E+03  0.90176241398E+02 0.  0.
          5    1    3    3  502    0 -0.27088496824E+02  0.90855073816E+02  0.12263952284E+03  0.15506887521E+03  0.41800000000E+01 0. -1.
         -5    1    3    3    0  502 -0.44085802466E+02 -0.34282013086E+02  0.36653889327E+02  0.66931266259E+02  0.41800000000E+01 0. -1.
        -11    1    4    4    0    0  0.14171211362E+02 -0.27153502752E+02  0.12287660400E+03  0.12663647086E+03  0.00000000000E+00 0.  1.
         11    1    4    4    0    0  0.57003087928E+02 -0.29419557978E+02  0.24663800763E+02  0.68725290054E+02  0.00000000000E+00 0. -1.
</event>
<event>
 8    1  0.6443238E-009  0.1008623E+03  0.7561462E-02  0.1278493E+00
         -3   -1    0    0    0  501 -0.00000000000E+00  0.00000000000E+00  0.13208473512E+03  0.13208473512E+03  0.00000000000E+00 0.  1.
          3   -1    0    0  501    0  0.00000000000E+00 -0.00000000000E+00 -0.13589556234E+03  0.13589556234E+03  0.00000000000E+00 0. -1.
         25    2    1    2    0    0  0.70363837330E+02  0.21221978654E+02 -0.29936897231E+02  0.14814005231E+03  0.12509122791E+03 0.  0.
         23    2    1    2    0    0 -0.70363837330E+02 -0.21221978654E+02  0.26126070011E+02  0.11984024515E+03  0.90981706080E+02 0.  0.
          5    1    3    3  502    0 -0.81930342726E+01  0.35703578266E+02 -0.53299039620E+02  0.64808420255E+02  0.41800000000E+01 0.  1.
         -5    1    3    3    0  502  0.78556871602E+02 -0.14481599611E+02  0.23362142388E+02  0.83331632050E+02  0.41800000000E+01 0.  1.
        -11    1    4    4    0    0 -0.29068508467E+02 -0.30928585671E+02 -0.28166533210E+02  0.50940251169E+02  0.00000000000E+00 0. -1.
         11    1    4    4    0    0 -0.41295328863E+02  0.97066070170E+01  0.54292603222E+02  0.68899993979E+02  0.00000000000E+00 0.  1.
</event>
<event>
 8    1  0.6443238E-009  0.2626232E+03  0.7561462E-02  0.1105577E+00
         -1   -1    0    0    0  501 -0.00000000000E+00  0.00000000000E+00  0.17156868868E+03  0.17156868868E+03  0.00000000000E+00 0.  1.
          1   -1    0    0  501    0  0.00000000000E+00 -0.00000000000E+00 -0.41173410237E+03  0.41173410237E+03  0.00000000000E+00 0. -1.
         25    2    1    2    0    0 -0.14445532125E+03  0.19089049929E+03 -0.16008024563E+03  0.31397697103E+03  0.12509728510E+03 0.  0.
         23    2    1    2    0    0  0.14445532125E+03 -0.19089049929E+03 -0.80085168064E+02  0.26932582002E+03  0.93894838129E+02 0.  0.
          5    1    3    3  502    0  0.14754976100E+02  0.62915327149E+02 -0.27089565510E+02  0.70195189789E+02  0.41800000000E+01 0.  1.
         -5    1    3    3    0  502 -0.15921029735E+03  0.12797517214E+03 -0.13299068012E+03  0.24378178124E+03  0.41800000000E+01 0.  1.
        -11    1    4    4    0    0  0.40411243414E+02 -0.12885520579E+03 -0.30558320301E+02  0.13845773215E+03  0.00000000000E+00 0.  1.
         11    1    4    4    0    0  0.10404407784E+03 -0.62035293508E+02 -0.49526847763E+02  0.13086808787E+03  0.00000000000E+00 0. -1.
</event>
<event>
 8    1  0.6443238E-009  0.9387353E+02  0.7561462E-02  0.1293734E+00
          1   -1    0    0  501    0  0.00000000000E+00  0.00000000000E+00  0.75381373479E+02  0.75381373479E+02  0.00000000000E+00 0.  1.
         -1   -1    0    0    0  501 -0.00000000000E+00 -0.00000000000E+00 -0.18606127834E+03  0.18606127834E+03  0.00000000000E+00 0. -1.
         25    2    1    2    0    0  0.19745735088E+02  0.41607894677E+02 -0.55605621809E+02  0.14443157765E+03  0.12508950592E+03 0.  0.
         23    2    1    2    0    0 -0.19745735088E+02 -0.41607894677E+02 -0.55074283052E+02  0.11701107417E+03  0.92397531735E+02 0.  0.
          5    1    3    3  502    0 -0.27855034488E+02  0.22581467358E+02 -0.79804746136E+02  0.87590499030E+02  0.41800000000E+01 0. -1.
         -5    1    3    3    0  502  0.47600769575E+02  0.19026427319E+02  0.24199124327E+02  0.56841078622E+02  0.41800000000E+01 0. -1.
        -11    1    4    4    0    0 -0.51789215375E+02 -0.57239074180E+01 -0.42623026919E+02  0.67317221935E+02  0.00000000000E+00 0.  1.
         11    1    4    4    0    0  0.32043480287E+02 -0.35883987259E+02 -0.12451256133E+02  0.49693852234E+02  0.00000000000E+00 0. -1.
</event>
<event>
 8    1  0.6443238E-009  0.1062407E+03  0.7561462E-02  0.1267694E+00
          2   -1    0    0  501    0  0.00000000000E+00  0.00000000000E+00  0.87440379039E+03  0.87440379039E+03  0.00000000000E+00 0. -1.
         -2   -1    0    0    0  501 -0.00000000000E+00 -0.00000000000E+00 -0.21054264921E+02  0.21054264921E+02  0.00000000000E+00 0.  1.
         25    2    1    2    0    0  0.24554812864E+02 -0.50712159590E+02  0.66428846306E+03  0.67830740291E+03  0.12508840363E+03 0.  0.
         23    2    1    2    0    0 -0.24554812864E+02  0.50712159590E+02  0.18906106241E+03  0.21715065240E+03  0.90750529224E+02 0.  0.
          5    1    3    3  502    0 -0.36124272888E+02 -0.60939249044E+02  0.26745626956E+03  0.27671083046E+03  0.41800000000E+01 0.  1.
         -5    1    3    3    0  502  0.60679085752E+02  0.10227089454E+02  0.39683219351E+03  0.40159657246E+03  0.41800000000E+01 0.  1.
        -11    1    4    4    0    0 -0.41629938358E+02  0.46177892919E+02  0.18954080876E+03  0.19947723617E+03  0.00000000000E+00 0. -1.
         11    1    4    4    0    0  0.17075125494E+02  0.45342666714E+01 -0.47974635426E+00  0.17673416236E+02  0.00000000000E+00 0.  1.
</event>
<event>
 8    1  0.6443238E-009  0.1511517E+03  0.7561462E-02  0.1199065E+00
         -2   -1    0    0    0  501 -0.00000000000E+00  0.00000000000E+00  0.17658338131E+02  0.17658338131E+02  0.00000000000E+00 0.  1.
          2   -1    0    0  501    0  0.00000000000E+00 -0.00000000000E+00 -0.16831784981E+04  0.16831784981E+04  0.00000000000E+00 0. -1.
         25    2    1    2    0    0 -0.12307173118E+02 -0.11607639139E+03 -0.12089112061E+04  0.12209581232E+04  0.12508892560E+03 0.  0.
         23    2    1    2    0    0  0.12307173118E+02  0.11607639139E+03 -0.45660895389E+03  0.47987871301E+03  0.90369504194E+02 0.  0.
          5    1    3    3  502    0  0.25489941365E+02 -0.12762463002E+03 -0.98159629456E+03  0.99019520358E+03  0.41800000000E+01 0.  1.
         -5    1    3    3    0  502 -0.37797114483E+02  0.11548238628E+02 -0.22731491153E+03  0.23076291964E+03  0.41800000000E+01 0.  1.
        -11    1    4    4    0    0 -0.23218754302E+02  0.72492846724E+02 -0.15057452114E+03  0.16872169331E+03  0.00000000000E+00 0.  1.
         11    1    4    4    0    0  0.35525927420E+02  0.43583544665E+02 -0.30603443274E+03  0.31115701970E+03  0.00000000000E+00 0. -1.
</event>
<event>
 8    1  0.6443238E-009  0.8744090E+02  0.7561462E-02  0.1309170E+00
          2   -1    0    0  501    0  0.00000000000E+00  0.00000000000E+00  0.20339077727E+03  0.20339077727E+03  0.00000000000E+00 0. -1.
         -2   -1    0    0    0  501 -0.00000000000E+00 -0.00000000000E+00 -0.55414633425E+02  0.55414633425E+02  0.00000000000E+00 0.  1.
         25    2    1    2    0    0  0.23043352520E+01 -0.12470538862E+02  0.87941467983E+02  0.15343272630E+03  0.12508827046E+03 0.  0.
         23    2    1    2    0    0 -0.23043352520E+01  0.12470538862E+02  0.60034675859E+02  0.10537268439E+03  0.85664555159E+02 0.  0.
          5    1    3    3  502    0 -0.37775147836E+02 -0.27992855301E+02 -0.83192921072E+01  0.47929581295E+02  0.41800000000E+01 0.  1.
         -5    1    3    3    0  502  0.40079483088E+02  0.15522316440E+02  0.96260760091E+02  0.10550314500E+03  0.41800000000E+01 0.  1.
        -11    1    4    4    0    0  0.27283452232E+02  0.37063436220E+02  0.44062987160E+02  0.63715240780E+02  0.00000000000E+00 0.  1.
         11    1    4    4    0    0 -0.29587787484E+02 -0.24592897358E+02  0.15971688699E+02  0.41657443615E+02  0.00000000000E+00 0. -1.
</event>
<event>
 8    1  0.6443238E-009  0.1503713E+03  0.7561462E-02  0.1200017E+00
         -2   -1    0    0    0  501 -0.00000000000E+00  0.00000000000E+00  0.19798034959E+02  0.19798034959E+02  0.00000000000E+00 0.  1.
          2   -1    0    0  501    0  0.00000000000E+00 -0.00000000000E+00 -0.12067532467E+04  0.12067532467E+04  0.00000000000E+00 0. -1.
         25    2    1    2    0    0  0.59008499676E+02 -0.91001995985E+02 -0.56433903493E+03  0.58812350985E+03  0.12508936877E+03 0.  0.
         23    2    1    2    0    0 -0.59008499676E+02  0.91001995985E+02 -0.62261617679E+03  0.63842777179E+03  0.90419853402E+02 0.  0.
          5    1    3    3  502    0 -0.28109222728E+02 -0.68302957552E+02 -0.29367068374E+03  0.30284544788E+03  0.41800000000E+01 0.  1.
         -5    1    3    3    0  502  0.87117722404E+02 -0.22699038434E+02 -0.27066835120E+03  0.28527806197E+03  0.41800000000E+01 0.  1.
        -11    1    4    4    0    0 -0.52476626708E+02  0.10710126159E+03 -0.58442413759E+03  0.59646965487E+03  0.00000000000E+00 0. -1.
         11    1    4    4    0    0 -0.65318729678E+01 -0.16099265602E+02 -0.38192039199E+02  0.41958116921E+02  0.00000000000E+00 0.  1.
</event>
<event>
 7    1  0.6443238E-009  0.7153598E+02  0.7561462E-02  0.1354946E+00
          1   -1    0    0  501    0  0.00000000000E+00  0.00000000000E+00  0.46398568901E+03  0.46398568901E+03  0.00000000000E+00 0. -1.
         -1   -1    0    0    0  501 -0.00000000000E+00 -0.00000000000E+00 -0.26006972919E+02  0.26006972919E+02  0.00000000000E+00 0.  1.
         23    2    1    2    0    0 -0.69473872509E+01  0.34912715046E+02  0.17512213277E+03  0.19664519206E+03  0.82063428584E+02 0.  0.
          5    1    1    2  502    0 -0.25236041480E+02 -0.89203636112E+01 -0.13329112972E+00  0.27090973461E+02  0.41800000000E+01 0. -1.
         -5    1    1    2    0  502  0.32183428731E+02 -0.25992351435E+02  0.26298987445E+03  0.26625649641E+03  0.41800000000E+01 0. -1.
        -11    1    3    3    0    0  0.27645689178E+02  0.38562224718E+01  0.19044521674E+02  0.33791247205E+02  0.00000000000E+00 0.  1.
         11    1    3    3    0    0 -0.34593076429E+02  0.31056492575E+02  0.15607761110E+03  0.16285394485E+03  0.00000000000E+00 0. -1.
</event>
<event>
 8    1  0.6443238E-009  0.1052060E+03  0.7561462E-02  0.1269714E+00
          2   -1    0    0  501    0  0.00000000000E+00  0.00000000000E+00  0.71296688921E+03  0.71296688921E+03  0.00000000000E+00 0. -1.
         -2   -1    0    0    0  501 -0.00000000000E+00 -0.00000000000E+00 -0.57919628242E+02  0.57919628242E+02  0.00000000000E+00 0.  1.
         25    2    1    2    0    0 -0.29534485329E+02  0.68637073990E+01  0.66299834627E+03  0.67537651018E+03  0.12508887654E+03 0.  0.
         23    2    1    2    0    0  0.29534485329E+02 -0.68637073990E+01 -0.79510853041E+01  0.95510007275E+02  0.90219429334E+02 0.  0.
          5    1    3    3  502    0 -0.63942567276E+02  0.43202156689E+02  0.35536922401E+03  0.36367545425E+03  0.41800000000E+01 0. -1.
         -5    1    3    3    0  502  0.34408081947E+02 -0.36338449290E+02  0.30762912226E+03  0.31170105592E+03  0.41800000000E+01 0. -1.
        -11    1    4    4    0    0  0.45566870554E+02 -0.30150976622E+02 -0.27468494942E+02  0.61155043109E+02  0.00000000000E+00 0.  1.
         11    1    4    4    0    0 -0.16032385225E+02  0.23287269223E+02  0.19517409638E+02  0.34354964166E+02  0.00000000000E+00 0. -1.
</event>
<event>
 8    1  0.6443238E-009  0.1099152E+03  0.7561462E-02  0.1260727E+00
         -2   -1    0    0    0  501 -0.00000000000E+00  0.00000000000E+00  0.21471502305E+02  0.21471502305E+02  0.00000000000E+00 0.  1.
          2   -1    0    0  501    0  0.00000000000E+00 -0.00000000000E+00 -0.11195361510E+04  0.11195361510E+04  0.00000000000E+00 0. -1.
         25    2    1    2    0    0  0.38782360829E+02  0.22881296856E+02 -0.96399986213E+03  0.97312408145E+03  0.12508844254E+03 0.  0.
         23    2    1    2    0    0 -0.38782360829E+02 -0.22881296856E+02 -0.13406478652E+03  0.16788357181E+03  0.90464918290E+02 0.  0.
          5    1    3    3  502    0 -0.26842295110E+02 -0.30304522841E+02 -0.17832014155E+03  0.18290548979E+03  0.41800000000E+01 0.  1.
         -5    1    3    3    0  502  0.65624655939E+02  0.53185819698E+02 -0.78567972057E+03  0.79021859166E+03  0.41800000000E+01 0.  1.
        -11    1    4    4    0    0 -0.38280731631E+02 -0.52478190627E+02 -0.61242487245E+02  0.89274952532E+02  0.00000000000E+00 0.  1.
         11    1    4    4    0    0 -0.50162919826E+00  0.29596893771E+02 -0.72822299279E+02  0.78608619279E+02  0.00000000000E+00 0. -1.
</event>
<event>
 8    1  0.6443238E-009  0.1014032E+03  0.7561462E-02  0.1277373E+00
         -2   -1    0    0    0  501 -0.00000000000E+00  0.00000000000E+00  0.23240034505E+02  0.23240034505E+02  0.00000000000E+00 0.  1.
          2   -1    0    0  501    0  0.00000000000E+00 -0.00000000000E+00 -0.55545024420E+03  0.55545024420E+03  0.00000000000E+00 0. -1.
         25    2    1    2    0    0 -0.47176191124E+01  0.31326805893E+02 -0.25830107068E+03  0.28873897700E+03  0.12508848479E+03 0.  0.
         23    2    1    2    0    0  0.47176191124E+01 -0.31326805893E+02 -0.27390913902E+03  0.28995130171E+03  0.89676731805E+02 0.  0.
          5    1    3    3  502    0  0.52774560027E+01  0.75117520607E+02 -0.10737164866E+03  0.13121218228E+03  0.41800000000E+01 0.  1.
         -5    1    3    3    0  502 -0.99950751150E+01 -0.43790714713E+02 -0.15092942202E+03  0.15752679471E+03  0.41800000000E+01 0.  1.
        -11    1    4    4    0    0  0.39179367851E+02 -0.26915588362E+02 -0.80826473014E+02  0.93767747664E+02  0.00000000000E+00 0.  1.
         11    1    4    4    0    0 -0.34461748739E+02 -0.44112175314E+01 -0.19308266600E+03  0.19618355404E+03  0.00000000000E+00 0. -1.
</event>
<event>
 8    1  0.6443238E-009  0.8718604E+02  0.7561462E-02  0.1309813E+00
         -1   -1    0    0    0  501 -0.00000000000E+00  0.00000000000E+00  0.90183896812E+02  0.90183896812E+02  0.00000000000E+00 0.  1.
          1   -1    0    0  501    0  0.00000000000E+00 -0.00000000000E+00 -0.24384302173E+03  0.24384302173E+03  0.00000000000E+00 0. -1.
         25    2    1    2    0    0 -0.57742540066E+02  0.21102568200E+02  0.57584790332E+01  0.13949919691E+03  0.12508935422E+03 0.  0.
         23    2    1    2    0    0  0.57742540066E+02 -0.21102568200E+02 -0.15941760395E+03  0.19452772163E+03  0.92992164815E+02 0.  0.
          5    1    3    3  502    0 -0.58268796157E+01 -0.11581671148E+00  0.60554823451E+02  0.60978069687E+02  0.41800000000E+01 0. -1.
         -5    1    3    3    0  502 -0.51915660450E+02  0.21218384912E+02 -0.54796344417E+02  0.78521127219E+02  0.41800000000E+01 0. -1.
        -11    1    4    4    0    0 -0.20904753736E+02  0.13660670931E+02 -0.44111259491E+02  0.50689504564E+02  0.00000000000E+00 0.  1.
         11    1    4    4    0    0  0.78647293802E+02 -0.34763239132E+02 -0.11530634446E+03  0.14383821707E+03  0.00000000000E+00 0. -1.
</event>
<event>
 8    1  0.6443238E-009  0.1060730E+03  0.7561462E-02  0.1268020E+00
          1   -1    0    0  501    0  0.00000000000E+00  0.00000000000E+00  0.19677350691E+04  0.19677350691E+04  0.00000000000E+00 0. -1.
         -1   -1    0    0    0  501 -0.00000000000E+00 -0.00000000000E+00 -0.12176541769E+02  0.12176541769E+02  0.00000000000E+00 0.  1.
         25    2    1    2    0    0 -0.40903858657E+02  0.29377481079E+02  0.16813549854E+04  0.16867539282E+04  0.12509222681E+03 0.  0.
         23    2    1    2    0    0  0.40903858657E+02 -0.29377481079E+02  0.27420354196E+03  0.29315768273E+03  0.90651433930E+02 0.  0.
          5    1    3    3  502    0 -0.54552350852E+02  0.64753663174E+02  0.14310511311E+04  0.14335598377E+04  0.41800000000E+01 0.  1.
         -5    1    3    3    0  502  0.13648492195E+02 -0.35376182096E+02  0.25030385428E+03  0.25319409050E+03  0.41800000000E+01 0.  1.
        -11    1    4    4    0    0 -0.10630957216E+02  0.16897569960E+02  0.15307009373E+02  0.25156503291E+02  0.00000000000E+00 0.  1.
         11    1    4    4    0    0  0.51534815873E+02 -0.46275051039E+02  0.25889653259E+03  0.26800117944E+03  0.00000000000E+00 0. -1.
</event>
<event>
 8    1  0.6443238E-009  0.4884372E+02  0.7561462E-02  0.1451680E+00
         -2   -1    0    0    0  501 -0.00000000000E+00  0.00000000000E+00  0.21253865082E+02  0.21253865082E+02  0.00000000000E+00 0. -1.
          2   -1    0    0  501    0  0.00000000000E+00 -0.00000000000E+00 -0.56304652313E+03  0.56304652313E+03  0.00000000000E+00 0.  1.
         25    2    1    2    0    0  0.10715863514E+02  0.13161930637E+02 -0.32070060400E+03  0.34465062617E+03  0.12508841099E+03 0.  0.
         23    2    1    2    0    0 -0.10715863514E+02 -0.13161930637E+02 -0.22109205405E+03  0.23964976205E+03  0.90896897281E+02 0.  0.
          5    1    3    3  502    0 -0.44016138246E+01  0.14666775448E+01 -0.32463407365E+03  0.32469413225E+03  0.41800000000E+01 0.  1.
         -5    1    3    3    0  502  0.15117477339E+02  0.11695253092E+02  0.39334696462E+01  0.19956493916E+02  0.41800000000E+01 0.  1.
        -11    1    4    4    0    0  0.20668281399E+02 -0.29869703303E+02 -0.18663963999E+03  0.19014134807E+03  0.00000000000E+00 0.  1.
         11    1    4    4    0    0 -0.31384144914E+02  0.16707772667E+02 -0.34452414059E+02  0.49508413971E+02  0.00000000000E+00 0. -1.
</event>
<event>
 8    1  0.6443238E-009  0.1357921E+03  0.7561462E-02  0.1219106E+00
          2   -1    0    0  501    0  0.00000000000E+00  0.00000000000E+00  0.19343701894E+04  0.19343701894E+04  0.00000000000E+00 0. -1.
         -2   -1    0    0    0  501 -0.00000000000E+00 -0.00000000000E+00 -0.11110053320E+02  0.11110053320E+02  0.00000000000E+00 0.  1.
         25    2    1    2    0    0 -0.50131597236E+02  0.66665226690E+02  0.13895866480E+04  0.13976965816E+04  0.12508897872E+03 0.  0.
         23    2    1    2    0    0  0.50131597236E+02 -0.66665226690E+02  0.53367348811E+03  0.54778366109E+03  0.91115958828E+02 0.  0.
          5    1    3    3  502    0 -0.86179707808E+02  0.73515363246E+02  0.10654914773E+04  0.10715040883E+04  0.41800000000E+01 0. -1.
         -5    1    3    3    0  502  0.36048110571E+02 -0.68501365552E+01  0.32409517069E+03  0.32619249334E+03  0.41800000000E+01 0. -1.
        -11    1    4    4    0    0  0.31158302214E+02  0.17011500502E+02  0.11283456176E+03  0.11828723208E+03  0.00000000000E+00 0.  1.
         11    1    4    4    0    0  0.18973295022E+02 -0.83676727192E+02  0.42083892635E+03  0.42949642901E+03  0.00000000000E+00 0. -1.
</event>
<event>
 8    1  0.6443238E-009  0.3883740E+03  0.7561462E-02  0.1047881E+00
         -1   -1    0    0    0  501 -0.00000000000E+00  0.00000000000E+00  0.50378171758E+03  0.50378171758E+03  0.00000000000E+00 0.  1.
          1   -1    0    0  501    0  0.00000000000E+00 -0.00000000000E+00 -0.47736162192E+03  0.47736162192E+03  0.00000000000E+00 0. -1.
         25    2    1    2    0    0  0.96526232142E+02 -0.37017047324E+03 -0.27467481142E+03  0.48727505453E+03  0.12508890432E+03 0.  0.
         23    2    1    2    0    0 -0.96526232142E+02  0.37017047324E+03  0.30109490708E+03  0.49386828497E+03  0.83091799097E+02 0.  0.
          5    1    3    3  502    0  0.10776082297E+03 -0.24778108665E+03 -0.23482161785E+03  0.35800352859E+03  0.41800000000E+01 0.  1.
         -5    1    3    3    0  502 -0.11234590832E+02 -0.12238938659E+03 -0.39853193566E+02  0.12927152594E+03  0.41800000000E+01 0.  1.
        -11    1    4    4    0    0 -0.13360853016E+01  0.37389148903E+02  0.38261056512E+01  0.37608146247E+02  0.00000000000E+00 0. -1.
         11    1    4    4    0    0 -0.95190146840E+02  0.33278132434E+03  0.29726880143E+03  0.45626013872E+03  0.00000000000E+00 0.  1.
</event>
<event>
 8    1  0.6443238E-009  0.1509033E+03  0.7561462E-02  0.1199367E+00
         -1   -1    0    0    0  501 -0.00000000000E+00  0.00000000000E+00  0.41305718549E+03  0.41305718549E+03  0.00000000000E+00 0.  1.
          1   -1    0    0  501    0  0.00000000000E+00 -0.00000000000E+00 -0.63041217822E+02  0.63041217822E+02  0.00000000000E+00 0. -1.
         25    2    1    2    0    0  0.11679636029E+03 -0.17746777381E+02  0.21062849198E+03  0.27197126913E+03  0.12509065400E+03 0.  0.
         23    2    1    2    0    0 -0.11679636029E+03  0.17746777381E+02  0.13938747569E+03  0.20412713418E+03  0.91009233849E+02 0.  0.
          5    1    3    3  502    0  0.54803048488E+02 -0.71266754422E+02  0.11357624043E+03  0.14491155648E+03  0.41800000000E+01 0. -1.
         -5    1    3    3    0  502  0.61993311799E+02  0.53519977042E+02  0.97052251545E+02  0.12705971266E+03  0.41800000000E+01 0. -1.
        -11    1    4    4    0    0 -0.72489996770E+02 -0.15843758458E+02  0.12711735620E+03  0.14718915232E+03  0.00000000000E+00 0.  1.
         11    1    4    4    0    0 -0.44306363517E+02  0.33590535839E+02  0.12270119492E+02  0.56937981861E+02  0.00000000000E+00 0. -1.
</event>
<event>
 8    1  0.6443238E-009  0.2978545E+03  0.7561462E-02  0.1086318E+00
          3   -1    0    0  501    0  0.00000000000E+00  0.00000000000E+00  0.59352625094E+03  0.59352625094E+03  0.00000000000E+00 0. -1.
         -3   -1    0    0    0  501 -0.00000000000E+00 -0.00000000000E+00 -0.20290084702E+03  0.20290084702E+03  0.00000000000E+00 0.  1.
         25    2    1    2    0    0 -0.27593417266E+03 -0.54526265996E+02  0.39453390898E+03  0.50041692992E+03  0.12508923648E+03 0.  0.
         23    2    1    2    0    0  0.27593417266E+03  0.54526265996E+02 -0.39085050577E+01  0.29601016805E+03  0.92162692279E+02 0.  0.
          5    1    3    3  502    0 -0.22793407610E+03  0.85886060635E+01  0.28292569525E+03  0.36344480823E+03  0.41800000000E+01 0. -1.
         -5    1    3    3    0  502 -0.48000096568E+02 -0.63114872059E+02  0.11160821374E+03  0.13697212169E+03  0.41800000000E+01 0. -1.
        -11    1    4    4    0    0  0.10802332025E+03  0.52833936776E+02  0.31693541169E+02  0.12435812456E+03  0.00000000000E+00 0. -1.
         11    1    4    4    0    0  0.16791085242E+03  0.16923292203E+01 -0.35602046226E+02  0.17165204349E+03  0.00000000000E+00 0.  1.
</event>
<event>
 8    1  0.6443238E-009  0.1109305E+03  0.7561462E-02  0.1258856E+00
          2   -1    0    0  501    0  0.00000000000E+00  0.00000000000E+00  0.94490715902E+03  0.94490715902E+03  0.00000000000E+00 0. -1.
         -2   -1    0    0    0  501 -0.00000000000E+00 -0.00000000000E+00 -0.13351629370E+02  0.13351629370E+02  0.00000000000E+00 0.  1.
         25    2    1    2    0    0  0.27690568625E+02 -0.18781530688E+02  0.56603313834E+03  0.58065175949E+03  0.12507373274E+03 0.  0.
         23    2    1    2    0    0 -0.27690568625E+02  0.18781530688E+02  0.36552239132E+03  0.37760702890E+03  0.88661921003E+02 0.  0.
          5    1    3    3  502    0 -0.38085993006E+02  0.27330019694E+02  0.25992454513E+03  0.26415093110E+03  0.41800000000E+01 0. -1.
         -5    1    3    3    0  502  0.65776561631E+02 -0.46111550382E+02  0.30610859321E+03  0.31650082840E+03  0.41800000000E+01 0. -1.
        -11    1    4    4    0    0  0.26481328839E+02 -0.15081265057E+02  0.10227304644E+03  0.10671682792E+03  0.00000000000E+00 0.  1.
         11    1    4    4    0    0 -0.54171897464E+02  0.33862795745E+02  0.26324934488E+03  0.27089020098E+03  0.00000000000E+00 0. -1.
</event>
<event>
 8    1  0.6443238E-009  0.1878848E+03  0.7561462E-02  0.1160383E+00
         -2   -1    0    0    0  501 -0.00000000000E+00  0.00000000000E+00  0.73654628076E+02  0.73654628076E+02  0.00000000000E+00 0.  1.
          2   -1    0    0  501    0  0.00000000000E+00 -0.00000000000E+00 -0.78085799516E+03  0.78085799516E+03  0.00000000000E+00 0. -1.
         25    2    1    2    0    0 -0.16750650567E+03  0.55779142985E+02 -0.57895101654E+03  0.61806038128E+03  0.12507842789E+03 0.  0.
         23    2    1    2    0    0  0.16750650567E+03 -0.55779142985E+02 -0.12825235055E+03  0.23645224196E+03  0.91056329122E+02 0.  0.
          5    1    3    3  502    0  0.94629001654E+01 -0.23305015775E+01 -0.80434806174E+00  0.10634711700E+02  0.41800000000E+01 0.  1.
         -5    1    3    3    0  502 -0.17696940583E+03  0.58109644563E+02 -0.57814666848E+03  0.60742566958E+03  0.41800000000E+01 0.  1.
        -11    1    4    4    0    0  0.10018926778E+03 -0.18435866345E+02 -0.12240285681E+03  0.15924895573E+03  0.00000000000E+00 0. -1.
         11    1    4    4    0    0  0.67317237888E+02 -0.37343276641E+02 -0.58494937348E+01  0.77203286226E+02  0.00000000000E+00 0.  1.
</event>
<event>
 8    1  0.6443238E-009  0.1516580E+03  0.7561462E-02  0.1198450E+00
         -2   -1    0    0    0  501 -0.00000000000E+00  0.00000000000E+00  0.71062845091E+02  0.71062845091E+02  0.00000000000E+00 0.  1.
          2   -1    0    0  501    0  0.00000000000E+00 -0.00000000000E+00 -0.39555605306E+03  0.39555605306E+03  0.00000000000E+00 0. -1.
         25    2    1    2    0    0 -0.52657252554E+02  0.96499313238E+02 -0.22161525148E+03  0.27720971054E+03  0.12508796994E+03 0.  0.
         23    2    1    2    0    0  0.52657252554E+02 -0.96499313238E+02 -0.10287795649E+03  0.18940918762E+03  0.11492198537E+03 0.  0.
          5    1    3    3  502    0  0.15764113198E+02 -0.21748969678E+02 -0.57718594942E+02  0.63799949444E+02  0.41800000000E+01 0. -1.
         -5    1    3    3    0  502 -0.68421365752E+02  0.11824828292E+03 -0.16389665654E+03  0.21340976109E+03  0.41800000000E+01 0. -1.
        -11    1    4    4    0    0  0.55061975072E+02 -0.11144900082E+03 -0.49292194714E+02  0.13372517093E+03  0.00000000000E+00 0.  1.
         11    1    4    4    0    0 -0.24047225183E+01  0.14949687577E+02 -0.53585761772E+02  0.55684016681E+02  0.00000000000E+00 0. -1.
</event>
<event>
 8    1  0.6443238E-009  0.1451347E+03  0.7561462E-02  0.1206582E+00
         -2   -1    0    0    0  501 -0.00000000000E+00  0.00000000000E+00  0.24999801677E+03  0.24999801677E+03  0.00000000000E+00 0.  1.
          2   -1    0    0  501    0  0.00000000000E+00 -0.00000000000E+00 -0.19005511878E+03  0.19005511878E+03  0.00000000000E+00 0. -1.
         25    2    1    2    0    0  0.94714076876E+02 -0.79212431423E+02 -0.11272312134E+03  0.20880485555E+03  0.12509036721E+03 0.  0.
         23    2    1    2    0    0 -0.94714076876E+02  0.79212431423E+02  0.17266601933E+03  0.23124828000E+03  0.91743376444E+02 0.  0.
          5    1    3    3  502    0  0.22247076838E+02 -0.65148659251E+02  0.56905168698E+01  0.69203573696E+02  0.41800000000E+01 0. -1.
         -5    1    3    3    0  502  0.72467000038E+02 -0.14063772172E+02 -0.11841363821E+03  0.13960128186E+03  0.41800000000E+01 0. -1.
        -11    1    4    4    0    0 -0.47498743805E+02 -0.80210943265E+01  0.27616748023E+02  0.55526150494E+02  0.00000000000E+00 0.  1.
         11    1    4    4    0    0 -0.47215333071E+02  0.87233525749E+02  0.14504927130E+03  0.17572212950E+03  0.00000000000E+00 0. -1.
</event>
<event>
 8    1  0.6443238E-009  0.1132801E+03  0.7561462E-02  0.1254613E+00
         -3   -1    0    0    0  501 -0.00000000000E+00  0.00000000000E+00  0.87251753697E+02  0.87251753697E+02  0.00000000000E+00 0.  1.
          3   -1    0    0  501    0  0.00000000000E+00 -0.00000000000E+00 -0.21206822937E+03  0.21206822937E+03  0.00000000000E+00 0. -1.
         25    2    1    2    0    0 -0.81088510759E+02  0.10171146382E+01 -0.79007695066E+02  0.16871938123E+03  0.12509049774E+03 0.  0.
         23    2    1    2    0    0  0.81088510759E+02 -0.10171146382E+01 -0.45808780612E+02  0.13060060184E+03  0.91551579565E+02 0.  0.
          5    1    3    3  502    0 -0.95611017727E+02  0.36063195839E+01 -0.80319776707E+01  0.96106489463E+02  0.41800000000E+01 0.  1.
         -5    1    3    3    0  502  0.14522506968E+02 -0.25892049457E+01 -0.70975717396E+02  0.72612891767E+02  0.41800000000E+01 0.  1.
        -11    1    4    4    0    0  0.23875184756E+02 -0.39748161370E+02 -0.40052387681E+02  0.61270992634E+02  0.00000000000E+00 0. -1.
         11    1    4    4    0    0  0.57213326003E+02  0.38731046732E+02 -0.57563929308E+01  0.69329609207E+02  0.00000000000E+00 0.  1.
</event>
<event>
 8    1  0.6443238E-009  0.1188922E+03  0.7561462E-02  0.1244936E+00
          2   -1    0    0  501    0  0.00000000000E+00  0.00000000000E+00  0.42127064157E+03  0.42127064157E+03  0.00000000000E+00 0. -1.
         -2   -1    0    0    0  501 -0.00000000000E+00 -0.00000000000E+00 -0.69172138529E+02  0.69172138529E+02  0.00000000000E+00 0.  1.
         25    2    1    2    0    0  0.87611732859E+02 -0.66219869215E+02  0.87195516035E+02  0.18791461620E+03  0.12509179890E+03 0.  0.
         23    2    1    2    0    0 -0.87611732859E+02  0.66219869215E+02  0.26490298700E+03  0.30252816389E+03  0.96378475876E+02 0.  0.
          5    1    3    3  502    0  0.79985095549E+02 -0.22841549960E+02 -0.72680391405E+01  0.83604118963E+02  0.41800000000E+01 0.  1.
         -5    1    3    3    0  502  0.76266373099E+01 -0.43378319255E+02  0.94463555176E+02  0.10431049724E+03  0.41800000000E+01 0.  1.
        -11    1    4    4    0    0 -0.24404173934E+02  0.24108070700E+02  0.88204327109E+01  0.35419808179E+02  0.00000000000E+00 0.  1.
         11    1    4    4    0    0 -0.63207558925E+02  0.42111798515E+02  0.25608255429E+03  0.26710835571E+03  0.00000000000E+00 0. -1.
</event>
<event>
 8    1  0.6443238E-009  0.1789746E+03  0.7561462E-02  0.1168799E+00
          2   -1    0    0  501    0  0.00000000000E+00  0.00000000000E+00  0.26917405452E+03  0.26917405452E+03  0.00000000000E+00 0. -1.
         -2   -1    0    0    0  501 -0.00000000000E+00 -0.00000000000E+00 -0.14583441486E+03  0.14583441486E+03  0.00000000000E+00 0.  1.
         25    2    1    2    0    0 -0.14866843620E+03  0.63186357720E+02  0.12587400842E+02  0.20470897307E+03  0.12510995672E+03 0.  0.
         23    2    1    2    0    0  0.14866843620E+03 -0.63186357720E+02  0.11075223882E+03  0.21029949631E+03  0.76583288137E+02 0.  0.
          5    1    3    3  502    0 -0.15187293305E+03  0.84916248372E+02 -0.81117489060E+01  0.17423957616E+03  0.41800000000E+01 0.  1.
         -5    1    3    3    0  502  0.32044968481E+01 -0.21729890652E+02  0.20699149748E+02  0.30469396911E+02  0.41800000000E+01 0.  1.
        -11    1    4    4    0    0  0.90488740663E+02 -0.38231708237E+02  0.20976802093E+02  0.10044850386E+03  0.00000000000E+00 0.  1.
         11    1    4    4    0    0  0.58179695534E+02 -0.24954649483E+02  0.89775436725E+02  0.10985099245E+03  0.00000000000E+00 0. -1.
</event>
<event>
 8    1  0.6443238E-009  0.1613107E+03  0.7561462E-02  0.1187225E+00
          1   -1    0    0  501    0  0.00000000000E+00  0.00000000000E+00  0.54660132745E+03  0.54660132745E+03  0.00000000000E+00 0. -1.
         -1   -1    0    0    0  501 -0.00000000000E+00 -0.00000000000E+00 -0.75260081888E+02  0.75260081888E+02  0.00000000000E+00 0.  1.
         25    2    1    2    0    0 -0.93005963481E+02 -0.82050712163E+02  0.65783756716E+02  0.18807243577E+03  0.12514515508E+03 0.  0.
         23    2    1    2    0    0  0.93005963481E+02  0.82050712163E+02  0.40555748885E+03  0.43378897357E+03  0.91178770662E+02 0.  0.
          5    1    3    3  502    0  0.21961858747E+01  0.28282915619E+02  0.14251245201E+01  0.28709753190E+02  0.41800000000E+01 0. -1.
         -5    1    3    3    0  502 -0.95202149356E+02 -0.11033362778E+03  0.64358632196E+02  0.15936268258E+03  0.41800000000E+01 0. -1.
        -11    1    4    4    0    0  0.81266584610E+02  0.18255694045E+02  0.16770117715E+03  0.18724639638E+03  0.00000000000E+00 0.  1.
         11    1    4    4    0    0  0.11739378871E+02  0.63795018118E+02  0.23785631170E+03  0.24654257719E+03  0.00000000000E+00 0. -1.
</event>
<event>
 8    1  0.6443238E-009  0.1128846E+03  0.7561462E-02  0.1255319E+00
         -1   -1    0    0    0  501 -0.00000000000E+00  0.00000000000E+00  0.58103983469E+02  0.58103983469E+02  0.00000000000E+00 0.  1.
          1   -1    0    0  501    0  0.00000000000E+00 -0.00000000000E+00 -0.41553449130E+03  0.41553449130E+03  0.00000000000E+00 0. -1.
         25    2    1    2    0    0 -0.48803017187E+02 -0.74879053957E+02 -0.93751375703E+02  0.18007167905E+03  0.12509149428E+03 0.  0.
         23    2    1    2    0    0  0.48803017187E+02  0.74879053957E+02 -0.26367913212E+03  0.29356679571E+03  0.93092274758E+02 0.  0.
          5    1    3    3  502    0 -0.98335816770E+01 -0.48277927547E+02  0.22660765252E+02  0.54391546206E+02  0.41800000000E+01 0.  1.
         -5    1    3    3    0  502 -0.38969435510E+02 -0.26601126410E+02 -0.11641214096E+03  0.12568013285E+03  0.41800000000E+01 0.  1.
        -11    1    4    4    0    0  0.62903030790E+02  0.11398352080E+02 -0.12499078560E+03  0.14039020692E+03  0.00000000000E+00 0. -1.
         11    1    4    4    0    0 -0.14100013603E+02  0.63480701878E+02 -0.13868834652E+03  0.15317658880E+03  0.00000000000E+00 0.  1.
</event>
<event>
 8    1  0.6443238E-009  0.9670007E+02  0.7561462E-02  0.1287392E+00
          2   -1    0    0  501    0  0.00000000000E+00  0.00000000000E+00  0.14841544301E+03  0.14841544301E+03  0.00000000000E+00 0. -1.
         -2   -1    0    0    0  501 -0.00000000000E+00 -0.00000000000E+00 -0.10721217487E+03  0.10721217487E+03  0.00000000000E+00 0.  1.
         25    2    1    2    0    0 -0.12822382595E+02 -0.26511467284E+02 -0.35111078481E+02  0.13321993220E+03  0.12508993209E+03 0.  0.
         23    2    1    2    0    0  0.12822382595E+02  0.26511467284E+02  0.76314346628E+02  0.12240768568E+03  0.91063113382E+02 0.  0.
          5    1    3    3  502    0 -0.41990462766E+02 -0.63341562342E+02 -0.30184071015E+01  0.76170438260E+02  0.41800000000E+01 0. -1.
         -5    1    3    3    0  502  0.29168080171E+02  0.36830095058E+02 -0.32092671379E+02  0.57049493943E+02  0.41800000000E+01 0. -1.
        -11    1    4    4    0    0 -0.25527280164E+02  0.45488822572E+01  0.73709976994E+02  0.78137667427E+02  0.00000000000E+00 0. -1.
         11    1    4    4    0    0  0.38349662759E+02  0.21962585027E+02  0.26043696340E+01  0.44270018252E+02  0.00000000000E+00 0.  1.
</event>
<event>
 8    1  0.6443238E-009  0.1619769E+03  0.7561462E-02  0.1186483E+00
         -2   -1    0    0    0  501 -0.00000000000E+00  0.00000000000E+00  0.57470658263E+02  0.57470658263E+02  0.00000000000E+00 0. -1.
          2   -1    0    0  501    0  0.00000000000E+00 -0.00000000000E+00 -0.59497704105E+03  0.59497704105E+03  0.00000000000E+00 0.  1.
         25    2    1    2    0    0 -0.14673211268E+03  0.31086667272E+02 -0.26615879655E+03  0.33012826531E+03  0.12508985891E+03 0.  0.
         23    2    1    2    0    0  0.14673211268E+03 -0.31086667272E+02 -0.27134758624E+03  0.32231943400E+03  0.88111356846E+02 0.  0.
          5    1    3    3  502    0  0.22475272839E+01  0.15642864280E+02  0.76150784022E+01  0.18033646355E+02  0.41800000000E+01 0. -1.
         -5    1    3    3    0  502 -0.14897963997E+03  0.15443802992E+02 -0.27377387495E+03  0.31209461895E+03  0.41800000000E+01 0. -1.
        -11    1    4    4    0    0  0.60307918145E+02  0.11545715691E+02 -0.17743821302E+03  0.18776226453E+03  0.00000000000E+00 0. -1.
         11    1    4    4    0    0  0.86424194536E+02 -0.42632382963E+02 -0.93909373217E+02  0.13455716947E+03  0.00000000000E+00 0.  1.
</event>
<event>
 8    1  0.6443238E-009  0.1056378E+03  0.7561462E-02  0.1268868E+00
          1   -1    0    0  501    0  0.00000000000E+00  0.00000000000E+00  0.14696978917E+03  0.14696978917E+03  0.00000000000E+00 0. -1.
         -1   -1    0    0    0  501 -0.00000000000E+00 -0.00000000000E+00 -0.12171457448E+03  0.12171457448E+03  0.00000000000E+00 0.  1.
         25    2    1    2    0    0  0.60050447910E+02 -0.43332347069E+02  0.35568965613E+02  0.14965375018E+03  0.12508934819E+03 0.  0.
         23    2    1    2    0    0 -0.60050447910E+02  0.43332347069E+02 -0.10313750924E+02  0.11903061347E+03  0.92618383105E+02 0.  0.
          5    1    3    3  502    0  0.72412469489E+02 -0.33754219496E+02 -0.27456444923E+02  0.84582751427E+02  0.41800000000E+01 0.  1.
         -5    1    3    3    0  502 -0.12362021578E+02 -0.95781275733E+01  0.63025410536E+02  0.65070998751E+02  0.41800000000E+01 0.  1.
        -11    1    4    4    0    0 -0.48392565578E+02 -0.18765151429E+02 -0.18962878119E+02  0.55259045032E+02  0.00000000000E+00 0.  1.
         11    1    4    4    0    0 -0.11657882333E+02  0.62097498498E+02  0.86491271951E+01  0.63771568441E+02  0.00000000000E+00 0. -1.
</event>
<event>
 8    1  0.6443238E-009  0.1041502E+03  0.7561462E-02  0.1271803E+00
          2   -1    0    0  501    0  0.00000000000E+00  0.00000000000E+00  0.29481601700E+03  0.29481601700E+03  0.00000000000E+00 0. -1.
         -2   -1    0    0    0  501 -0.00000000000E+00 -0.00000000000E+00 -0.72880430758E+02  0.72880430758E+02  0.00000000000E+00 0.  1.
         25    2    1    2    0    0  0.32843150581E+02 -0.54499476931E+02  0.21374302445E+03  0.25570265321E+03  0.12509556679E+03 0.  0.
         23    2    1    2    0    0 -0.32843150581E+02  0.54499476931E+02  0.81925617983E+01  0.11199379456E+03  0.91796658025E+02 0.  0.
          5    1    3    3  502    0  0.43931514451E+02 -0.83035329157E+02  0.20169544713E+03  0.22253846778E+03  0.41800000000E+01 0. -1.
         -5    1    3    3    0  502 -0.11088363870E+02  0.28535852226E+02  0.12047577318E+02  0.33164185424E+02  0.41800000000E+01 0. -1.
        -11    1    4    4    0    0 -0.47582882064E+02  0.46790509935E+02  0.38774197491E+02  0.77181091444E+02  0.00000000000E+00 0. -1.
         11    1    4    4    0    0  0.14739731483E+02  0.77089669959E+01 -0.30581635692E+02  0.34812703112E+02  0.00000000000E+00 0.  1.
</event>
<event>
 8    1  0.6443238E-009  0.1595372E+03  0.7561462E-02  0.1189220E+00
          1   -1    0    0  501    0  0.00000000000E+00  0.00000000000E+00  0.10863650383E+03  0.10863650383E+03  0.00000000000E+00 0. -1.
         -1   -1    0    0    0  501 -0.00000000000E+00 -0.00000000000E+00 -0.33279333757E+03  0.33279333757E+03  0.00000000000E+00 0.  1.
         25    2    1    2    0    0 -0.10088368598E+03  0.10315501687E+03 -0.49149969715E+02  0.19718629138E+03  0.12509291900E+03 0.  0.
         23    2    1    2    0    0  0.10088368598E+03 -0.10315501687E+03 -0.17500686403E+03  0.24424355002E+03  0.90603717753E+02 0.  0.
          5    1    3    3  502    0 -0.33774626811E+02  0.65311757626E+02 -0.84693902151E+02  0.11223582566E+03  0.41800000000E+01 0. -1.
         -5    1    3    3    0  502 -0.67109059169E+02  0.37843259239E+02  0.35543932436E+02  0.84950465716E+02  0.41800000000E+01 0. -1.
        -11    1    4    4    0    0  0.17379203017E+02  0.15426158250E+02 -0.12344039842E+02  0.26313083732E+02  0.00000000000E+00 0. -1.
         11    1    4    4    0    0  0.83504482963E+02 -0.11858117512E+03 -0.16266282418E+03  0.21793046629E+03  0.00000000000E+00 0.  1.
</event>
<event>
 8    1  0.6443238E-009  0.1424191E+03  0.7561462E-02  0.1210110E+00
         -3   -1    0    0    0  501 -0.00000000000E+00  0.00000000000E+00  0.65093436186E+03  0.65093436186E+03  0.00000000000E+00 0.  1.
          3   -1    0    0  501    0  0.00000000000E+00 -0.00000000000E+00 -0.46270626392E+02  0.46270626392E+02  0.00000000000E+00 0. -1.
         25    2    1    2    0    0  0.83274138638E+02  0.10129302887E+03  0.39050601082E+03  0.43051030729E+03  0.12509724350E+03 0.  0.
         23    2    1    2    0    0 -0.83274138638E+02 -0.10129302887E+03  0.21415772465E+03  0.26669468096E+03  0.89820164569E+02 0.  0.
          5    1    3    3  502    0  0.75947172685E+02  0.79223107086E+02  0.39174701372E+03  0.40685067149E+03  0.41800000000E+01 0.  1.
         -5    1    3    3    0  502  0.73269659536E+01  0.22069921787E+02 -0.12410029010E+01  0.23659635795E+02  0.41800000000E+01 0.  1.
        -11    1    4    4    0    0 -0.24341437400E+02  0.93100495180E+01  0.75115655059E+02  0.79508139405E+02  0.00000000000E+00 0.  1.
         11    1    4    4    0    0 -0.58932701238E+02 -0.11060307839E+03  0.13904206959E+03  0.18718654156E+03  0.00000000000E+00 0. -1.
</event>
<event>
 8    1  0.6443238E-009  0.2132437E+03  0.7561462E-02  0.1139023E+00
          2   -1    0    0  501    0  0.00000000000E+00  0.00000000000E+00  0.60967758599E+03  0.60967758599E+03  0.00000000000E+00 0. -1.
         -2   -1    0    0    0  501 -0.00000000000E+00 -0.00000000000E+00 -0.75558659437E+02  0.75558659437E+02  0.00000000000E+00 0.  1.
         25    2    1    2    0    0  0.17883635060E+03  0.45306701120E+02  0.25993645880E+03  0.34241845934E+03  0.12509317016E+03 0.  0.
         23    2    1    2    0    0 -0.17883635060E+03 -0.45306701120E+02  0.27418246776E+03  0.34281778609E+03  0.91174949242E+02 0.  0.
          5    1    3    3  502    0  0.51174131752E+02 -0.41845707107E+02  0.10006141199E+03  0.11999838971E+03  0.41800000000E+01 0. -1.
         -5    1    3    3    0  502  0.12766221885E+03  0.87152408227E+02  0.15987504681E+03  0.22242006963E+03  0.41800000000E+01 0. -1.
        -11    1    4    4    0    0 -0.55096224051E+02 -0.59472595855E+02  0.10141300783E+03  0.12983520986E+03  0.00000000000E+00 0.  1.
         11    1    4    4    0    0 -0.12374012655E+03  0.14165894735E+02  0.17276945993E+03  0.21298257623E+03  0.00000000000E+00 0. -1.
</event>
<event>
 8    1  0.6443238E-009  0.1588936E+03  0.7561462E-02  0.1189952E+00
         -1   -1    0    0    0  501 -0.00000000000E+00  0.00000000000E+00  0.38009593635E+03  0.38009593635E+03  0.00000000000E+00 0.  1.
          1   -1    0    0  501    0  0.00000000000E+00 -0.00000000000E+00 -0.78059823204E+02  0.78059823204E+02  0.00000000000E+00 0. -1.
         25    2    1    2    0    0  0.25523190407E+02 -0.12109370548E+03  0.24641479720E+03  0.30279210423E+03  0.12509071648E+03 0.  0.
         23    2    1    2    0    0 -0.25523190407E+02  0.12109370548E+03  0.55621315945E+02  0.15536365532E+03  0.75690262596E+02 0.  0.
          5    1    3    3  502    0  0.28355490089E+02 -0.14562737507E+03  0.22647688080E+03  0.27077779844E+03  0.41800000000E+01 0. -1.
         -5    1    3    3    0  502 -0.28322996819E+01  0.24533669592E+02  0.19937916404E+02  0.32014305797E+02  0.41800000000E+01 0. -1.
        -11    1    4    4    0    0 -0.44486787052E+02  0.36264043959E+02  0.14466546587E+02  0.59189830855E+02  0.00000000000E+00 0.  1.
         11    1    4    4    0    0  0.18963596645E+02  0.84829661524E+02  0.41154769357E+02  0.96173824468E+02  0.00000000000E+00 0. -1.
</event>
<event>
 8    1  0.6443238E-009  0.1566451E+03  0.7561462E-02  0.1192537E+00
          1   -1    0    0  501    0  0.00000000000E+00  0.00000000000E+00  0.73509760032E+03  0.73509760032E+03  0.00000000000E+00 0. -1.
         -1   -1    0    0    0  501 -0.00000000000E+00 -0.00000000000E+00 -0.46296078663E+02  0.46296078663E+02  0.00000000000E+00 0.  1.
         25    2    1    2    0    0 -0.79214768545E+02  0.11626073826E+03  0.46768543008E+03  0.50415111476E+03  0.12508855336E+03 0.  0.
         23    2    1    2    0    0  0.79214768545E+02 -0.11626073826E+03  0.22111609157E+03  0.27724256422E+03  0.90441000928E+02 0.  0.
          5    1    3    3  502    0 -0.19665233831E+02  0.18123359771E+01  0.12951286098E+01  0.20227598508E+02  0.41800000000E+01 0.  1.
         -5    1    3    3    0  502 -0.59549534715E+02  0.11444840228E+03  0.46639030147E+03  0.48392351625E+03  0.41800000000E+01 0.  1.
        -11    1    4    4    0    0  0.63356862336E+02 -0.19962589164E+02  0.63742480635E+02  0.92063569389E+02  0.00000000000E+00 0.  1.
         11    1    4    4    0    0  0.15857906209E+02 -0.96298149095E+02  0.15737361094E+03  0.18517899483E+03  0.00000000000E+00 0. -1.
</event>
<event>
 8    1  0.6443238E-009  0.1390781E+03  0.7561462E-02  0.1214575E+00
          2   -1    0    0  501    0  0.00000000000E+00  0.00000000000E+00  0.35664575692E+03  0.35664575692E+03  0.00000000000E+00 0.  1.
         -2   -1    0    0    0  501 -0.00000000000E+00 -0.00000000000E+00 -0.75486172567E+02  0.75486172567E+02  0.00000000000E+00 0. -1.
         25    2    1    2    0    0 -0.42362211710E+02 -0.92209960066E+02  0.24034371190E+03  0.28932653027E+03  0.12508999781E+03 0.  0.
         23    2    1    2    0    0  0.42362211710E+02  0.92209960066E+02  0.40815872455E+02  0.14280539922E+03  0.91816190756E+02 0.  0.
          5    1    3    3  502    0 -0.47037696651E+02  0.17611651972E+02  0.88163614123E+02  0.10155299329E+03  0.41800000000E+01 0. -1.
         -5    1    3    3    0  502  0.46754849412E+01 -0.10982161204E+03  0.15218009777E+03  0.18777353698E+03  0.41800000000E+01 0. -1.
        -11    1    4    4    0    0 -0.14574187935E+02  0.96983058500E+01 -0.19185293480E+02  0.25971899742E+02  0.00000000000E+00 0. -1.
         11    1    4    4    0    0  0.56936399645E+02  0.82511654216E+02  0.60001165936E+02  0.11683349948E+03  0.00000000000E+00 0.  1.
</event>
<event>
 8    1  0.6443238E-009  0.8782503E+02  0.7561462E-02  0.1308206E+00
         -1   -1    0    0    0  501 -0.00000000000E+00  0.00000000000E+00  0.41286158101E+02  0.41286158101E+02  0.00000000000E+00 0.  1.
          1   -1    0    0  501    0  0.00000000000E+00 -0.00000000000E+00 -0.34099126222E+03  0.34099126222E+03  0.00000000000E+00 0. -1.
         25    2    1    2    0    0  0.53971524824E+01 -0.31213894960E+02 -0.21377254710E+03  0.24970246041E+03  0.12509668400E+03 0.  0.
         23    2    1    2    0    0 -0.53971524824E+01  0.31213894960E+02 -0.85932557027E+02  0.13257495992E+03  0.95855511818E+02 0.  0.
          5    1    3    3  502    0 -0.27973033476E+02 -0.56686593742E+02 -0.19209211710E+03  0.20226891596E+03  0.41800000000E+01 0. -1.
         -5    1    3    3    0  502  0.33370185959E+02  0.25472698782E+02 -0.21680429997E+02  0.47433544449E+02  0.41800000000E+01 0. -1.
        -11    1    4    4    0    0  0.27113468570E+02  0.34008657713E+01  0.87351231174E+01  0.28688123706E+02  0.00000000000E+00 0.  1.
         11    1    4    4    0    0 -0.32510621052E+02  0.27813029189E+02 -0.94667680144E+02  0.10388683621E+03  0.00000000000E+00 0. -1.
</event>
<event>
 8    1  0.6443238E-009  0.9129553E+02  0.7561462E-02  0.1299744E+00
          4   -1    0    0  501    0  0.00000000000E+00  0.00000000000E+00  0.16629171300E+03  0.16629171300E+03  0.00000000000E+00 0.  1.
         -4   -1    0    0    0  501 -0.00000000000E+00 -0.00000000000E+00 -0.81445457267E+02  0.81445457267E+02  0.00000000000E+00 0. -1.
         25    2    1    2    0    0 -0.20990412502E+02  0.12201884708E+02  0.83796052283E+02  0.15250762207E+03  0.12508922018E+03 0.  0.
         23    2    1    2    0    0  0.20990412502E+02 -0.12201884708E+02  0.10502034456E+01  0.95229548188E+02  0.92076492730E+02 0.  0.
          5    1    3    3  502    0  0.32297529392E+02  0.92927256111E+01  0.92289539158E+02  0.98307256050E+02  0.41800000000E+01 0.  1.
         -5    1    3    3    0  502 -0.53287941894E+02  0.29091590968E+01 -0.84934868751E+01  0.54200366025E+02  0.41800000000E+01 0.  1.
        -11    1    4    4    0    0  0.51710399282E+02  0.15337051478E+02  0.17834475356E+01  0.53966389791E+02  0.00000000000E+00 0.  1.
         11    1    4    4    0    0 -0.30719986781E+02 -0.27538936186E+02 -0.73324408995E+00  0.41263158398E+02  0.00000000000E+00 0. -1.
</event>
<event>
 8    1  0.6443238E-009  0.9669781E+02  0.7561462E-02  0.1287397E+00
         -1   -1    0    0    0  501 -0.00000000000E+00  0.00000000000E+00  0.16089829367E+02  0.16089829367E+02  0.00000000000E+00 0.  1.
          1   -1    0    0  501    0  0.00000000000E+00 -0.00000000000E+00 -0.14777464603E+04  0.14777464603E+04  0.00000000000E+00 0. -1.
         25    2    1    2    0    0  0.12709819918E+02  0.16786165183E+02 -0.13023628568E+04  0.13085259834E+04  0.12509166129E+03 0.  0.
         23    2    1    2    0    0 -0.12709819918E+02 -0.16786165183E+02 -0.15929377411E+03  0.18531030619E+03  0.92315157192E+02 0.  0.
          5    1    3    3  502    0 -0.37618252084E+02 -0.19894328024E+02 -0.92886512397E+03  0.92984880927E+03  0.41800000000E+01 0. -1.
         -5    1    3    3    0  502  0.50328072002E+02  0.36680493207E+02 -0.37349773283E+03  0.37867717417E+03  0.41800000000E+01 0. -1.
        -11    1    4    4    0    0  0.36894030238E+02 -0.49683487951E+01 -0.10215515531E+03  0.10872685829E+03  0.00000000000E+00 0. -1.
         11    1    4    4    0    0 -0.49603850156E+02 -0.11817816388E+02 -0.57138618794E+02  0.76583447899E+02  0.00000000000E+00 0.  1.
</event>
<event>
 8    1  0.6443238E-009  0.1396293E+03  0.7561462E-02  0.1213829E+00
          1   -1    0    0  501    0  0.00000000000E+00  0.00000000000E+00  0.55893830911E+02  0.55893830911E+02  0.00000000000E+00 0. -1.
         -1   -1    0    0    0  501 -0.00000000000E+00 -0.00000000000E+00 -0.45257171216E+03  0.45257171216E+03  0.00000000000E+00 0.  1.
         25    2    1    2    0    0 -0.99359167307E+02  0.25656884146E+02 -0.12821857039E+03  0.20644113444E+03  0.12508964931E+03 0.  0.
         23    2    1    2    0    0  0.99359167307E+02 -0.25656884146E+02 -0.26845931085E+03  0.30202440862E+03  0.92832224955E+02 0.  0.
          5    1    3    3  502    0  0.43043559895E+01  0.39554410228E+02 -0.83549355678E+02  0.92633935915E+02  0.41800000000E+01 0. -1.
         -5    1    3    3    0  502 -0.10366352330E+03 -0.13897526083E+02 -0.44669214716E+02  0.11380719853E+03  0.41800000000E+01 0. -1.
        -11    1    4    4    0    0  0.53315097408E+02  0.30919823644E+02 -0.15858735797E+03  0.17014254381E+03  0.00000000000E+00 0.  1.
         11    1    4    4    0    0  0.46044069900E+02 -0.56576707789E+02 -0.10987195288E+03  0.13188186481E+03  0.00000000000E+00 0. -1.
</event>
<event>
 8    1  0.6443238E-009  0.8465793E+02  0.7561462E-02  0.1316330E+00
          2   -1    0    0  501    0  0.00000000000E+00  0.00000000000E+00  0.92716245030E+02  0.92716245030E+02  0.00000000000E+00 0. -1.
         -2   -1    0    0    0  501 -0.00000000000E+00 -0.00000000000E+00 -0.15380237372E+03  0.15380237372E+03  0.00000000000E+00 0.  1.
         25    2    1    2    0    0 -0.95562355735E+01 -0.11281812774E+02  0.13164577716E+02  0.12664748615E+03  0.12509068192E+03 0.  0.
         23    2    1    2    0    0  0.95562355735E+01  0.11281812774E+02 -0.74250706403E+02  0.11987113260E+03  0.92937183575E+02 0.  0.
          5    1    3    3  502    0  0.43927457310E+02 -0.12766201628E+01 -0.33042506073E+02  0.55141008989E+02  0.41800000000E+01 0.  1.
         -5    1    3    3    0  502 -0.53483692884E+02 -0.10005192611E+02  0.46207083789E+02  0.71506477161E+02  0.41800000000E+01 0.  1.
        -11    1    4    4    0    0  0.37009076431E+02  0.19646840919E+02 -0.17954869025E+01  0.41939168680E+02  0.00000000000E+00 0. -1.
         11    1    4    4    0    0 -0.27452840857E+02 -0.83650281452E+01 -0.72455219501E+02  0.77931963917E+02  0.00000000000E+00 0.  1.
</event>
<event>
 8    1  0.6443238E-009  0.1285886E+03  0.7561462E-02  0.1229565E+00
          1   -1    0    0  501    0  0.00000000000E+00  0.00000000000E+00  0.19561706329E+03  0.19561706329E+03  0.00000000000E+00 0. -1.
         -1   -1    0    0    0  501 -0.00000000000E+00 -0.00000000000E+00 -0.14116128831E+03  0.14116128831E+03  0.00000000000E+00 0.  1.
         25    2    1    2    0    0 -0.26047325572E+02  0.68439114134E+02  0.13168894057E+03  0.19582829275E+03  0.12507744665E+03 0.  0.
         23    2    1    2    0    0  0.26047325572E+02 -0.68439114134E+02 -0.77233165587E+02  0.14095005884E+03  0.92409857207E+02 0.  0.
          5    1    3    3  502    0  0.24223939040E+01 -0.33441676319E+02  0.57016699292E+02  0.66276618090E+02  0.41800000000E+01 0. -1.
         -5    1    3    3    0  502 -0.28469719476E+02  0.10188079045E+03  0.74672241283E+02  0.12955167466E+03  0.41800000000E+01 0. -1.
        -11    1    4    4    0    0 -0.22894853500E+02  0.10066403065E+02 -0.21243421865E+02  0.32814474854E+02  0.00000000000E+00 0.  1.
         11    1    4    4    0    0  0.48942179072E+02 -0.78505517199E+02 -0.55989743722E+02  0.10813558399E+03  0.00000000000E+00 0. -1.
</event>
<event>
 8    1  0.6443238E-009  0.1504509E+03  0.7561462E-02  0.1199920E+00
          1   -1    0    0  501    0  0.00000000000E+00  0.00000000000E+00  0.26150264196E+03  0.26150264196E+03  0.00000000000E+00 0. -1.
         -1   -1    0    0    0  501 -0.00000000000E+00 -0.00000000000E+00 -0.15534417765E+03  0.15534417765E+03  0.00000000000E+00 0.  1.
         25    2    1    2    0    0  0.10159847623E+03  0.92196452509E+02 -0.46533687710E+02  0.19140192914E+03  0.12508748202E+03 0.  0.
         23    2    1    2    0    0 -0.10159847623E+03 -0.92196452509E+02  0.15269215203E+03  0.22544489047E+03  0.93209812376E+02 0.  0.
          5    1    3    3  502    0  0.79808149721E+02  0.26225916998E+02  0.28735967093E+02  0.88884012561E+02  0.41800000000E+01 0.  1.
         -5    1    3    3    0  502  0.21790326510E+02  0.65970535512E+02 -0.75269654803E+02  0.10251791658E+03  0.41800000000E+01 0.  1.
        -11    1    4    4    0    0 -0.53543782321E+02 -0.82208067820E+02  0.46732002644E+02  0.10866914517E+03  0.00000000000E+00 0.  1.
         11    1    4    4    0    0 -0.48054693909E+02 -0.99883846892E+01  0.10596014938E+03  0.11677574531E+03  0.00000000000E+00 0. -1.
</event>
<event>
 8    1  0.6443238E-009  0.9622556E+02  0.7561462E-02  0.1288439E+00
          3   -1    0    0  501    0  0.00000000000E+00  0.00000000000E+00  0.50372939328E+02  0.50372939328E+02  0.00000000000E+00 0. -1.
         -3   -1    0    0    0  501 -0.00000000000E+00 -0.00000000000E+00 -0.30313038694E+03  0.30313038694E+03  0.00000000000E+00 0.  1.
         25    2    1    2    0    0  0.12217165093E+02  0.81564408121E+01 -0.22330580072E+03  0.25637322938E+03  0.12508383373E+03 0.  0.
         23    2    1    2    0    0 -0.12217165093E+02 -0.81564408121E+01 -0.29451646899E+02  0.97130096888E+02  0.91384186634E+02 0.  0.
          5    1    3    3  502    0  0.54707277356E+02 -0.25020631294E+02 -0.63065383753E+02  0.87256135681E+02  0.41800000000E+01 0. -1.
         -5    1    3    3    0  502 -0.42490112263E+02  0.33177072106E+02 -0.16024041696E+03  0.16911709370E+03  0.41800000000E+01 0. -1.
        -11    1    4    4    0    0  0.26246279071E+01 -0.41498863672E+02  0.10632875514E+02  0.42919720403E+02  0.00000000000E+00 0. -1.
         11    1    4    4    0    0 -0.14841793000E+02  0.33342422860E+02 -0.40084522412E+02  0.54210376485E+02  0.00000000000E+00 0.  1.
</event>
<event>
 7    1  0.6443238E-009  0.2564993E+03  0.7561462E-02  0.1109265E+00
         -1   -1    0    0    0  501 -0.00000000000E+00  0.00000000000E+00  0.13637552558E+04  0.13637552558E+04  0.00000000000E+00 0.  1.
          1   -1    0    0  501    0  0.00000000000E+00 -0.00000000000E+00 -0.64198362830E+02  0.64198362830E+02  0.00000000000E+00 0. -1.
         25    2    1    2    0    0 -0.24157877736E+03  0.16899492566E+02  0.10128976086E+04  0.10489324599E+04  0.12510731918E+03 0.  0.
          5    1    3    3  502    0 -0.10509227265E+02  0.36692352859E+02  0.10264928205E+03  0.10959525593E+03  0.41800000000E+01 0.  1.
         -5    1    3    3    0  502 -0.23106955010E+03 -0.19792860293E+02  0.91024832655E+03  0.93933720393E+03  0.41800000000E+01 0.  1.
        -11    1    1    2    0    0  0.21070492198E+03 -0.95955802505E+01  0.21773421313E+03  0.30314489420E+03  0.00000000000E+00 0.  1.
         11    1    1    2    0    0  0.30873855379E+02 -0.73039123156E+01  0.68925071236E+02  0.75876264576E+02  0.00000000000E+00 0. -1.
</event>
<event>
 8    1  0.6443238E-009  0.1079534E+03  0.7561462E-02  0.1264408E+00
          1   -1    0    0  501    0  0.00000000000E+00  0.00000000000E+00  0.12911814182E+02  0.12911814182E+02  0.00000000000E+00 0. -1.
         -1   -1    0    0    0  501 -0.00000000000E+00 -0.00000000000E+00 -0.13371256863E+04  0.13371256863E+04  0.00000000000E+00 0.  1.
         25    2    1    2    0    0 -0.37016817875E+02 -0.12837002388E+02 -0.10530638584E+04  0.10611909899E+04  0.12509114184E+03 0.  0.
         23    2    1    2    0    0  0.37016817875E+02  0.12837002388E+02 -0.27115001370E+03  0.28884651055E+03  0.91514716264E+02 0.  0.
          5    1    3    3  502    0  0.19752645340E+02  0.36831485089E+02 -0.17871209712E+03  0.18358162040E+03  0.41800000000E+01 0.  1.
         -5    1    3    3    0  502 -0.56769463215E+02 -0.49668487476E+02 -0.87435176127E+03  0.87760936950E+03  0.41800000000E+01 0.  1.
        -11    1    4    4    0    0  0.64865483548E+02  0.22837760768E+02 -0.20876581227E+03  0.21980049737E+03  0.00000000000E+00 0. -1.
         11    1    4    4    0    0 -0.27848665673E+02 -0.10000758380E+02 -0.62384201437E+02  0.69046013186E+02  0.00000000000E+00 0.  1.
</event>
<event>
 8    1  0.6443238E-009  0.1126168E+03  0.7561462E-02  0.1255799E+00
         -1   -1    0    0    0  501 -0.00000000000E+00  0.00000000000E+00  0.58392492732E+02  0.58392492732E+02  0.00000000000E+00 0.  1.
          1   -1    0    0  501    0  0.00000000000E+00 -0.00000000000E+00 -0.22965291451E+03  0.22965291451E+03  0.00000000000E+00 0. -1.
         25    2    1    2    0    0  0.38055610022E+02 -0.49980651542E+01 -0.10781991152E+03  0.16956112137E+03  0.12511047299E+03 0.  0.
         23    2    1    2    0    0 -0.38055610022E+02  0.49980651542E+01 -0.63440510265E+02  0.11848428587E+03  0.92415461620E+02 0.  0.
          5    1    3    3  502    0 -0.33803079553E+01 -0.60750742693E+02 -0.44768686981E+02  0.75655713291E+02  0.41800000000E+01 0.  1.
         -5    1    3    3    0  502  0.41435917977E+02  0.55752677539E+02 -0.63051224535E+02  0.93905408080E+02  0.41800000000E+01 0.  1.
        -11    1    4    4    0    0  0.25632766211E+02  0.15722567624E+02 -0.33297928627E+01  0.30254344429E+02  0.00000000000E+00 0.  1.
         11    1    4    4    0    0 -0.63688376233E+02 -0.10724502470E+02 -0.60110717402E+02  0.88229941443E+02  0.00000000000E+00 0. -1.
</event>
<event>
 8    1  0.6443238E-009  0.1071587E+03  0.7561462E-02  0.1265924E+00
         -1   -1    0    0    0  501 -0.00000000000E+00  0.00000000000E+00  0.19476878495E+03  0.19476878495E+03  0.00000000000E+00 0.  1.
          1   -1    0    0  501    0  0.00000000000E+00 -0.00000000000E+00 -0.70038330224E+02  0.70038330224E+02  0.00000000000E+00 0. -1.
         25    2    1    2    0    0  0.39869118279E+02  0.66998500677E+01  0.90767629265E+02  0.15974843654E+03  0.12508543429E+03 0.  0.
         23    2    1    2    0    0 -0.39869118279E+02 -0.66998500677E+01  0.33962825462E+02  0.10505867863E+03  0.90826305990E+02 0.  0.
          5    1    3    3  502    0 -0.18978310006E+02  0.52617968016E+02  0.46546713007E+02  0.72889613118E+02  0.41800000000E+01 0.  1.
         -5    1    3    3    0  502  0.58847428285E+02 -0.45918117948E+02  0.44220916258E+02  0.86858823422E+02  0.41800000000E+01 0.  1.
        -11    1    4    4    0    0  0.10711629090E+02 -0.26935962451E+02  0.40910022750E+02  0.50138957232E+02  0.00000000000E+00 0.  1.
         11    1    4    4    0    0 -0.50580747369E+02  0.20236112383E+02 -0.69471972877E+01  0.54919721403E+02  0.00000000000E+00 0. -1.
</event>
<event>
 8    1  0.6443238E-009  0.4126713E+02  0.7561462E-02  0.1499088E+00
          2   -1    0    0  501    0  0.00000000000E+00  0.00000000000E+00  0.81655249498E+02  0.81655249498E+02  0.00000000000E+00 0. -1.
         -2   -1    0    0    0  501 -0.00000000000E+00 -0.00000000000E+00 -0.11016854220E+03  0.11016854220E+03  0.00000000000E+00 0.  1.
         25    2    1    2    0    0 -0.44704417358E+01 -0.94756069384E+01 -0.19215876419E+02  0.12699348394E+03  0.12509325753E+03 0.  0.
         23    2    1    2    0    0  0.44704417358E+01  0.94756069384E+01 -0.92974162876E+01  0.64830307763E+02  0.63298932684E+02 0.  0.
          5    1    3    3  502    0  0.14874506712E+02  0.16437381342E+01  0.50939579655E+02  0.53256605228E+02  0.41800000000E+01 0. -1.
         -5    1    3    3    0  502 -0.19344948448E+02 -0.11119345073E+02 -0.70155456073E+02  0.73736878712E+02  0.41800000000E+01 0. -1.
        -11    1    4    4    0    0  0.18760106398E+02  0.19330331313E+02 -0.28315483299E+02  0.39081579999E+02  0.00000000000E+00 0.  1.
         11    1    4    4    0    0 -0.14289664662E+02 -0.98547243742E+01  0.19018067011E+02  0.25748727765E+02  0.00000000000E+00 0. -1.
</event>
<event>
 8    1  0.6443238E-009  0.9790118E+02  0.7561462E-02  0.1284772E+00
         -1   -1    0    0    0  501 -0.00000000000E+00  0.00000000000E+00  0.80780145051E+02  0.80780145051E+02  0.00000000000E+00 0.  1.
          1   -1    0    0  501    0  0.00000000000E+00 -0.00000000000E+00 -0.17104537459E+03  0.17104537459E+03  0.00000000000E+00 0. -1.
         25    2    1    2    0    0 -0.23576810227E+02 -0.29880952292E+02 -0.23541253404E+02  0.13285943361E+03  0.12509476887E+03 0.  0.
         23    2    1    2    0    0  0.23576810227E+02  0.29880952292E+02 -0.66723976134E+02  0.11896608603E+03  0.90841088408E+02 0.  0.
          5    1    3    3  502    0 -0.50487621678E+02  0.33760430405E+02 -0.17649520391E+02  0.63385681142E+02  0.41800000000E+01 0. -1.
         -5    1    3    3    0  502  0.26910811451E+02 -0.63641382696E+02 -0.58917330127E+01  0.69473752471E+02  0.41800000000E+01 0. -1.
        -11    1    4    4    0    0 -0.11831501052E+02  0.27820424798E+02  0.12073950365E+02  0.32553659249E+02  0.00000000000E+00 0.  1.
         11    1    4    4    0    0  0.35408311279E+02  0.20605274936E+01 -0.78797926499E+02  0.86412426778E+02  0.00000000000E+00 0. -1.
</event>
<event>
 8    1  0.6443238E-009  0.6649041E+02  0.7561462E-02  0.1372451E+00
          1   -1    0    0  501    0  0.00000000000E+00  0.00000000000E+00  0.58454384536E+02  0.58454384536E+02  0.00000000000E+00 0. -1.
         -1   -1    0    0    0  501 -0.00000000000E+00 -0.00000000000E+00 -0.23655054664E+03  0.23655054664E+03  0.00000000000E+00 0.  1.
         25    2    1    2    0    0 -0.14379002942E+01  0.36016350657E+02 -0.13582922852E+03  0.18813957575E+03  0.12509066940E+03 0.  0.
         23    2    1    2    0    0  0.14379002942E+01 -0.36016350657E+02 -0.42266933589E+02  0.10686535543E+03  0.91293293533E+02 0.  0.
          5    1    3    3  502    0 -0.17456561270E+02  0.26524950865E+02  0.15521447463E+02  0.35590620691E+02  0.41800000000E+01 0. -1.
         -5    1    3    3    0  502  0.16018660976E+02  0.94913997922E+01 -0.15135067598E+03  0.15254895506E+03  0.41800000000E+01 0. -1.
        -11    1    4    4    0    0  0.20491265583E+02  0.16305530101E+02 -0.43946195683E+02  0.51156919298E+02  0.00000000000E+00 0.  1.
         11    1    4    4    0    0 -0.19053365289E+02 -0.52321880759E+02  0.16792620940E+01  0.55708436131E+02  0.00000000000E+00 0. -1.
</event>
<event>
 8    1  0.6443238E-009  0.1556883E+03  0.7561462E-02  0.1193653E+00
          3   -1    0    0  501    0  0.00000000000E+00  0.00000000000E+00  0.43312677803E+03  0.43312677803E+03  0.00000000000E+00 0. -1.
         -3   -1    0    0    0  501 -0.00000000000E+00 -0.00000000000E+00 -0.68150646779E+02  0.68150646779E+02  0.00000000000E+00 0.  1.
         25    2    1    2    0    0 -0.26868409089E+02 -0.11157609786E+03  0.30096807566E+03  0.34554339617E+03  0.12508924433E+03 0.  0.
         23    2    1    2    0    0  0.26868409089E+02  0.11157609786E+03  0.64008055590E+02  0.15573402864E+03  0.83575830693E+02 0.  0.
          5    1    3    3  502    0 -0.72869933866E+02 -0.36870988057E+02  0.15247316877E+03  0.17301744599E+03  0.41800000000E+01 0. -1.
         -5    1    3    3    0  502  0.46001524776E+02 -0.74705109802E+02  0.14849490689E+03  0.17252595018E+03  0.41800000000E+01 0. -1.
        -11    1    4    4    0    0 -0.15592132613E+02  0.94868335234E+02  0.39499129622E+02  0.10393890932E+03  0.00000000000E+00 0. -1.
         11    1    4    4    0    0  0.42460541702E+02  0.16707762625E+02  0.24508925969E+02  0.51795119323E+02  0.00000000000E+00 0.  1.
</event>
<event>
 8    1  0.6443238E-009  0.1046855E+03  0.7561462E-02  0.1270741E+00
          1   -1    0    0  501    0  0.00000000000E+00  0.00000000000E+00  0.18428929210E+03  0.18428929210E+03  0.00000000000E+00 0. -1.
         -1   -1    0    0    0  501 -0.00000000000E+00 -0.00000000000E+00 -0.10597898192E+03  0.10597898192E+03  0.00000000000E+00 0.  1.
         25    2    1    2    0    0 -0.74706302029E+02 -0.45359525587E+02  0.62603030893E+02  0.16493930042E+03  0.12508922904E+03 0.  0.
         23    2    1    2    0    0  0.74706302029E+02  0.45359525587E+02  0.15707279282E+02  0.12532897360E+03  0.88442720877E+02 0.  0.
          5    1    3    3  502    0 -0.32228404236E+02 -0.22267268456E+02 -0.37061105043E+02  0.54087883958E+02  0.41800000000E+01 0.  1.
         -5    1    3    3    0  502 -0.42477897793E+02 -0.23092257131E+02  0.99664135936E+02  0.11085141646E+03  0.41800000000E+01 0.  1.
        -11    1    4    4    0    0  0.18954968367E+02  0.60726553230E+02 -0.52167410159E+01  0.63829612875E+02  0.00000000000E+00 0. -1.
         11    1    4    4    0    0  0.55751333662E+02 -0.15367027644E+02  0.20924020298E+02  0.61499360721E+02  0.00000000000E+00 0.  1.
</event>
<event>
 8    1  0.6443238E-009  0.1437000E+03  0.7561462E-02  0.1208435E+00
         -2   -1    0    0    0  501 -0.00000000000E+00  0.00000000000E+00  0.12854777806E+03  0.12854777806E+03  0.00000000000E+00 0.  1.
          2   -1    0    0  501    0  0.00000000000E+00 -0.00000000000E+00 -0.16263145050E+03  0.16263145050E+03  0.00000000000E+00 0. -1.
         25    2    1    2    0    0  0.72763651968E+02  0.59932411131E+02 -0.26384174720E+02  0.15884047231E+03  0.12509087903E+03 0.  0.
         23    2    1    2    0    0 -0.72763651968E+02 -0.59932411131E+02 -0.76994977223E+01  0.13233875626E+03  0.92562525843E+02 0.  0.
          5    1    3    3  502    0  0.78472108386E+02  0.93005361415E+02 -0.28157476386E+02  0.12497273672E+03  0.41800000000E+01 0. -1.
         -5    1    3    3    0  502 -0.57084564172E+01 -0.33072950283E+02  0.17733016669E+01  0.33867735589E+02  0.41800000000E+01 0. -1.
        -11    1    4    4    0    0 -0.11809099449E+02 -0.69168160457E+02  0.31508182390E+00  0.70169712322E+02  0.00000000000E+00 0.  1.
         11    1    4    4    0    0 -0.60954552519E+02  0.92357493255E+01 -0.80145795462E+01  0.62169043934E+02  0.00000000000E+00 0. -1.
</event>
<event>
 8    1  0.6443238E-009  0.2705590E+03  0.7561462E-02  0.1100960E+00
          2   -1    0    0  501    0  0.00000000000E+00  0.00000000000E+00  0.52803253756E+03  0.52803253756E+03  0.00000000000E+00 0.  1.
         -2   -1    0    0    0  501 -0.00000000000E+00 -0.00000000000E+00 -0.15822376867E+03  0.15822376867E+03  0.00000000000E+00 0. -1.
         25    2    1    2    0    0  0.23010258774E+03  0.13094921195E+03  0.22900443086E+03  0.37173260734E+03  0.12508878850E+03 0.  0.
         23    2    1    2    0    0 -0.23010258774E+03 -0.13094921195E+03  0.14080433803E+03  0.31452369890E+03  0.94891509439E+02 0.  0.
          5    1    3    3  502    0  0.10173690739E+03  0.30716547302E+02  0.16581167041E+03  0.19698956076E+03  0.41800000000E+01 0. -1.
         -5    1    3    3    0  502  0.12836568035E+03  0.10023266465E+03  0.63192760450E+02  0.17474304658E+03  0.41800000000E+01 0. -1.
        -11    1    4    4    0    0 -0.23185377250E+02  0.57044673590E+01  0.40543445810E+02  0.47051818925E+02  0.00000000000E+00 0.  1.
         11    1    4    4    0    0 -0.20691721049E+03 -0.13665367931E+03  0.10026089222E+03  0.26747187997E+03  0.00000000000E+00 0. -1.
</event>
<event>
 8    1  0.6443238E-009  0.9361350E+02  0.7561462E-02  0.1294330E+00
          3   -1    0    0  501    0  0.00000000000E+00  0.00000000000E+00  0.21857049313E+03  0.21857049313E+03  0.00000000000E+00 0.  1.
         -3   -1    0    0    0  501 -0.00000000000E+00 -0.00000000000E+00 -0.66556318634E+02  0.66556318634E+02  0.00000000000E+00 0. -1.
         25    2    1    2    0    0 -0.49845080603E+02  0.38143711821E+01  0.64605440257E+02  0.14941069265E+03  0.12510240077E+03 0.  0.
         23    2    1    2    0    0  0.49845080603E+02 -0.38143711821E+01  0.87408734241E+02  0.13571611912E+03  0.90991739619E+02 0.  0.
          5    1    3    3  502    0 -0.72321249966E+02  0.14183719770E+02  0.88162424134E+02  0.11498533181E+03  0.41800000000E+01 0.  1.
         -5    1    3    3    0  502  0.22476169363E+02 -0.10369348588E+02 -0.23556983876E+02  0.34425360836E+02  0.41800000000E+01 0.  1.
        -11    1    4    4    0    0  0.58204314998E+02  0.21190055091E+02  0.89966213034E+02  0.10922765312E+03  0.00000000000E+00 0.  1.
         11    1    4    4    0    0 -0.83592343954E+01 -0.25004426274E+02 -0.25574787929E+01  0.26488465994E+02  0.00000000000E+00 0. -1.
</event>
<event>
 8    1  0.6443238E-009  0.1496718E+03  0.7561462E-02  0.1200877E+00
          2   -1    0    0  501    0  0.00000000000E+00  0.00000000000E+00  0.42326807273E+03  0.42326807273E+03  0.00000000000E+00 0. -1.
         -2   -1    0    0    0  501 -0.00000000000E+00 -0.00000000000E+00 -0.62886223665E+02  0.62886223665E+02  0.00000000000E+00 0.  1.
         25    2    1    2    0    0  0.11136764484E+03  0.46398754203E+02  0.24171152499E+03  0.29770592909E+03  0.12509501267E+03 0.  0.
         23    2    1    2    0    0 -0.11136764484E+03 -0.46398754203E+02  0.11867032407E+03  0.18844836730E+03  0.82912873642E+02 0.  0.
          5    1    3    3  502    0  0.53223547662E+02  0.82660961181E+02  0.10029842534E+03  0.14050917071E+03  0.41800000000E+01 0. -1.
         -5    1    3    3    0  502  0.58144097173E+02 -0.36262206978E+02  0.14141309965E+03  0.15719675838E+03  0.41800000000E+01 0. -1.
        -11    1    4    4    0    0 -0.79064765230E+02 -0.42416360170E+01  0.29178835739E+02  0.84383843431E+02  0.00000000000E+00 0.  1.
         11    1    4    4    0    0 -0.32302879605E+02 -0.42157118186E+02  0.89491488333E+02  0.10406452387E+03  0.00000000000E+00 0. -1.
</event>
<event>
 8    1  0.6443238E-009  0.1194954E+03  0.7561462E-02  0.1243932E+00
          2   -1    0    0  501    0  0.00000000000E+00  0.00000000000E+00  0.65666051225E+03  0.65666051225E+03  0.00000000000E+00 0. -1.
         -2   -1    0    0    0  501 -0.00000000000E+00 -0.00000000000E+00 -0.26616313897E+02  0.26616313897E+02  0.00000000000E+00 0.  1.
         25    2    1    2    0    0  0.51747404182E+02 -0.35865423769E+02  0.45248097458E+03  0.47365713133E+03  0.12509165934E+03 0.  0.
         23    2    1    2    0    0 -0.51747404182E+02  0.35865423769E+02  0.17756322377E+03  0.20961969482E+03  0.91910802189E+02 0.  0.
          5    1    3    3  502    0 -0.14032140784E+02  0.37249286767E+02  0.10068662589E+03  0.10834980098E+03  0.41800000000E+01 0.  1.
         -5    1    3    3    0  502  0.65779544966E+02 -0.73114710535E+02  0.35179434870E+03  0.36530733035E+03  0.41800000000E+01 0.  1.
        -11    1    4    4    0    0  0.17513057791E+02  0.24844719620E+02  0.18005655508E+02  0.35329462442E+02  0.00000000000E+00 0. -1.
         11    1    4    4    0    0 -0.69260461973E+02  0.11020704149E+02  0.15955756826E+03  0.17429023238E+03  0.00000000000E+00 0.  1.
</event>
<event>
 8    1  0.6443238E-009  0.1506784E+03  0.7561462E-02  0.1199642E+00
          1   -1    0    0  501    0  0.00000000000E+00  0.00000000000E+00  0.23717761226E+02  0.23717761226E+02  0.00000000000E+00 0. -1.
         -1   -1    0    0    0  501 -0.00000000000E+00 -0.00000000000E+00 -0.13018025243E+04  0.13018025243E+04  0.00000000000E+00 0.  1.
         25    2    1    2    0    0  0.10851812502E+03  0.51907847233E+02 -0.92487755489E+03  0.94101649317E+03  0.12507174270E+03 0.  0.
         23    2    1    2    0    0 -0.10851812502E+03 -0.51907847233E+02 -0.35320720816E+03  0.38450379233E+03  0.92829016785E+02 0.  0.
          5    1    3    3  502    0  0.32694193019E+02 -0.25375930426E+02 -0.90123611137E+02  0.99260192356E+02  0.41800000000E+01 0. -1.
         -5    1    3    3    0  502  0.75823932000E+02  0.77283777659E+02 -0.83475394375E+03  0.84175630081E+03  0.41800000000E+01 0. -1.
        -11    1    4    4    0    0 -0.11447366235E+03 -0.16679511133E+02 -0.25548231595E+03  0.28045256145E+03  0.00000000000E+00 0. -1.
         11    1    4    4    0    0  0.59555373274E+01 -0.35228336100E+02 -0.97724892213E+02  0.10405123088E+03  0.00000000000E+00 0.  1.
</event>
<event>
 8    1  0.6443238E-009  0.1165740E+03  0.7561462E-02  0.1248858E+00
          3   -1    0    0  501    0  0.00000000000E+00  0.00000000000E+00  0.27139806542E+03  0.27139806542E+03  0.00000000000E+00 0. -1.
         -3   -1    0    0    0  501 -0.00000000000E+00 -0.00000000000E+00 -0.78955862031E+02  0.78955862031E+02  0.00000000000E+00 0.  1.
         25    2    1    2    0    0 -0.20479731527E+02 -0.87270268759E+02  0.63827795475E+02  0.16660047740E+03  0.12508482074E+03 0.  0.
         23    2    1    2    0    0  0.20479731527E+02  0.87270268759E+02  0.12861440792E+03  0.18375345006E+03  0.95854813506E+02 0.  0.
          5    1    3    3  502    0  0.36996023281E+01 -0.77544269959E+02  0.96934096913E+02  0.12425977791E+03  0.41800000000E+01 0. -1.
         -5    1    3    3    0  502 -0.24179333855E+02 -0.97259988004E+01 -0.33106301438E+02  0.42340699490E+02  0.41800000000E+01 0. -1.
        -11    1    4    4    0    0  0.38349924713E+02  0.99977430191E+02  0.92486637151E+02  0.14149198325E+03  0.00000000000E+00 0.  1.
         11    1    4    4    0    0 -0.17870193186E+02 -0.12707161432E+02  0.36127770767E+02  0.42261466808E+02  0.00000000000E+00 0. -1.
</event>
<event>
 8    1  0.6443238E-009  0.1119113E+03  0.7561462E-02  0.1257071E+00
          1   -1    0    0  501    0  0.00000000000E+00  0.00000000000E+00  0.60728701090E+03  0.60728701090E+03  0.00000000000E+00 0. -1.
         -1   -1    0    0    0  501 -0.00000000000E+00 -0.00000000000E+00 -0.27143682342E+02  0.27143682342E+02  0.00000000000E+00 0.  1.
         25    2    1    2    0    0  0.17887711293E+02 -0.53140792859E+02  0.43243390581E+03  0.45364153438E+03  0.12509054618E+03 0.  0.
         23    2    1    2    0    0 -0.17887711293E+02  0.53140792859E+02  0.14770942275E+03  0.18078915886E+03  0.87879077778E+02 0.  0.
          5    1    3    3  502    0  0.10623767872E+02 -0.93029929486E+02  0.25767155380E+03  0.27418886605E+03  0.41800000000E+01 0.  1.
         -5    1    3    3    0  502  0.72639434205E+01  0.39889136626E+02  0.17476235201E+03  0.17945266834E+03  0.41800000000E+01 0.  1.
        -11    1    4    4    0    0 -0.24587033194E+02  0.68391835850E+02  0.14715353697E+03  0.16412229847E+03  0.00000000000E+00 0. -1.
         11    1    4    4    0    0  0.66993219007E+01 -0.15251042990E+02  0.55588577800E+00  0.16666860389E+02  0.00000000000E+00 0.  1.
</event>
<event>
 8    1  0.6443238E-009  0.4128127E+03  0.7561462E-02  0.1039431E+00
         -2   -1    0    0    0  501 -0.00000000000E+00  0.00000000000E+00  0.35140115970E+03  0.35140115970E+03  0.00000000000E+00 0.  1.
          2   -1    0    0  501    0  0.00000000000E+00 -0.00000000000E+00 -0.64168303294E+03  0.64168303294E+03  0.00000000000E+00 0. -1.
         25    2    1    2    0    0  0.25417342481E+03 -0.31505404247E+03  0.86655374059E+02  0.43245822137E+03  0.12509108611E+03 0.  0.
         23    2    1    2    0    0 -0.25417342481E+03  0.31505404247E+03 -0.37693724731E+03  0.56062597127E+03  0.91414504850E+02 0.  0.
          5    1    3    3  502    0  0.21025147261E+03 -0.20835562975E+03  0.14670423984E+02  0.29639575557E+03  0.41800000000E+01 0. -1.
         -5    1    3    3    0  502  0.43921952203E+02 -0.10669841272E+03  0.71984950075E+02  0.13606246580E+03  0.41800000000E+01 0. -1.
        -11    1    4    4    0    0 -0.13670451766E+03  0.10101387487E+03 -0.13708815765E+03  0.21836916228E+03  0.00000000000E+00 0.  1.
         11    1    4    4    0    0 -0.11746890715E+03  0.21404016760E+03 -0.23984908965E+03  0.34225680899E+03  0.00000000000E+00 0. -1.
</event>
<event>
 8    1  0.6443238E-009  0.2169100E+03  0.7561462E-02  0.1136208E+00
          2   -1    0    0  501    0  0.00000000000E+00  0.00000000000E+00  0.13080442534E+03  0.13080442534E+03  0.00000000000E+00 0. -1.
         -2   -1    0    0    0  501 -0.00000000000E+00 -0.00000000000E+00 -0.41986770020E+03  0.41986770020E+03  0.00000000000E+00 0.  1.
         25    2    1    2    0    0  0.84970910975E+02 -0.18130277079E+03 -0.21122889415E+03  0.31679076987E+03  0.12509194916E+03 0.  0.
         23    2    1    2    0    0 -0.84970910975E+02  0.18130277079E+03 -0.77834380712E+02  0.23388135567E+03  0.92474576497E+02 0.  0.
          5    1    3    3  502    0  0.10531337213E+03 -0.86348323432E+02 -0.99591782704E+02  0.16876888010E+03  0.41800000000E+01 0. -1.
         -5    1    3    3    0  502 -0.20342461154E+02 -0.94954447361E+02 -0.11163711145E+03  0.14802188977E+03  0.41800000000E+01 0. -1.
        -11    1    4    4    0    0 -0.47103961576E+02  0.10926547359E+03  0.32068518379E+01  0.11902945356E+03  0.00000000000E+00 0.  1.
         11    1    4    4    0    0 -0.37866949399E+02  0.72037297202E+02 -0.81041232550E+02  0.11485190211E+03  0.00000000000E+00 0. -1.
</event>
<event>
 8    1  0.6443238E-009  0.1400268E+03  0.7561462E-02  0.1213293E+00
          1   -1    0    0  501    0  0.00000000000E+00  0.00000000000E+00  0.29312438045E+03  0.29312438045E+03  0.00000000000E+00 0. -1.
         -1   -1    0    0    0  501 -0.00000000000E+00 -0.00000000000E+00 -0.84536476024E+02  0.84536476024E+02  0.00000000000E+00 0.  1.
         25    2    1    2    0    0 -0.30995958297E+02  0.10950957904E+03  0.11273312670E+03  0.20324860948E+03  0.12509253401E+03 0.  0.
         23    2    1    2    0    0  0.30995958297E+02 -0.10950957904E+03  0.95854777726E+02  0.17441224700E+03  0.90985692057E+02 0.  0.
          5    1    3    3  502    0 -0.54944155080E+02  0.51960311032E+02  0.15943202697E+01  0.75754526975E+02  0.41800000000E+01 0. -1.
         -5    1    3    3    0  502  0.23948196783E+02  0.57549268006E+02  0.11113880643E+03  0.12749408250E+03  0.41800000000E+01 0. -1.
        -11    1    4    4    0    0  0.43297036749E+02 -0.13941584500E+02  0.12936088369E+02  0.47289994205E+02  0.00000000000E+00 0.  1.
         11    1    4    4    0    0 -0.12301078452E+02 -0.95567994538E+02  0.82918689357E+02  0.12712225280E+03  0.00000000000E+00 0. -1.
</event>
<event>
 8    1  0.6443238E-009  0.1231649E+03  0.7561462E-02  0.1237965E+00
          2   -1    0    0  501    0  0.00000000000E+00  0.00000000000E+00  0.92102277298E+02  0.92102277298E+02  0.00000000000E+00 0.  1.
         -2   -1    0    0    0  501 -0.00000000000E+00 -0.00000000000E+00 -0.16780076196E+03  0.16780076196E+03  0.00000000000E+00 0. -1.
         25    2    1    2    0    0  0.59844404747E+02  0.69809879155E+01 -0.44033494078E+02  0.14565884639E+03  0.12508982356E+03 0.  0.
         23    2    1    2    0    0 -0.59844404747E+02 -0.69809879155E+01 -0.31664990581E+02  0.11424419287E+03  0.91754983536E+02 0.  0.
          5    1    3    3  502    0  0.87188718859E+02  0.39777484463E+02 -0.29460552045E+02  0.10034698547E+03  0.41800000000E+01 0. -1.
         -5    1    3    3    0  502 -0.27344314113E+02 -0.32796496548E+02 -0.14572942033E+02  0.45311860915E+02  0.41800000000E+01 0. -1.
        -11    1    4    4    0    0 -0.24310599567E+02  0.41077341487E+02 -0.25613865589E+02  0.54170317937E+02  0.00000000000E+00 0. -1.
         11    1    4    4    0    0 -0.35533805180E+02 -0.48058329403E+02 -0.60511249915E+01  0.60073874931E+02  0.00000000000E+00 0.  1.
</event>
<event>
 8    1  0.6443238E-009  0.2158137E+03  0.7561462E-02  0.1137043E+00
         -1   -1    0    0    0  501 -0.00000000000E+00  0.00000000000E+00  0.92190179809E+03  0.92190179809E+03  0.00000000000E+00 0.  1.
          1   -1    0    0  501    0  0.00000000000E+00 -0.00000000000E+00 -0.66043524092E+02  0.66043524092E+02  0.00000000000E+00 0. -1.
         25    2    1    2    0    0  0.15911327415E+03  0.11585763999E+03  0.65757828137E+03  0.69770789319E+03  0.12508829419E+03 0.  0.
         23    2    1    2    0    0 -0.15911327415E+03 -0.11585763999E+03  0.19827999263E+03  0.29023742899E+03  0.78630674398E+02 0.  0.
          5    1    3    3  502    0  0.74294718151E+02 -0.16203360739E+02  0.20834518702E+03  0.22182750821E+03  0.41800000000E+01 0. -1.
         -5    1    3    3    0  502  0.84818555995E+02  0.13206100073E+03  0.44923309435E+03  0.47588038498E+03  0.41800000000E+01 0. -1.
        -11    1    4    4    0    0 -0.80104730327E+02 -0.42649218380E+02  0.40934137021E+02  0.99555648874E+02  0.00000000000E+00 0.  1.
         11    1    4    4    0    0 -0.79008543819E+02 -0.73208421606E+02  0.15734585561E+03  0.19068178011E+03  0.00000000000E+00 0. -1.
</event>
<event>
 8    1  0.6443238E-009  0.1656032E+03  0.7561462E-02  0.1182512E+00
         -2   -1    0    0    0  501 -0.00000000000E+00  0.00000000000E+00  0.18084980267E+03  0.18084980267E+03  0.00000000000E+00 0.  1.
          2   -1    0    0  501    0  0.00000000000E+00 -0.00000000000E+00 -0.15963875415E+03  0.15963875415E+03  0.00000000000E+00 0. -1.
         25    2    1    2    0    0 -0.11893066314E+02 -0.12231270450E+03 -0.25971270985E+02  0.17726819087E+03  0.12509061464E+03 0.  0.
         23    2    1    2    0    0  0.11893066314E+02  0.12231270450E+03  0.47182319507E+02  0.16322036595E+03  0.96503232481E+02 0.  0.
          5    1    3    3  502    0 -0.45182499872E+02 -0.13265002640E+03 -0.19038203261E+02  0.14148290844E+03  0.41800000000E+01 0.  1.
         -5    1    3    3    0  502  0.33289433558E+02  0.10337321896E+02 -0.69330677242E+01  0.35785282431E+02  0.41800000000E+01 0.  1.
        -11    1    4    4    0    0  0.43094824547E+02  0.17444745517E+02  0.19102774565E+02  0.50263297195E+02  0.00000000000E+00 0. -1.
         11    1    4    4    0    0 -0.31201758233E+02  0.10486795898E+03  0.28079544942E+02  0.11295706876E+03  0.00000000000E+00 0.  1.
</event>
<event>
 8    1  0.6443238E-009  0.2306318E+03  0.7561462E-02  0.1126196E+00
         -1   -1    0    0    0  501 -0.00000000000E+00  0.00000000000E+00  0.28485499274E+03  0.28485499274E+03  0.00000000000E+00 0.  1.
          1   -1    0    0  501    0  0.00000000000E+00 -0.00000000000E+00 -0.19698811378E+03  0.19698811378E+03  0.00000000000E+00 0. -1.
         25    2    1    2    0    0 -0.10539771248E+03 -0.17401194337E+03  0.97354036566E+02  0.25790011566E+03  0.12508328022E+03 0.  0.
         23    2    1    2    0    0  0.10539771248E+03  0.17401194337E+03 -0.94871576035E+01  0.22394299086E+03  0.93121548332E+02 0.  0.
          5    1    3    3  502    0 -0.63839468514E+02 -0.18486549380E+03  0.81601498086E+02  0.21195991467E+03  0.41800000000E+01 0. -1.
         -5    1    3    3    0  502 -0.41558243967E+02  0.10853550427E+02  0.15752538479E+02  0.45940200990E+02  0.41800000000E+01 0. -1.
        -11    1    4    4    0    0  0.31340724632E+02 -0.21258585192E+01 -0.96776795454E+01  0.32869709099E+02  0.00000000000E+00 0. -1.
         11    1    4    4    0    0  0.74056987849E+02  0.17613780189E+03  0.19052194193E+00  0.19107328176E+03  0.00000000000E+00 0.  1.
</event>
<event>
 8    1  0.6443238E-009  0.1143055E+03  0.7561462E-02  0.1252798E+00
          4   -1    0    0  501    0  0.00000000000E+00  0.00000000000E+00  0.17380880809E+02  0.17380880809E+02  0.00000000000E+00 0. -1.
         -4   -1    0    0    0  501 -0.00000000000E+00 -0.00000000000E+00 -0.11072126911E+04  0.11072126911E+04  0.00000000000E+00 0.  1.
         25    2    1    2    0    0  0.67809462973E+02 -0.55304250174E+02 -0.54623073644E+03  0.56716160923E+03  0.12509032815E+03 0.  0.
         23    2    1    2    0    0 -0.67809462973E+02  0.55304250174E+02 -0.54360107385E+03  0.55743196268E+03  0.87014838769E+02 0.  0.
          5    1    3    3  502    0  0.42834370263E+02 -0.65792402179E+02 -0.14454826587E+03  0.16454512155E+03  0.41800000000E+01 0.  1.
         -5    1    3    3    0  502  0.24975092711E+02  0.10488152006E+02 -0.40168247057E+03  0.40261648768E+03  0.41800000000E+01 0.  1.
        -11    1    4    4    0    0 -0.76896425531E+02  0.11385437285E+02 -0.37465254884E+03  0.38263196520E+03  0.00000000000E+00 0.  1.
         11    1    4    4    0    0  0.90869625579E+01  0.43918812888E+02 -0.16894852502E+03  0.17479999748E+03  0.00000000000E+00 0. -1.
</event>
<event>
 8    1  0.6443238E-009  0.1088683E+03  0.7561462E-02  0.1262680E+00
         -2   -1    0    0    0  501 -0.00000000000E+00  0.00000000000E+00  0.14403837568E+02  0.14403837568E+02  0.00000000000E+00 0.  1.
          2   -1    0    0  501    0  0.00000000000E+00 -0.00000000000E+00 -0.87946980685E+03  0.87946980685E+03  0.00000000000E+00 0. -1.
         25    2    1    2    0    0 -0.37846725493E+02 -0.15240771404E+02 -0.53050853686E+03  0.54658105875E+03  0.12508753078E+03 0.  0.
         23    2    1    2    0    0  0.37846725493E+02  0.15240771404E+02 -0.33455743242E+03  0.34729258567E+03  0.83778330913E+02 0.  0.
          5    1    3    3  502    0 -0.23626046275E+01  0.51414916267E+02 -0.15028619104E+03  0.15891031160E+03  0.41800000000E+01 0.  1.
         -5    1    3    3    0  502 -0.35484120866E+02 -0.66655687672E+02 -0.38022234582E+03  0.38767074715E+03  0.41800000000E+01 0.  1.
        -11    1    4    4    0    0 -0.18437696695E+02 -0.17445529107E+02 -0.60436603650E+02  0.65550577464E+02  0.00000000000E+00 0. -1.
         11    1    4    4    0    0  0.56284422188E+02  0.32686300511E+02 -0.27412082877E+03  0.28174200821E+03  0.00000000000E+00 0.  1.
</event>
<event>
 8    1  0.6443238E-009  0.1144051E+03  0.7561462E-02  0.1252623E+00
         -2   -1    0    0    0  501 -0.00000000000E+00  0.00000000000E+00  0.24766752529E+02  0.24766752529E+02  0.00000000000E+00 0.  1.
          2   -1    0    0  501    0  0.00000000000E+00 -0.00000000000E+00 -0.75665587288E+03  0.75665587288E+03  0.00000000000E+00 0. -1.
         25    2    1    2    0    0  0.76931694903E+02 -0.30352282672E+02 -0.36990394772E+03  0.39914434401E+03  0.12509008782E+03 0.  0.
         23    2    1    2    0    0 -0.76931694903E+02  0.30352282672E+02 -0.36198517262E+03  0.38227828140E+03  0.90904744004E+02 0.  0.
          5    1    3    3  502    0  0.27964832724E+02 -0.53755791001E+02 -0.31862122015E+03  0.32435886185E+03  0.41800000000E+01 0.  1.
         -5    1    3    3    0  502  0.48966862179E+02  0.23403508329E+02 -0.51282727579E+02  0.74785482158E+02  0.41800000000E+01 0.  1.
        -11    1    4    4    0    0 -0.18009981979E+02  0.48702274895E+02 -0.24021159139E+03  0.24575980076E+03  0.00000000000E+00 0. -1.
         11    1    4    4    0    0 -0.58921712924E+02 -0.18349992223E+02 -0.12177358123E+03  0.13651848063E+03  0.00000000000E+00 0.  1.
</event>
<event>
 8    1  0.6443238E-009  0.1206593E+03  0.7561462E-02  0.1242013E+00
         -2   -1    0    0    0  501 -0.00000000000E+00  0.00000000000E+00  0.50329709876E+02  0.50329709876E+02  0.00000000000E+00 0.  1.
          2   -1    0    0  501    0  0.00000000000E+00 -0.00000000000E+00 -0.45630395029E+03  0.45630395029E+03  0.00000000000E+00 0. -1.
         25    2    1    2    0    0 -0.18730392664E+02 -0.99789238975E+02 -0.17077279280E+03  0.23477569239E+03  0.12509020405E+03 0.  0.
         23    2    1    2    0    0  0.18730392664E+02  0.99789238975E+02 -0.23520144761E+03  0.27185796778E+03  0.90985239798E+02 0.  0.
          5    1    3    3  502    0 -0.25624282468E+01  0.11702688712E+02 -0.10185707275E+03  0.10264431124E+03  0.41800000000E+01 0. -1.
         -5    1    3    3    0  502 -0.16167964418E+02 -0.11149192769E+03 -0.68915720053E+02  0.13213138114E+03  0.41800000000E+01 0. -1.
        -11    1    4    4    0    0  0.26535737892E+02  0.14480313349E+02 -0.11548759319E+02  0.32360449656E+02  0.00000000000E+00 0.  1.
         11    1    4    4    0    0 -0.78053452278E+01  0.85308925627E+02 -0.22365268830E+03  0.23949751812E+03  0.00000000000E+00 0. -1.
</event>
<event>
 8    1  0.6443238E-009  0.1065604E+03  0.7561462E-02  0.1267075E+00
         -2   -1    0    0    0  501 -0.00000000000E+00  0.00000000000E+00  0.35739892141E+03  0.35739892141E+03  0.00000000000E+00 0.  1.
          2   -1    0    0  501    0  0.00000000000E+00 -0.00000000000E+00 -0.66553016767E+02  0.66553016767E+02  0.00000000000E+00 0. -1.
         25    2    1    2    0    0  0.24722394951E+02 -0.96058875570E+02  0.92722995363E+02  0.18461584559E+03  0.12508777793E+03 0.  0.
         23    2    1    2    0    0 -0.24722394951E+02  0.96058875570E+02  0.19812290928E+03  0.23933609259E+03  0.90501788067E+02 0.  0.
          5    1    3    3  502    0  0.14801469849E+01 -0.15442620749E+02 -0.31089533196E+02  0.34995668947E+02  0.41800000000E+01 0.  1.
         -5    1    3    3    0  502  0.23242247966E+02 -0.80616254820E+02  0.12381252856E+03  0.14962017665E+03  0.41800000000E+01 0.  1.
        -11    1    4    4    0    0 -0.21243414995E+02  0.48693689929E+01  0.11117188392E+03  0.11328804531E+03  0.00000000000E+00 0.  1.
         11    1    4    4    0    0 -0.34789799563E+01  0.91189506577E+02  0.86951025365E+02  0.12604804728E+03  0.00000000000E+00 0. -1.
</event>
<event>
 8    1  0.6443238E-009  0.1014735E+03  0.7561462E-02  0.1277228E+00
         -1   -1    0    0    0  501 -0.00000000000E+00  0.00000000000E+00  0.18133014787E+02  0.18133014787E+02  0.00000000000E+00 0.  1.
          1   -1    0    0  501    0  0.00000000000E+00 -0.00000000000E+00 -0.86935846580E+03  0.86935846580E+03  0.00000000000E+00 0. -1.
         25    2    1    2    0    0 -0.16741777889E+02  0.44677438214E+02 -0.63429388326E+03  0.64826958899E+03  0.12509344131E+03 0.  0.
         23    2    1    2    0    0  0.16741777889E+02 -0.44677438214E+02 -0.21693156775E+03  0.23922189159E+03  0.88833820801E+02 0.  0.
          5    1    3    3  502    0  0.19472629194E+02  0.80332258233E+02 -0.37864751489E+03  0.38758723913E+03  0.41800000000E+01 0. -1.
         -5    1    3    3    0  502 -0.36214407083E+02 -0.35654820019E+02 -0.25564636837E+03  0.26068234986E+03  0.41800000000E+01 0. -1.
        -11    1    4    4    0    0  0.22781779280E+02 -0.53700044916E+02 -0.22026960623E+03  0.22786268611E+03  0.00000000000E+00 0. -1.
         11    1    4    4    0    0 -0.60400013914E+01  0.90226067018E+01  0.33380384747E+01  0.11359205490E+02  0.00000000000E+00 0.  1.
</event>
<event>
 8    1  0.6443238E-009  0.1603357E+03  0.7561462E-02  0.1188318E+00
         -2   -1    0    0    0  501 -0.00000000000E+00  0.00000000000E+00  0.14671566513E+03  0.14671566513E+03  0.00000000000E+00 0.  1.
          2   -1    0    0  501    0  0.00000000000E+00 -0.00000000000E+00 -0.18696282794E+03  0.18696282794E+03  0.00000000000E+00 0. -1.
         25    2    1    2    0    0 -0.10414521578E+03  0.46443516236E+02 -0.51905231760E+02  0.17704247666E+03  0.12508660714E+03 0.  0.
         23    2    1    2    0    0  0.10414521578E+03 -0.46443516236E+02  0.11658068958E+02  0.15663601641E+03  0.10675066695E+03 0.  0.
          5    1    3    3  502    0  0.27974086781E+02  0.13564287983E+02 -0.19805584251E+02  0.37098153690E+02  0.41800000000E+01 0. -1.
         -5    1    3    3    0  502 -0.13211930256E+03  0.32879228253E+02 -0.32099647509E+02  0.13994432297E+03  0.41800000000E+01 0. -1.
        -11    1    4    4    0    0  0.79212695268E+02 -0.79139372297E+02  0.22283902635E+02  0.11416769970E+03  0.00000000000E+00 0.  1.
         11    1    4    4    0    0  0.24932520515E+02  0.32695856061E+02 -0.10625833676E+02  0.42468316709E+02  0.00000000000E+00 0. -1.
</event>
<event>
 8    1  0.6443238E-009  0.1745687E+03  0.7561462E-02  0.1173166E+00
         -2   -1    0    0    0  501 -0.00000000000E+00  0.00000000000E+00  0.47072065175E+02  0.47072065175E+02  0.00000000000E+00 0.  1.
          2   -1    0    0  501    0  0.00000000000E+00 -0.00000000000E+00 -0.76634644651E+03  0.76634644651E+03  0.00000000000E+00 0. -1.
         25    2    1    2    0    0 -0.14849764136E+03  0.38428488031E+01 -0.27858010085E+03  0.33958888626E+03  0.12508965626E+03 0.  0.
         23    2    1    2    0    0  0.14849764136E+03 -0.38428488031E+01 -0.44069428049E+03  0.47382962543E+03  0.90756532016E+02 0.  0.
          5    1    3    3  502    0 -0.10121122776E+03 -0.50230635924E+02 -0.11697176102E+03  0.16268587734E+03  0.41800000000E+01 0. -1.
         -5    1    3    3    0  502 -0.47286413604E+02  0.54073484727E+02 -0.16160833983E+03  0.17690300892E+03  0.41800000000E+01 0. -1.
        -11    1    4    4    0    0  0.31613466496E+02  0.28793088502E+02 -0.56068286512E+02  0.70513161620E+02  0.00000000000E+00 0.  1.
         11    1    4    4    0    0  0.11688417486E+03 -0.32635937305E+02 -0.38462599397E+03  0.40331646381E+03  0.00000000000E+00 0. -1.
</event>
<event>
 8    1  0.6443238E-009  0.1556508E+03  0.7561462E-02  0.1193696E+00
          4   -1    0    0  501    0  0.00000000000E+00  0.00000000000E+00  0.40900993071E+02  0.40900993071E+02  0.00000000000E+00 0. -1.
         -4   -1    0    0    0  501 -0.00000000000E+00 -0.00000000000E+00 -0.71420070928E+03  0.71420070928E+03  0.00000000000E+00 0.  1.
         25    2    1    2    0    0 -0.35148758484E+02 -0.11940862566E+03 -0.44262458948E+03  0.47650596555E+03  0.12509017901E+03 0.  0.
         23    2    1    2    0    0  0.35148758484E+02  0.11940862566E+03 -0.23067512672E+03  0.27859573680E+03  0.94396585568E+02 0.  0.
          5    1    3    3  502    0 -0.76085878912E+02 -0.37868219066E+02 -0.20825607301E+03  0.22496916973E+03  0.41800000000E+01 0. -1.
         -5    1    3    3    0  502  0.40937120427E+02 -0.81540406597E+02 -0.23436851648E+03  0.25153679582E+03  0.41800000000E+01 0. -1.
        -11    1    4    4    0    0  0.81386436997E+01  0.10289529746E+03 -0.98471820744E+02  0.14265475541E+03  0.00000000000E+00 0. -1.
         11    1    4    4    0    0  0.27010114784E+02  0.16513328207E+02 -0.13220330598E+03  0.13594098139E+03  0.00000000000E+00 0.  1.
</event>
<event>
 8    1  0.6443238E-009  0.8451339E+02  0.7561462E-02  0.1316710E+00
          2   -1    0    0  501    0  0.00000000000E+00  0.00000000000E+00  0.11272070489E+03  0.11272070489E+03  0.00000000000E+00 0. -1.
         -2   -1    0    0    0  501 -0.00000000000E+00 -0.00000000000E+00 -0.20153727021E+03  0.20153727021E+03  0.00000000000E+00 0.  1.
         25    2    1    2    0    0  0.51147449957E+02  0.20312565070E+02  0.44016303700E+02  0.14357505194E+03  0.12509076149E+03 0.  0.
         23    2    1    2    0    0 -0.51147449957E+02 -0.20312565070E+02 -0.13283286901E+03  0.17068292316E+03  0.91975144644E+02 0.  0.
          5    1    3    3  502    0  0.41637511263E+00  0.97617165649E+01 -0.41861096914E+02  0.43188983704E+02  0.41800000000E+01 0. -1.
         -5    1    3    3    0  502  0.50731074845E+02  0.10550848505E+02  0.85877400614E+02  0.10038606823E+03  0.41800000000E+01 0. -1.
        -11    1    4    4    0    0 -0.52014277698E+02 -0.52682393441E+02 -0.82645909893E+02  0.11095614487E+03  0.00000000000E+00 0.  1.
         11    1    4    4    0    0  0.86682774041E+00  0.32369828371E+02 -0.50186959121E+02  0.59726778291E+02  0.00000000000E+00 0. -1.
</event>
<event>
 8    1  0.6443238E-009  0.1035589E+03  0.7561462E-02  0.1272985E+00
         -2   -1    0    0    0  501 -0.00000000000E+00  0.00000000000E+00  0.98122405410E+02  0.98122405410E+02  0.00000000000E+00 0.  1.
          2   -1    0    0  501    0  0.00000000000E+00 -0.00000000000E+00 -0.19420444626E+03  0.19420444626E+03  0.00000000000E+00 0. -1.
         25    2    1    2    0    0 -0.52223609144E+02  0.20550843550E+02 -0.12294060237E+03  0.18414799532E+03  0.12508577035E+03 0.  0.
         23    2    1    2    0    0  0.52223609144E+02 -0.20550843550E+02  0.26858561523E+02  0.10817885635E+03  0.88496554239E+02 0.  0.
          5    1    3    3  502    0 -0.56953292684E+02 -0.28427160056E+02 -0.15122560947E+02  0.65558715866E+02  0.41800000000E+01 0. -1.
         -5    1    3    3    0  502  0.47296835402E+01  0.48978003606E+02 -0.10781804143E+03  0.11858927945E+03  0.41800000000E+01 0. -1.
        -11    1    4    4    0    0  0.35601966265E+02 -0.49255032841E+02  0.39719927988E+02  0.72603243326E+02  0.00000000000E+00 0.  1.
         11    1    4    4    0    0  0.16621642879E+02  0.28704189292E+02 -0.12861366466E+02  0.35575613027E+02  0.00000000000E+00 0. -1.
</event>
<event>
 8    1  0.6443238E-009  0.1709895E+03  0.7561462E-02  0.1176820E+00
          1   -1    0    0  501    0  0.00000000000E+00  0.00000000000E+00  0.14135009138E+03  0.14135009138E+03  0.00000000000E+00 0. -1.
         -1   -1    0    0    0  501 -0.00000000000E+00 -0.00000000000E+00 -0.21724242394E+03  0.21724242394E+03  0.00000000000E+00 0.  1.
         25    2    1    2    0    0 -0.71184264494E+02  0.11517042325E+03 -0.28792989489E+02  0.18656319384E+03  0.12508142608E+03 0.  0.
         23    2    1    2    0    0  0.71184264494E+02 -0.11517042325E+03 -0.47099343075E+02  0.17202932148E+03  0.95101595302E+02 0.  0.
          5    1    3    3  502    0 -0.10010761931E+03  0.49045618919E+02 -0.10892587474E+02  0.11208536497E+03  0.41800000000E+01 0.  1.
         -5    1    3    3    0  502  0.28923354812E+02  0.66124804328E+02 -0.17900402015E+02  0.74477828870E+02  0.41800000000E+01 0.  1.
        -11    1    4    4    0    0  0.89276410989E+02 -0.10309487264E+03 -0.57396221539E+02  0.14796336226E+03  0.00000000000E+00 0.  1.
         11    1    4    4    0    0 -0.18092146495E+02 -0.12075550603E+02  0.10296878463E+02  0.24065959222E+02  0.00000000000E+00 0. -1.
</event>
<event>
 8    1  0.6443238E-009  0.9952322E+02  0.7561462E-02  0.1281302E+00
          2   -1    0    0  501    0  0.00000000000E+00  0.00000000000E+00  0.31343500819E+03  0.31343500819E+03  0.00000000000E+00 0.  1.
         -2   -1    0    0    0  501 -0.00000000000E+00 -0.00000000000E+00 -0.41128735525E+02  0.41128735525E+02  0.00000000000E+00 0. -1.
         25    2    1    2    0    0 -0.12444775993E+02 -0.32980227891E+02  0.13614974516E+03  0.18822179425E+03  0.12509245717E+03 0.  0.
         23    2    1    2    0    0  0.12444775993E+02  0.32980227891E+02  0.13615652750E+03  0.16634194947E+03  0.88817094581E+02 0.  0.
          5    1    3    3  502    0 -0.63738141350E+01 -0.80090860536E+02  0.69778346066E+02  0.10649723671E+03  0.41800000000E+01 0. -1.
         -5    1    3    3    0  502 -0.60709618583E+01  0.47110632645E+02  0.66371399098E+02  0.81724557535E+02  0.41800000000E+01 0. -1.
        -11    1    4    4    0    0  0.53249630535E+01  0.51133684354E+02  0.32398220574E+02  0.60767208291E+02  0.00000000000E+00 0. -1.
         11    1    4    4    0    0  0.71198129398E+01 -0.18153456463E+02  0.10375830693E+03  0.10557474118E+03  0.00000000000E+00 0.  1.
</event>
<event>
 8    1  0.6443238E-009  0.1114414E+03  0.7561462E-02  0.1257924E+00
         -2   -1    0    0    0  501 -0.00000000000E+00  0.00000000000E+00  0.30729462622E+03  0.30729462622E+03  0.00000000000E+00 0. -1.
          2   -1    0    0  501    0  0.00000000000E+00 -0.00000000000E+00 -0.50108840371E+02  0.50108840371E+02  0.00000000000E+00 0.  1.
         25    2    1    2    0    0  0.26823850476E+02 -0.33298218382E+02  0.20430519627E+03  0.24334333580E+03  0.12508827105E+03 0.  0.
         23    2    1    2    0    0 -0.26823850476E+02  0.33298218382E+02  0.52880589580E+02  0.11406013079E+03  0.91570008083E+02 0.  0.
          5    1    3    3  502    0 -0.33229668035E+02 -0.52632070850E+02  0.63618369662E+02  0.89101711982E+02  0.41800000000E+01 0. -1.
         -5    1    3    3    0  502  0.60053518511E+02  0.19333852468E+02  0.14068682661E+03  0.15424162382E+03  0.41800000000E+01 0. -1.
        -11    1    4    4    0    0 -0.33235985578E+02 -0.23121900226E+02  0.37606271290E+02  0.55258344599E+02  0.00000000000E+00 0. -1.
         11    1    4    4    0    0  0.64121351023E+01  0.56420118608E+02  0.15274318290E+02  0.58801786194E+02  0.00000000000E+00 0.  1.
</event>
<event>
 8    1  0.6443238E-009  0.9549548E+02  0.7561462E-02  0.1290064E+00
         -3   -1    0    0    0  501 -0.00000000000E+00  0.00000000000E+00  0.29023099977E+03  0.29023099977E+03  0.00000000000E+00 0.  1.
          3   -1    0    0  501    0  0.00000000000E+00 -0.00000000000E+00 -0.59256423724E+02  0.59256423724E+02  0.00000000000E+00 0. -1.
         25    2    1    2    0    0 -0.71294865991E+02  0.11198744585E+02  0.10270876203E+03  0.17722241753E+03  0.12510126171E+03 0.  0.
         23    2    1    2    0    0  0.71294865991E+02 -0.11198744585E+02  0.12826581401E+03  0.17226500596E+03  0.89525099482E+02 0.  0.
          5    1    3    3  502    0 -0.34751857792E+02 -0.26129837195E+02 -0.16744549748E+02  0.46779401002E+02  0.41800000000E+01 0. -1.
         -5    1    3    3    0  502 -0.36543008199E+02  0.37328581780E+02  0.11945331178E+03  0.13044301653E+03  0.41800000000E+01 0. -1.
        -11    1    4    4    0    0  0.79610077458E+02 -0.20722671402E+02  0.13488727686E+03  0.15799294605E+03  0.00000000000E+00 0.  1.
         11    1    4    4    0    0 -0.83152114668E+01  0.95239268167E+01 -0.66214628506E+01  0.14272059908E+02  0.00000000000E+00 0. -1.
</event>
<event>
 8    1  0.6443238E-009  0.1261369E+03  0.7561462E-02  0.1233303E+00
          3   -1    0    0  501    0  0.00000000000E+00  0.00000000000E+00  0.10015470450E+03  0.10015470450E+03  0.00000000000E+00 0. -1.
         -3   -1    0    0    0  501 -0.00000000000E+00 -0.00000000000E+00 -0.23322173071E+03  0.23322173071E+03  0.00000000000E+00 0.  1.
         25    2    1    2    0    0  0.59099132235E+02  0.91765861665E+02 -0.75223362267E+02  0.18226063092E+03  0.12508678009E+03 0.  0.
         23    2    1    2    0    0 -0.59099132235E+02 -0.91765861665E+02 -0.57843663948E+02  0.15111580430E+03  0.87042610547E+02 0.  0.
          5    1    3    3  502    0  0.24932521622E+01  0.61360284960E+02 -0.96487719687E+02  0.11444934830E+03  0.41800000000E+01 0.  1.
         -5    1    3    3    0  502  0.56605880073E+02  0.30405576706E+02  0.21264357419E+02  0.67811282616E+02  0.41800000000E+01 0.  1.
        -11    1    4    4    0    0 -0.52575094533E+02 -0.23220549592E+02 -0.58841331272E+02  0.82253490834E+02  0.00000000000E+00 0.  1.
         11    1    4    4    0    0 -0.65240377021E+01 -0.68545312074E+02  0.99766732391E+00  0.68862313462E+02  0.00000000000E+00 0. -1.
</event>
<event>
 8    1  0.6443238E-009  0.1173261E+03  0.7561462E-02  0.1247574E+00
         -1   -1    0    0    0  501 -0.00000000000E+00  0.00000000000E+00  0.17466426377E+02  0.17466426377E+02  0.00000000000E+00 0.  1.
          1   -1    0    0  501    0  0.00000000000E+00 -0.00000000000E+00 -0.81715732881E+03  0.81715732881E+03  0.00000000000E+00 0. -1.
         25    2    1    2    0    0  0.51312996833E+02 -0.11988351995E+02 -0.46525228763E+03  0.48464824442E+03  0.12508990943E+03 0.  0.
         23    2    1    2    0    0 -0.51312996833E+02  0.11988351995E+02 -0.33443861480E+03  0.34997551077E+03  0.88639307549E+02 0.  0.
          5    1    3    3  502    0 -0.27126830345E+02  0.34113162053E+02 -0.17778661598E+03  0.18309867824E+03  0.41800000000E+01 0.  1.
         -5    1    3    3    0  502  0.78439827178E+02 -0.46101514048E+02 -0.28746567165E+03  0.30154956618E+03  0.41800000000E+01 0.  1.
        -11    1    4    4    0    0  0.23671178134E+02  0.67799890201E+01 -0.49449483763E+02  0.55240785384E+02  0.00000000000E+00 0.  1.
         11    1    4    4    0    0 -0.74984174966E+02  0.52083629747E+01 -0.28498913103E+03  0.29473472538E+03  0.00000000000E+00 0. -1.
</event>
<event>
 8    1  0.6443238E-009  0.1085649E+03  0.7561462E-02  0.1263251E+00
         -2   -1    0    0    0  501 -0.00000000000E+00  0.00000000000E+00  0.19426579490E+02  0.19426579490E+02  0.00000000000E+00 0.  1.
          2   -1    0    0  501    0  0.00000000000E+00 -0.00000000000E+00 -0.73982228458E+03  0.73982228458E+03  0.00000000000E+00 0. -1.
         25    2    1    2    0    0 -0.44277589933E+02 -0.14311273639E+02 -0.46613672029E+03  0.48486739405E+03  0.12509048838E+03 0.  0.
         23    2    1    2    0    0  0.44277589933E+02  0.14311273639E+02 -0.25425898479E+03  0.27438147002E+03  0.92044783762E+02 0.  0.
          5    1    3    3  502    0 -0.12116703391E+02 -0.63592046778E+02 -0.33278450141E+03  0.33904831469E+03  0.41800000000E+01 0. -1.
         -5    1    3    3    0  502 -0.32160886542E+02  0.49280773139E+02 -0.13335221888E+03  0.14581907936E+03  0.41800000000E+01 0. -1.
        -11    1    4    4    0    0  0.14436527612E+02 -0.33741099630E+02 -0.16246972207E+03  0.16656315836E+03  0.00000000000E+00 0. -1.
         11    1    4    4    0    0  0.29841062321E+02  0.48052373269E+02 -0.91789262724E+02  0.10781831166E+03  0.00000000000E+00 0.  1.
</event>
<event>
 8    1  0.6443238E-009  0.1576076E+03  0.7561462E-02  0.1191425E+00
         -2   -1    0    0    0  501 -0.00000000000E+00  0.00000000000E+00  0.16863384608E+02  0.16863384608E+02  0.00000000000E+00 0.  1.
          2   -1    0    0  501    0  0.00000000000E+00 -0.00000000000E+00 -0.15847545617E+04  0.15847545617E+04  0.00000000000E+00 0. -1.
         25    2    1    2    0    0  0.74097246647E+02  0.93693356273E+02 -0.96117653741E+03  0.97661510866E+03  0.12509151620E+03 0.  0.
         23    2    1    2    0    0 -0.74097246647E+02 -0.93693356273E+02 -0.60671463967E+03  0.62500283763E+03  0.90868289807E+02 0.  0.
          5    1    3    3  502    0 -0.29835585756E+02  0.86768980557E+01 -0.93899036210E+02  0.98994707628E+02  0.41800000000E+01 0.  1.
         -5    1    3    3    0  502  0.10393283240E+03  0.85016458217E+02 -0.86727750120E+03  0.87762040103E+03  0.41800000000E+01 0.  1.
        -11    1    4    4    0    0  0.18829295115E+02 -0.34621418569E+02 -0.18484179359E+03  0.18899649107E+03  0.00000000000E+00 0. -1.
         11    1    4    4    0    0 -0.92926541762E+02 -0.59071937703E+02 -0.42187284608E+03  0.43600634656E+03  0.00000000000E+00 0.  1.
</event>
<event>
 8    1  0.6443238E-009  0.1434450E+03  0.7561462E-02  0.1208767E+00
         -1   -1    0    0    0  501 -0.00000000000E+00  0.00000000000E+00  0.21891052602E+02  0.21891052602E+02  0.00000000000E+00 0.  1.
          1   -1    0    0  501    0  0.00000000000E+00 -0.00000000000E+00 -0.12045223237E+04  0.12045223237E+04  0.00000000000E+00 0. -1.
         25    2    1    2    0    0  0.86289429152E+02 -0.54746305800E+02 -0.86476133769E+03  0.87971760413E+03  0.12509143965E+03 0.  0.
         23    2    1    2    0    0 -0.86289429152E+02  0.54746305800E+02 -0.31786993338E+03  0.34669577214E+03  0.93346881536E+02 0.  0.
          5    1    3    3  502    0  0.65672411837E+02  0.28707543027E+02 -0.48788843511E+03  0.49314256176E+03  0.41800000000E+01 0. -1.
         -5    1    3    3    0  502  0.20617017315E+02 -0.83453848827E+02 -0.37687290257E+03  0.38657504237E+03  0.41800000000E+01 0. -1.
        -11    1    4    4    0    0 -0.28575267984E+02 -0.19792469612E+02 -0.15185288551E+03  0.15578057206E+03  0.00000000000E+00 0. -1.
         11    1    4    4    0    0 -0.57714161168E+02  0.74538775411E+02 -0.16601704787E+03  0.19091520008E+03  0.00000000000E+00 0.  1.
</event>
<event>
 8    1  0.6443238E-009  0.1336006E+03  0.7561462E-02  0.1222209E+00
          3   -1    0    0  501    0  0.00000000000E+00  0.00000000000E+00  0.14586343383E+03  0.14586343383E+03  0.00000000000E+00 0. -1.
         -3   -1    0    0    0  501 -0.00000000000E+00 -0.00000000000E+00 -0.12763684852E+03  0.12763684852E+03  0.00000000000E+00 0.  1.
         25    2    1    2    0    0  0.77217746583E+02  0.17250343498E+02 -0.13184998158E+02  0.14859652539E+03  0.12508768303E+03 0.  0.
         23    2    1    2    0    0 -0.77217746583E+02 -0.17250343498E+02  0.31411583468E+02  0.12490375696E+03  0.91400799717E+02 0.  0.
          5    1    3    3  502    0  0.10428831210E+03  0.39845259659E+02 -0.16512869257E+02  0.11293291818E+03  0.41800000000E+01 0.  1.
         -5    1    3    3    0  502 -0.27070565514E+02 -0.22594916161E+02  0.33278710999E+01  0.35663607216E+02  0.41800000000E+01 0.  1.
        -11    1    4    4    0    0 -0.85623320916E+01 -0.45084902584E+02  0.19530383912E+02  0.49873819461E+02  0.00000000000E+00 0.  1.
         11    1    4    4    0    0 -0.68655414491E+02  0.27834559086E+02  0.11881199556E+02  0.75029937501E+02  0.00000000000E+00 0. -1.
</event>
<event>
 8    1  0.6443238E-009  0.2080928E+03  0.7561462E-02  0.1143085E+00
          4   -1    0    0  501    0  0.00000000000E+00  0.00000000000E+00  0.36992731042E+03  0.36992731042E+03  0.00000000000E+00 0. -1.
         -4   -1    0    0    0  501 -0.00000000000E+00 -0.00000000000E+00 -0.15152955846E+03  0.15152955846E+03  0.00000000000E+00 0.  1.
         25    2    1    2    0    0  0.15180489370E+02  0.19036551011E+03  0.16857422513E+02  0.22891320458E+03  0.12509039868E+03 0.  0.
         23    2    1    2    0    0 -0.15180489370E+02 -0.19036551011E+03  0.20154032944E+03  0.29254366429E+03  0.92161903349E+02 0.  0.
          5    1    3    3  502    0  0.63834040376E+02  0.14491541087E+03 -0.56502923140E+01  0.15850759989E+03  0.41800000000E+01 0.  1.
         -5    1    3    3    0  502 -0.48653551006E+02  0.45450099239E+02  0.22507714827E+02  0.70405604699E+02  0.41800000000E+01 0.  1.
        -11    1    4    4    0    0 -0.13710329939E+02 -0.13748818777E+03  0.79206088713E+02  0.15926261147E+03  0.00000000000E+00 0.  1.
         11    1    4    4    0    0 -0.14701594313E+01 -0.52877322342E+02  0.12233424073E+03  0.13328105282E+03  0.00000000000E+00 0. -1.
</event>
<event>
 8    1  0.6443238E-009  0.1704199E+03  0.7561462E-02  0.1177411E+00
          1   -1    0    0  501    0  0.00000000000E+00  0.00000000000E+00  0.79655389975E+02  0.79655389975E+02  0.00000000000E+00 0. -1.
         -1   -1    0    0    0  501 -0.00000000000E+00 -0.00000000000E+00 -0.43604261084E+03  0.43604261084E+03  0.00000000000E+00 0.  1.
         25    2    1    2    0    0 -0.11467446053E+03 -0.72719475402E+02 -0.95707837514E+02  0.20795669998E+03  0.12509054682E+03 0.  0.
         23    2    1    2    0    0  0.11467446053E+03  0.72719475402E+02 -0.26067938335E+03  0.30774130084E+03  0.91173534188E+02 0.  0.
          5    1    3    3  502    0 -0.11944878079E+03 -0.14929239867E+02 -0.38655300637E+02  0.12650137589E+03  0.41800000000E+01 0. -1.
         -5    1    3    3    0  502  0.47743202612E+01 -0.57790235535E+02 -0.57052536878E+02  0.81455324082E+02  0.41800000000E+01 0. -1.
        -11    1    4    4    0    0  0.89568516875E+02  0.46380103641E+01 -0.16317519513E+03  0.18619928749E+03  0.00000000000E+00 0.  1.
         11    1    4    4    0    0  0.25105943656E+02  0.68081465038E+02 -0.97504188222E+02  0.12154201335E+03  0.00000000000E+00 0. -1.
</event>
<event>
 8    1  0.6443238E-009  0.1095750E+03  0.7561462E-02  0.1261359E+00
         -1   -1    0    0    0  501 -0.00000000000E+00  0.00000000000E+00  0.31279520372E+03  0.31279520372E+03  0.00000000000E+00 0.  1.
          1   -1    0    0  501    0  0.00000000000E+00 -0.00000000000E+00 -0.49407117824E+02  0.49407117824E+02  0.00000000000E+00 0. -1.
         25    2    1    2    0    0  0.23748012630E+02  0.51133619928E+02  0.17745853356E+03  0.22431621380E+03  0.12509043709E+03 0.  0.
         23    2    1    2    0    0 -0.23748012630E+02 -0.51133619928E+02  0.85929552341E+02  0.13788610774E+03  0.91924292503E+02 0.  0.
          5    1    3    3  502    0 -0.21156688709E+02 -0.34257610980E+02  0.47568536167E+02  0.62461407447E+02  0.41800000000E+01 0. -1.
         -5    1    3    3    0  502  0.44904701338E+02  0.85391230908E+02  0.12988999739E+03  0.16185480635E+03  0.41800000000E+01 0. -1.
        -11    1    4    4    0    0 -0.10576205594E+02 -0.63295386786E+02  0.16612608828E+02  0.66288316355E+02  0.00000000000E+00 0. -1.
         11    1    4    4    0    0 -0.13171807036E+02  0.12161766857E+02  0.69316943513E+02  0.71597791388E+02  0.00000000000E+00 0.  1.
</event>
<event>
 8    1  0.6443238E-009  0.1048068E+03  0.7561462E-02  0.1270501E+00
          2   -1    0    0  501    0  0.00000000000E+00  0.00000000000E+00  0.11697512156E+04  0.11697512156E+04  0.00000000000E+00 0.  1.
         -2   -1    0    0    0  501 -0.00000000000E+00 -0.00000000000E+00 -0.12385761496E+02  0.12385761496E+02  0.00000000000E+00 0. -1.
         25    2    1    2    0    0 -0.42160284582E+02 -0.25870270677E+02  0.71717169408E+03  0.72967797230E+03  0.12509174219E+03 0.  0.
         23    2    1    2    0    0  0.42160284582E+02  0.25870270677E+02  0.44019375999E+03  0.45245900476E+03  0.92205445383E+02 0.  0.
          5    1    3    3  502    0 -0.66928187717E+02  0.28106996189E+01  0.19716904629E+03  0.20827958987E+03  0.41800000000E+01 0. -1.
         -5    1    3    3    0  502  0.24767903135E+02 -0.28680970295E+02  0.52000264779E+03  0.52139838242E+03  0.41800000000E+01 0. -1.
        -11    1    4    4    0    0 -0.51053420441E+01 -0.30433198511E+02  0.11592545341E+03  0.11996230590E+03  0.00000000000E+00 0. -1.
         11    1    4    4    0    0  0.47265626626E+02  0.56303469187E+02  0.32426830658E+03  0.33249669887E+03  0.00000000000E+00 0.  1.
</event>
<event>
 8    1  0.6443238E-009  0.8385073E+02  0.7561462E-02  0.1318466E+00
          2   -1    0    0  501    0  0.00000000000E+00  0.00000000000E+00  0.13899662336E+03  0.13899662336E+03  0.00000000000E+00 0. -1.
         -2   -1    0    0    0  501 -0.00000000000E+00 -0.00000000000E+00 -0.10242779910E+03  0.10242779910E+03  0.00000000000E+00 0.  1.
         25    2    1    2    0    0  0.46607281105E+02 -0.10689591372E+02  0.43134857283E+00  0.13391901869E+03  0.12509041326E+03 0.  0.
         23    2    1    2    0    0 -0.46607281105E+02  0.10689591372E+02  0.36137475689E+02  0.10750540376E+03  0.89246785224E+02 0.  0.
          5    1    3    3  502    0  0.65259817734E+02 -0.13294539228E+02 -0.47725719532E+02  0.82041485170E+02  0.41800000000E+01 0. -1.
         -5    1    3    3    0  502 -0.18652536629E+02  0.26049478565E+01  0.48157068105E+02  0.51877533523E+02  0.41800000000E+01 0. -1.
        -11    1    4    4    0    0 -0.37597472269E+02 -0.24815038093E+02  0.50936256384E+02  0.67998957720E+02  0.00000000000E+00 0. -1.
         11    1    4    4    0    0 -0.90098088359E+01  0.35504629465E+02 -0.14798780695E+02  0.39506446041E+02  0.00000000000E+00 0.  1.
</event>
<event>
 8    1  0.6443238E-009  0.9666449E+02  0.7561462E-02  0.1287471E+00
          2   -1    0    0  501    0  0.00000000000E+00  0.00000000000E+00  0.13788210704E+03  0.13788210704E+03  0.00000000000E+00 0. -1.
         -2   -1    0    0    0  501 -0.00000000000E+00 -0.00000000000E+00 -0.11278111696E+03  0.11278111696E+03  0.00000000000E+00 0.  1.
         25    2    1    2    0    0 -0.44403292306E+02  0.87504276746E+01 -0.27866882573E+02  0.13591067353E+03  0.12508767198E+03 0.  0.
         23    2    1    2    0    0  0.44403292306E+02 -0.87504276746E+01  0.52967872657E+02  0.11475255047E+03  0.91182947716E+02 0.  0.
          5    1    3    3  502    0 -0.34131469041E+02  0.64736773266E+02 -0.28986114733E+02  0.78825593807E+02  0.41800000000E+01 0. -1.
         -5    1    3    3    0  502 -0.10271823265E+02 -0.55986345591E+02  0.11192321597E+01  0.57085079718E+02  0.41800000000E+01 0. -1.
        -11    1    4    4    0    0  0.37561892570E+02 -0.25135576685E+02  0.74319119596E+02  0.86982897895E+02  0.00000000000E+00 0. -1.
         11    1    4    4    0    0  0.68413997359E+01  0.16385149011E+02 -0.21351246939E+02  0.27769652578E+02  0.00000000000E+00 0.  1.
</event>
<event>
 8    1  0.6443238E-009  0.1925520E+03  0.7561462E-02  0.1156179E+00
         -1   -1    0    0    0  501 -0.00000000000E+00  0.00000000000E+00  0.63653644046E+03  0.63653644046E+03  0.00000000000E+00 0.  1.
          1   -1    0    0  501    0  0.00000000000E+00 -0.00000000000E+00 -0.91882162154E+02  0.91882162154E+02  0.00000000000E+00 0. -1.
         25    2    1    2    0    0 -0.16359993207E+03  0.24766438410E+02  0.48934148441E+03  0.53148921021E+03  0.12508947982E+03 0.  0.
         23    2    1    2    0    0  0.16359993207E+03 -0.24766438410E+02  0.55312793902E+02  0.19692939241E+03  0.91342028548E+02 0.  0.
          5    1    3    3  502    0 -0.14941176613E+03 -0.19613367870E+02  0.43163592067E+03  0.45720411248E+03  0.41800000000E+01 0.  1.
         -5    1    3    3    0  502 -0.14188165942E+02  0.44379806280E+02  0.57705563740E+02  0.74285097730E+02  0.41800000000E+01 0.  1.
        -11    1    4    4    0    0  0.59438485906E+01  0.22270066497E+02 -0.90249339546E+00  0.23067286190E+02  0.00000000000E+00 0. -1.
         11    1    4    4    0    0  0.15765608348E+03 -0.47036504907E+02  0.56215287297E+02  0.17386210622E+03  0.00000000000E+00 0.  1.
</event>
<event>
 8    1  0.6443238E-009  0.1239470E+03  0.7561462E-02  0.1236724E+00
          1   -1    0    0  501    0  0.00000000000E+00  0.00000000000E+00  0.39131386713E+02  0.39131386713E+02  0.00000000000E+00 0. -1.
         -1   -1    0    0    0  501 -0.00000000000E+00 -0.00000000000E+00 -0.56368328955E+03  0.56368328955E+03  0.00000000000E+00 0.  1.
         25    2    1    2    0    0 -0.44804989210E+02 -0.87776275180E+02 -0.29266667233E+03  0.33318772145E+03  0.12509242618E+03 0.  0.
         23    2    1    2    0    0  0.44804989210E+02  0.87776275180E+02 -0.23188523051E+03  0.26962695481E+03  0.95998818185E+02 0.  0.
          5    1    3    3  502    0  0.26664539086E+02 -0.70779169685E+02 -0.90337887624E+02  0.11789442246E+03  0.41800000000E+01 0.  1.
         -5    1    3    3    0  502 -0.71469528296E+02 -0.16997105495E+02 -0.20232878471E+03  0.21529329900E+03  0.41800000000E+01 0.  1.
        -11    1    4    4    0    0  0.23204881744E+02  0.47097053694E+02 -0.25879127260E+02  0.58534846298E+02  0.00000000000E+00 0. -1.
         11    1    4    4    0    0  0.21600107466E+02  0.40679221487E+02 -0.20600610325E+03  0.21109210852E+03  0.00000000000E+00 0.  1.
</event>
<event>
 8    1  0.6443238E-009  0.2025501E+03  0.7561462E-02  0.1147605E+00
         -2   -1    0    0    0  501 -0.00000000000E+00  0.00000000000E+00  0.93714043220E+02  0.93714043220E+02  0.00000000000E+00 0.  1.
          2   -1    0    0  501    0  0.00000000000E+00 -0.00000000000E+00 -0.83379941968E+03  0.83379941968E+03  0.00000000000E+00 0. -1.
         25    2    1    2    0    0 -0.15498276855E+03  0.10168035762E+03 -0.82580378692E+02  0.23838160726E+03  0.12509083923E+03 0.  0.
         23    2    1    2    0    0  0.15498276855E+03 -0.10168035762E+03 -0.65750499777E+03  0.68913185564E+03  0.90726725394E+02 0.  0.
          5    1    3    3  502    0 -0.15089830941E+03  0.12193458402E+03 -0.51398710738E+02  0.20074272696E+03  0.41800000000E+01 0. -1.
         -5    1    3    3    0  502 -0.40844591390E+01 -0.20254226396E+02 -0.31181667954E+02  0.37638880294E+02  0.41800000000E+01 0. -1.
        -11    1    4    4    0    0  0.16421556314E+02  0.25006895169E+01 -0.11331332810E+02  0.20107711533E+02  0.00000000000E+00 0.  1.
         11    1    4    4    0    0  0.13856121223E+03 -0.10418104714E+03 -0.64617366496E+03  0.66902414411E+03  0.00000000000E+00 0. -1.
</event>
<event>
 7    1  0.6443238E-009  0.7278903E+02  0.7561462E-02  0.1350858E+00
         -2   -1    0    0    0  501 -0.00000000000E+00  0.00000000000E+00  0.44367574183E+02  0.44367574183E+02  0.00000000000E+00 0.  1.
          2   -1    0    0  501    0  0.00000000000E+00 -0.00000000000E+00 -0.29757735613E+03  0.29757735613E+03  0.00000000000E+00 0. -1.
         23    2    1    2    0    0  0.17824317921E+02 -0.71315627256E+00 -0.16542619467E+03  0.18821530401E+03  0.87982724890E+02 0.  0.
          5    1    1    2  502    0  0.75501990955E+01  0.21901641098E+02  0.26055128118E+02  0.35114519653E+02  0.41800000000E+01 0. -1.
         -5    1    1    2    0  502 -0.25374517016E+02 -0.21188484826E+02 -0.11383871539E+03  0.11861510665E+03  0.41800000000E+01 0. -1.
        -11    1    3    3    0    0 -0.35444378901E+02 -0.43131347932E+00 -0.80593971701E+02  0.88044751698E+02  0.00000000000E+00 0.  1.
         11    1    3    3    0    0  0.53268696822E+02 -0.28184279324E+00 -0.84832222972E+02  0.10017055231E+03  0.00000000000E+00 0. -1.
</event>
<event>
 8    1  0.6443238E-009  0.7886236E+02  0.7561462E-02  0.1332311E+00
         -1   -1    0    0    0  501 -0.00000000000E+00  0.00000000000E+00  0.35484305942E+02  0.35484305942E+02  0.00000000000E+00 0.  1.
          1   -1    0    0  501    0  0.00000000000E+00 -0.00000000000E+00 -0.35766190037E+03  0.35766190037E+03  0.00000000000E+00 0. -1.
         25    2    1    2    0    0 -0.40449421931E+01  0.28488276651E+02 -0.17625568364E+03  0.21803940630E+03  0.12508866144E+03 0.  0.
         23    2    1    2    0    0  0.40449421931E+01 -0.28488276651E+02 -0.14592191079E+03  0.17510680001E+03  0.92418850340E+02 0.  0.
          5    1    3    3  502    0 -0.55381370307E+02  0.21633129278E+01 -0.13777872927E+03  0.14856724653E+03  0.41800000000E+01 0. -1.
         -5    1    3    3    0  502  0.51336428114E+02  0.26324963724E+02 -0.38476954369E+02  0.69472159777E+02  0.41800000000E+01 0. -1.
        -11    1    4    4    0    0  0.10604917843E+02  0.38657697657E+01  0.10393272140E+02  0.15343681570E+02  0.00000000000E+00 0.  1.
         11    1    4    4    0    0 -0.65599756497E+01 -0.32354046417E+02 -0.15631518293E+03  0.15976311844E+03  0.00000000000E+00 0. -1.
</event>
<event>
 8    1  0.6443238E-009  0.1275992E+03  0.7561462E-02  0.1231062E+00
         -2   -1    0    0    0  501 -0.00000000000E+00  0.00000000000E+00  0.10887936776E+03  0.10887936776E+03  0.00000000000E+00 0. -1.
          2   -1    0    0  501    0  0.00000000000E+00 -0.00000000000E+00 -0.21861660821E+03  0.21861660821E+03  0.00000000000E+00 0.  1.
         25    2    1    2    0    0 -0.59042439107E+02  0.63837961487E+02  0.62368094608E+01  0.15246236211E+03  0.12507829198E+03 0.  0.
         23    2    1    2    0    0  0.59042439107E+02 -0.63837961487E+02 -0.11597404991E+03  0.17503361387E+03  0.98109585611E+02 0.  0.
          5    1    3    3  502    0 -0.42952212595E+02  0.10179908616E+03  0.89615092526E+01  0.11093118388E+03  0.41800000000E+01 0.  1.
         -5    1    3    3    0  502 -0.16090226512E+02 -0.37961124672E+02 -0.27246997918E+01  0.41531178222E+02  0.41800000000E+01 0.  1.
        -11    1    4    4    0    0  0.17615591784E+02  0.87055068496E+01  0.11393895387E+02  0.22713779420E+02  0.00000000000E+00 0. -1.
         11    1    4    4    0    0  0.41426847322E+02 -0.72543468337E+02 -0.12736794529E+03  0.15231983445E+03  0.00000000000E+00 0.  1.
</event>
<event>
 8    1  0.6443238E-009  0.9002203E+02  0.7561462E-02  0.1302798E+00
         -2   -1    0    0    0  501 -0.00000000000E+00  0.00000000000E+00  0.21218673558E+03  0.21218673558E+03  0.00000000000E+00 0.  1.
          2   -1    0    0  501    0  0.00000000000E+00 -0.00000000000E+00 -0.65794861469E+02  0.65794861469E+02  0.00000000000E+00 0. -1.
         25    2    1    2    0    0 -0.41149900656E+02 -0.18183065795E+02  0.97031082091E+02  0.16457910165E+03  0.12508921458E+03 0.  0.
         23    2    1    2    0    0  0.41149900656E+02  0.18183065795E+02  0.49360792020E+02  0.11340249540E+03  0.91649877075E+02 0.  0.
          5    1    3    3  502    0 -0.68794532791E+02  0.10960192757E+02  0.10231462290E+03  0.12384897265E+03  0.41800000000E+01 0.  1.
         -5    1    3    3    0  502  0.27644632136E+02 -0.29143258551E+02 -0.52835408119E+01  0.40730129001E+02  0.41800000000E+01 0.  1.
        -11    1    4    4    0    0  0.73544106910E+01  0.32387044737E+02  0.65429830258E+02  0.73376227152E+02  0.00000000000E+00 0.  1.
         11    1    4    4    0    0  0.33795489965E+02 -0.14203978942E+02 -0.16069038238E+02  0.40026268245E+02  0.00000000000E+00 0. -1.
</event>
<event>
 8    1  0.6443238E-009  0.8520963E+02  0.7561462E-02  0.1314885E+00
          2   -1    0    0  501    0  0.00000000000E+00  0.00000000000E+00  0.11450865276E+03  0.11450865276E+03  0.00000000000E+00 0. -1.
         -2   -1    0    0    0  501 -0.00000000000E+00 -0.00000000000E+00 -0.11998815317E+03  0.11998815317E+03  0.00000000000E+00 0.  1.
         25    2    1    2    0    0  0.21660630000E+01 -0.25521257685E+02 -0.37133615457E+02  0.13297555625E+03  0.12509023440E+03 0.  0.
         23    2    1    2    0    0 -0.21660630000E+01  0.25521257685E+02  0.31654115050E+02  0.10152124967E+03  0.92997605951E+02 0.  0.
          5    1    3    3  502    0 -0.38619230226E+02 -0.47756353811E+01 -0.67410773411E+02  0.77948293172E+02  0.41800000000E+01 0.  1.
         -5    1    3    3    0  502  0.40785293226E+02 -0.20745622304E+02  0.30277157954E+02  0.55027263080E+02  0.41800000000E+01 0.  1.
        -11    1    4    4    0    0 -0.30247265893E+02 -0.16757017380E+02 -0.98535036024E+01  0.35955336999E+02  0.00000000000E+00 0.  1.
         11    1    4    4    0    0  0.28081202893E+02  0.42278275065E+02  0.41507618653E+02  0.65565912673E+02  0.00000000000E+00 0. -1.
</event>
<event>
 8    1  0.6443238E-009  0.1668682E+03  0.7561462E-02  0.1181154E+00
          1   -1    0    0  501    0  0.00000000000E+00  0.00000000000E+00  0.14820808411E+03  0.14820808411E+03  0.00000000000E+00 0. -1.
         -1   -1    0    0    0  501 -0.00000000000E+00 -0.00000000000E+00 -0.25100086386E+03  0.25100086386E+03  0.00000000000E+00 0.  1.
         25    2    1    2    0    0  0.57504452989E+02  0.13976124954E+03 -0.32714202621E+01  0.19620785298E+03  0.12508737104E+03 0.  0.
         23    2    1    2    0    0 -0.57504452989E+02 -0.13976124954E+03 -0.99521359480E+02  0.20300109499E+03  0.92005296530E+02 0.  0.
          5    1    3    3  502    0 -0.23987549353E+02  0.10334477923E+02 -0.30959325358E+02  0.40720463953E+02  0.41800000000E+01 0. -1.
         -5    1    3    3    0  502  0.81492002342E+02  0.12942677162E+03  0.27687905096E+02  0.15548738902E+03  0.41800000000E+01 0. -1.
        -11    1    4    4    0    0 -0.47856342039E+02 -0.76117142173E+02 -0.10519102598E+03  0.13838063720E+03  0.00000000000E+00 0.  1.
         11    1    4    4    0    0 -0.96481109500E+01 -0.63644107367E+02  0.56696664955E+01  0.64620457795E+02  0.00000000000E+00 0. -1.
</event>
<event>
 8    1  0.6443238E-009  0.9726593E+02  0.7561462E-02  0.1286153E+00
          2   -1    0    0  501    0  0.00000000000E+00  0.00000000000E+00  0.98337474548E+03  0.98337474548E+03  0.00000000000E+00 0. -1.
         -2   -1    0    0    0  501 -0.00000000000E+00 -0.00000000000E+00 -0.19454986789E+02  0.19454986789E+02  0.00000000000E+00 0.  1.
         25    2    1    2    0    0 -0.16256851509E+02 -0.93678509390E+01  0.82703138421E+03  0.83664839915E+03  0.12509033328E+03 0.  0.
         23    2    1    2    0    0  0.16256851509E+02  0.93678509390E+01  0.13688837448E+03  0.16618133312E+03  0.92335077607E+02 0.  0.
          5    1    3    3  502    0 -0.68240956917E+02 -0.16479609033E+02  0.37259356155E+03  0.37917257314E+03  0.41800000000E+01 0.  1.
         -5    1    3    3    0  502  0.51984105408E+02  0.71117580943E+01  0.45443782266E+03  0.45747582601E+03  0.41800000000E+01 0.  1.
        -11    1    4    4    0    0 -0.15941200413E+02  0.29545944112E+02  0.12019409162E+02  0.35658812104E+02  0.00000000000E+00 0.  1.
         11    1    4    4    0    0  0.32198051922E+02 -0.20178093173E+02  0.12486896532E+03  0.13052252102E+03  0.00000000000E+00 0. -1.
</event>
<event>
 8    1  0.6443238E-009  0.9766448E+02  0.7561462E-02  0.1285285E+00
         -2   -1    0    0    0  501 -0.00000000000E+00  0.00000000000E+00  0.23247702503E+03  0.23247702503E+03  0.00000000000E+00 0.  1.
          2   -1    0    0  501    0  0.00000000000E+00 -0.00000000000E+00 -0.54017882212E+02  0.54017882212E+02  0.00000000000E+00 0. -1.
         25    2    1    2    0    0 -0.44302105564E+02  0.15570356973E+02  0.10994781452E+03  0.17303487757E+03  0.12508970527E+03 0.  0.
         23    2    1    2    0    0  0.44302105564E+02 -0.15570356973E+02  0.68511328300E+02  0.11346002967E+03  0.77293360998E+02 0.  0.
          5    1    3    3  502    0  0.25435645668E+02 -0.34750134425E+02  0.17411241082E+02  0.46638692403E+02  0.41800000000E+01 0. -1.
         -5    1    3    3    0  502 -0.69737751232E+02  0.50320491398E+02  0.92536573437E+02  0.12639618517E+03  0.41800000000E+01 0. -1.
        -11    1    4    4    0    0  0.18902102303E+02 -0.30953350885E+02 -0.26362808685E+01  0.36364122144E+02  0.00000000000E+00 0. -1.
         11    1    4    4    0    0  0.25400003261E+02  0.15382993912E+02  0.71147609169E+02  0.77095907529E+02  0.00000000000E+00 0.  1.
</event>
<event>
 7    1  0.6443238E-009  0.6805476E+02  0.7561462E-02  0.1366836E+00
          2   -1    0    0  501    0  0.00000000000E+00  0.00000000000E+00  0.67082652152E+02  0.67082652152E+02  0.00000000000E+00 0. -1.
         -2   -1    0    0    0  501 -0.00000000000E+00 -0.00000000000E+00 -0.22813016235E+03  0.22813016235E+03  0.00000000000E+00 0.  1.
         23    2    1    2    0    0 -0.30808450510E+02  0.13399201038E+02 -0.12449825965E+03  0.15998568326E+03  0.94693732542E+02 0.  0.
          5    1    1    2  502    0 -0.14035060208E+02 -0.11978051608E+02 -0.74158642532E+02  0.76533870264E+02  0.41800000000E+01 0. -1.
         -5    1    1    2    0  502  0.44843510718E+02 -0.14211494299E+01  0.37609391978E+02  0.58693260977E+02  0.41800000000E+01 0. -1.
        -11    1    3    3    0    0 -0.50253422724E+02  0.15456444866E+02 -0.24341454429E+02  0.57938023673E+02  0.00000000000E+00 0. -1.
         11    1    3    3    0    0  0.19444972214E+02 -0.20572438276E+01 -0.10015680522E+03  0.10204765959E+03  0.00000000000E+00 0.  1.
</event>
<event>
 8    1  0.6443238E-009  0.1527321E+03  0.7561462E-02  0.1197155E+00
         -1   -1    0    0    0  501 -0.00000000000E+00  0.00000000000E+00  0.37453102907E+02  0.37453102907E+02  0.00000000000E+00 0.  1.
          1   -1    0    0  501    0  0.00000000000E+00 -0.00000000000E+00 -0.71469960101E+03  0.71469960101E+03  0.00000000000E+00 0. -1.
         25    2    1    2    0    0 -0.10295848495E+03  0.65325807128E+02 -0.34291965681E+03  0.38484772775E+03  0.12508385917E+03 0.  0.
         23    2    1    2    0    0  0.10295848495E+03 -0.65325807128E+02 -0.33432684129E+03  0.36730497617E+03  0.90942828261E+02 0.  0.
          5    1    3    3  502    0 -0.41891634388E+02  0.82494161960E+02 -0.28192124135E+03  0.29674442625E+03  0.41800000000E+01 0.  1.
         -5    1    3    3    0  502 -0.61066850561E+02 -0.17168354832E+02 -0.60998415465E+02  0.88103301495E+02  0.41800000000E+01 0.  1.
        -11    1    4    4    0    0  0.86905609522E+02 -0.86558979431E+02 -0.29811354097E+03  0.32236117197E+03  0.00000000000E+00 0. -1.
         11    1    4    4    0    0  0.16052875427E+02  0.21233172304E+02 -0.36213300321E+02  0.44943804197E+02  0.00000000000E+00 0.  1.
</event>
<event>
 8    1  0.6443238E-009  0.7233683E+02  0.7561462E-02  0.1352322E+00
         -1   -1    0    0    0  501 -0.00000000000E+00  0.00000000000E+00  0.12628498243E+03  0.12628498243E+03  0.00000000000E+00 0.  1.
          1   -1    0    0  501    0  0.00000000000E+00 -0.00000000000E+00 -0.15058850253E+03  0.15058850253E+03  0.00000000000E+00 0. -1.
         25    2    1    2    0    0 -0.63696148923E+01  0.52661104649E+01 -0.95730361719E+02  0.15773512354E+03  0.12509101938E+03 0.  0.
         23    2    1    2    0    0  0.63696148923E+01 -0.52661104649E+01  0.71426841616E+02  0.11913836143E+03  0.94993955321E+02 0.  0.
          5    1    3    3  502    0 -0.23987023908E+02 -0.19862139723E+02 -0.11635568545E+03  0.12052385593E+03  0.41800000000E+01 0.  1.
         -5    1    3    3    0  502  0.17617409015E+02  0.25128250188E+02  0.20625323734E+02  0.37211267609E+02  0.41800000000E+01 0.  1.
        -11    1    4    4    0    0 -0.35471285491E+02  0.11375051690E+02  0.63204677003E+02  0.73365080865E+02  0.00000000000E+00 0.  1.
         11    1    4    4    0    0  0.41840900383E+02 -0.16641162155E+02  0.82221646133E+01  0.45773280564E+02  0.00000000000E+00 0. -1.
</event>
<event>
 8    1  0.6443238E-009  0.1341373E+03  0.7561462E-02  0.1221443E+00
          2   -1    0    0  501    0  0.00000000000E+00  0.00000000000E+00  0.10429413052E+03  0.10429413052E+03  0.00000000000E+00 0. -1.
         -2   -1    0    0    0  501 -0.00000000000E+00 -0.00000000000E+00 -0.26171422988E+03  0.26171422988E+03  0.00000000000E+00 0.  1.
         25    2    1    2    0    0 -0.10860696572E+03  0.52320166123E+02 -0.79167141501E+02  0.19091480959E+03  0.12509258747E+03 0.  0.
         23    2    1    2    0    0  0.10860696572E+03 -0.52320166123E+02 -0.78252957857E+02  0.17509355081E+03  0.10000676645E+03 0.  0.
          5    1    3    3  502    0 -0.63850016338E+02  0.43357172436E+02 -0.11089150060E+03  0.13517050823E+03  0.41800000000E+01 0. -1.
         -5    1    3    3    0  502 -0.44756949379E+02  0.89629936869E+01  0.31724359103E+02  0.55744301360E+02  0.41800000000E+01 0. -1.
        -11    1    4    4    0    0  0.57789967839E+02  0.16032286505E+02 -0.65774779933E+02  0.89011438976E+02  0.00000000000E+00 0.  1.
         11    1    4    4    0    0  0.50816997878E+02 -0.68352452627E+02 -0.12478177924E+02  0.86082111834E+02  0.00000000000E+00 0. -1.
</event>
<event>
 8    1  0.6443238E-009  0.1104523E+03  0.7561462E-02  0.1259734E+00
         -2   -1    0    0    0  501 -0.00000000000E+00  0.00000000000E+00  0.10692395997E+02  0.10692395997E+02  0.00000000000E+00 0. -1.
          2   -1    0    0  501    0  0.00000000000E+00 -0.00000000000E+00 -0.14342049860E+04  0.14342049860E+04  0.00000000000E+00 0.  1.
         25    2    1    2    0    0 -0.25819765617E+02 -0.12385971275E+02 -0.11111440177E+04  0.11185298026E+04  0.12509124104E+03 0.  0.
         23    2    1    2    0    0  0.25819765617E+02  0.12385971275E+02 -0.31236857231E+03  0.32636757944E+03  0.90119916545E+02 0.  0.
          5    1    3    3  502    0 -0.74706529680E+02  0.74110120076E+01 -0.61895208423E+03  0.62350232049E+03  0.41800000000E+01 0. -1.
         -5    1    3    3    0  502  0.48886764064E+02 -0.19796983282E+02 -0.49219193347E+03  0.49502748209E+03  0.41800000000E+01 0. -1.
        -11    1    4    4    0    0  0.43307261040E+01  0.49624262246E+02 -0.13603786547E+03  0.14487105796E+03  0.00000000000E+00 0.  1.
         11    1    4    4    0    0  0.21489039513E+02 -0.37238290971E+02 -0.17633070684E+03  0.18149652148E+03  0.00000000000E+00 0. -1.
</event>
<event>
 8    1  0.6443238E-009  0.1482111E+03  0.7561462E-02  0.1202689E+00
          2   -1    0    0  501    0  0.00000000000E+00  0.00000000000E+00  0.69415136427E+03  0.69415136427E+03  0.00000000000E+00 0. -1.
         -2   -1    0    0    0  501 -0.00000000000E+00 -0.00000000000E+00 -0.72436840423E+02  0.72436840423E+02  0.00000000000E+00 0.  1.
         25    2    1    2    0    0  0.38342534025E+02  0.10753092378E+03  0.59415797112E+03  0.61782203581E+03  0.12508926337E+03 0.  0.
         23    2    1    2    0    0 -0.38342534025E+02 -0.10753092378E+03  0.27556552734E+02  0.14876616888E+03  0.91317905804E+02 0.  0.
          5    1    3    3  502    0  0.60254383804E+02  0.89216081722E+00  0.21227842342E+03  0.22070565958E+03  0.41800000000E+01 0.  1.
         -5    1    3    3    0  502 -0.21911849780E+02  0.10663876297E+03  0.38187954770E+03  0.39711637624E+03  0.41800000000E+01 0.  1.
        -11    1    4    4    0    0  0.87351928188E+01 -0.58304568909E+02 -0.23679557833E+02  0.63533045012E+02  0.00000000000E+00 0.  1.
         11    1    4    4    0    0 -0.47077726843E+02 -0.49226354874E+02  0.51236110567E+02  0.85233123872E+02  0.00000000000E+00 0. -1.
</event>
<event>
 8    1  0.6443238E-009  0.1835110E+03  0.7561462E-02  0.1164448E+00
          3   -1    0    0  501    0  0.00000000000E+00  0.00000000000E+00  0.15170706509E+03  0.15170706509E+03  0.00000000000E+00 0. -1.
         -3   -1    0    0    0  501 -0.00000000000E+00 -0.00000000000E+00 -0.22535812605E+03  0.22535812605E+03  0.00000000000E+00 0.  1.
         25    2    1    2    0    0  0.14442213421E+03 -0.36145298290E+02 -0.33312121872E+02  0.19728414438E+03  0.12508837165E+03 0.  0.
         23    2    1    2    0    0 -0.14442213421E+03  0.36145298290E+02 -0.40338939085E+02  0.17978104675E+03  0.92356696166E+02 0.  0.
          5    1    3    3  502    0 -0.19512843518E+02 -0.18134386659E+02 -0.16122170163E+02  0.31416616820E+02  0.41800000000E+01 0.  1.
         -5    1    3    3    0  502  0.16393497773E+03 -0.18010911631E+02 -0.17189951710E+02  0.16586752756E+03  0.41800000000E+01 0.  1.
        -11    1    4    4    0    0 -0.12301998335E+03  0.65016840151E+02 -0.29426206898E+02  0.14222168421E+03  0.00000000000E+00 0. -1.
         11    1    4    4    0    0 -0.21402150855E+02 -0.28871541861E+02 -0.10912732187E+02  0.37559362540E+02  0.00000000000E+00 0.  1.
</event>
<event>
 8    1  0.6443238E-009  0.1138153E+03  0.7561462E-02  0.1253663E+00
         -2   -1    0    0    0  501 -0.00000000000E+00  0.00000000000E+00  0.26639712870E+03  0.26639712870E+03  0.00000000000E+00 0.  1.
          2   -1    0    0  501    0  0.00000000000E+00 -0.00000000000E+00 -0.12194885367E+03  0.12194885367E+03  0.00000000000E+00 0. -1.
         25    2    1    2    0    0 -0.85911642031E+02 -0.35395167349E+02 -0.41443223487E+02  0.16124677101E+03  0.12509737120E+03 0.  0.
         23    2    1    2    0    0  0.85911642031E+02  0.35395167349E+02  0.18589149852E+03  0.22709921135E+03  0.91568414127E+02 0.  0.
          5    1    3    3  502    0 -0.73977142744E+02 -0.17386274286E+02  0.33489362754E+02  0.83149924833E+02  0.41800000000E+01 0. -1.
         -5    1    3    3    0  502 -0.11934499288E+02 -0.18008893063E+02 -0.74932586241E+02  0.78096846181E+02  0.41800000000E+01 0. -1.
        -11    1    4    4    0    0  0.48072253548E+02  0.65441261516E+02  0.10306174596E+03  0.13120679765E+03  0.00000000000E+00 0.  1.
         11    1    4    4    0    0  0.37839388483E+02 -0.30046094167E+02  0.82829752566E+02  0.95892413702E+02  0.00000000000E+00 0. -1.
</event>
<event>
 8    1  0.6443238E-009  0.1169455E+03  0.7561462E-02  0.1248223E+00
         -2   -1    0    0    0  501 -0.00000000000E+00  0.00000000000E+00  0.15624944205E+03  0.15624944205E+03  0.00000000000E+00 0. -1.
          2   -1    0    0  501    0  0.00000000000E+00 -0.00000000000E+00 -0.13561338530E+03  0.13561338530E+03  0.00000000000E+00 0.  1.
         25    2    1    2    0    0 -0.67728121156E+01 -0.86894750372E+02 -0.30389230877E+02  0.15545874587E+03  0.12508935881E+03 0.  0.
         23    2    1    2    0    0  0.67728121156E+01  0.86894750372E+02  0.51025287627E+02  0.13640408147E+03  0.91683830842E+02 0.  0.
          5    1    3    3  502    0  0.51018644921E+01  0.24798915783E+02 -0.34483049490E+02  0.42983349654E+02  0.41800000000E+01 0. -1.
         -5    1    3    3    0  502 -0.11874676608E+02 -0.11169366615E+03  0.40938186132E+01  0.11247539622E+03  0.41800000000E+01 0. -1.
        -11    1    4    4    0    0 -0.16712747149E+02  0.31437567093E+02  0.65421417025E+02  0.74482201549E+02  0.00000000000E+00 0. -1.
         11    1    4    4    0    0  0.23485559265E+02  0.55457183279E+02 -0.14396129398E+02  0.61921879921E+02  0.00000000000E+00 0.  1.
</event>
<event>
 8    1  0.6443238E-009  0.1637440E+03  0.7561462E-02  0.1184533E+00
          1   -1    0    0  501    0  0.00000000000E+00  0.00000000000E+00  0.24484875883E+03  0.24484875883E+03  0.00000000000E+00 0. -1.
         -1   -1    0    0    0  501 -0.00000000000E+00 -0.00000000000E+00 -0.15125323097E+03  0.15125323097E+03  0.00000000000E+00 0.  1.
         25    2    1    2    0    0 -0.10695261273E+03 -0.10713042950E+03 -0.49489125975E+01  0.19643795754E+03  0.12509032390E+03 0.  0.
         23    2    1    2    0    0  0.10695261273E+03  0.10713042950E+03  0.98544440465E+02  0.19966403226E+03  0.85081894295E+02 0.  0.
          5    1    3    3  502    0 -0.58450103465E+02 -0.37215424287E+02 -0.62677314993E+02  0.93527111655E+02  0.41800000000E+01 0. -1.
         -5    1    3    3    0  502 -0.48502509263E+02 -0.69915005209E+02  0.57728402395E+02  0.10291084589E+03  0.41800000000E+01 0. -1.
        -11    1    4    4    0    0  0.56553881702E+02  0.23479683555E+01  0.23565762890E+02  0.61312312561E+02  0.00000000000E+00 0.  1.
         11    1    4    4    0    0  0.50398731026E+02  0.10478246114E+03  0.74978677575E+02  0.13835171970E+03  0.00000000000E+00 0. -1.
</event>
<event>
 8    1  0.6443238E-009  0.1413660E+03  0.7561462E-02  0.1211503E+00
          1   -1    0    0  501    0  0.00000000000E+00  0.00000000000E+00  0.16363871837E+03  0.16363871837E+03  0.00000000000E+00 0. -1.
         -1   -1    0    0    0  501 -0.00000000000E+00 -0.00000000000E+00 -0.19170492199E+03  0.19170492199E+03  0.00000000000E+00 0.  1.
         25    2    1    2    0    0  0.49819156120E+02 -0.10427491401E+03  0.63655957799E+02  0.18180492411E+03  0.12508294632E+03 0.  0.
         23    2    1    2    0    0 -0.49819156120E+02  0.10427491401E+03 -0.91722161415E+02  0.17353871624E+03  0.91364791542E+02 0.  0.
          5    1    3    3  502    0 -0.25576612672E+02 -0.17316292192E+02  0.58780789082E+02  0.66533229714E+02  0.41800000000E+01 0.  1.
         -5    1    3    3    0  502  0.75395768792E+02 -0.86958621813E+02  0.48751687169E+01  0.11527169440E+03  0.41800000000E+01 0.  1.
        -11    1    4    4    0    0 -0.63554427959E+02  0.51321023960E+02 -0.85872764445E+02  0.11852065004E+03  0.00000000000E+00 0.  1.
         11    1    4    4    0    0  0.13735271839E+02  0.52953890045E+02 -0.58493969700E+01  0.55018066199E+02  0.00000000000E+00 0. -1.
</event>
<event>
 8    1  0.6443238E-009  0.1046582E+03  0.7561462E-02  0.1270794E+00
         -2   -1    0    0    0  501 -0.00000000000E+00  0.00000000000E+00  0.12917754836E+02  0.12917754836E+02  0.00000000000E+00 0.  1.
          2   -1    0    0  501    0  0.00000000000E+00 -0.00000000000E+00 -0.88930732232E+03  0.88930732232E+03  0.00000000000E+00 0. -1.
         25    2    1    2    0    0 -0.40758315416E+01  0.18334587903E+02 -0.51217938085E+03  0.52756989948E+03  0.12509800617E+03 0.  0.
         23    2    1    2    0    0  0.40758315416E+01 -0.18334587903E+02 -0.36421018663E+03  0.37465517768E+03  0.85817670665E+02 0.  0.
          5    1    3    3  502    0  0.40104840682E+02  0.55368396806E+02 -0.29265432509E+03  0.30056294516E+03  0.41800000000E+01 0.  1.
         -5    1    3    3    0  502 -0.44180672224E+02 -0.37033808904E+02 -0.21952505576E+03  0.22700695432E+03  0.41800000000E+01 0.  1.
        -11    1    4    4    0    0 -0.38415505687E+02 -0.70527897256E+01 -0.11134402811E+03  0.11799570126E+03  0.00000000000E+00 0.  1.
         11    1    4    4    0    0  0.42491337229E+02 -0.11281798177E+02 -0.25286615852E+03  0.25665947642E+03  0.00000000000E+00 0. -1.
</event>
<event>
 8    1  0.6443238E-009  0.1286095E+03  0.7561462E-02  0.1229534E+00
         -2   -1    0    0    0  501 -0.00000000000E+00  0.00000000000E+00  0.44862826419E+02  0.44862826419E+02  0.00000000000E+00 0. -1.
          2   -1    0    0  501    0  0.00000000000E+00 -0.00000000000E+00 -0.56738220580E+03  0.56738220580E+03  0.00000000000E+00 0.  1.
         25    2    1    2    0    0  0.11372819991E+03  0.19938620880E+02 -0.24431770128E+03  0.29777490071E+03  0.12508836987E+03 0.  0.
         23    2    1    2    0    0 -0.11372819991E+03 -0.19938620880E+02 -0.27820167810E+03  0.31447013151E+03  0.90352851939E+02 0.  0.
          5    1    3    3  502    0  0.17076328386E+02 -0.39261146428E+01 -0.17609778491E+03  0.17701671564E+03  0.41800000000E+01 0. -1.
         -5    1    3    3    0  502  0.96651871529E+02  0.23864735523E+02 -0.68219916374E+02  0.12075818507E+03  0.41800000000E+01 0. -1.
        -11    1    4    4    0    0  0.11691346899E+02  0.29837168540E+01 -0.64549036334E+02  0.65667101734E+02  0.00000000000E+00 0.  1.
         11    1    4    4    0    0 -0.12541954681E+03 -0.22922337734E+02 -0.21365264177E+03  0.24880302977E+03  0.00000000000E+00 0. -1.
</event>
<event>
 8    1  0.6443238E-009  0.8794013E+02  0.7561462E-02  0.1307918E+00
          2   -1    0    0  501    0  0.00000000000E+00  0.00000000000E+00  0.14621530201E+03  0.14621530201E+03  0.00000000000E+00 0. -1.
         -2   -1    0    0    0  501 -0.00000000000E+00 -0.00000000000E+00 -0.31359955733E+03  0.31359955733E+03  0.00000000000E+00 0.  1.
         25    2    1    2    0    0 -0.52272952837E+02  0.37783867596E+02 -0.27296823269E+03  0.30711460304E+03  0.12509053159E+03 0.  0.
         23    2    1    2    0    0  0.52272952837E+02 -0.37783867596E+02  0.10558397737E+03  0.15270025630E+03  0.89494747054E+02 0.  0.
          5    1    3    3  502    0  0.11953720187E+02  0.44382332112E+02 -0.28532378571E+02  0.54260960707E+02  0.41800000000E+01 0.  1.
         -5    1    3    3    0  502 -0.64226673024E+02 -0.65984645155E+01 -0.24443585412E+03  0.25285364233E+03  0.41800000000E+01 0.  1.
        -11    1    4    4    0    0  0.28183421811E+02 -0.25400915644E+02 -0.55217721242E+01  0.38340601820E+02  0.00000000000E+00 0.  1.
         11    1    4    4    0    0  0.24089531026E+02 -0.12382951952E+02  0.11110574949E+03  0.11435965448E+03  0.00000000000E+00 0. -1.
</event>
<event>
 8    1  0.6443238E-009  0.1036079E+03  0.7561462E-02  0.1272887E+00
          2   -1    0    0  501    0  0.00000000000E+00  0.00000000000E+00  0.19807650648E+04  0.19807650648E+04  0.00000000000E+00 0.  1.
         -2   -1    0    0    0  501 -0.00000000000E+00 -0.00000000000E+00 -0.97380226183E+01  0.97380226183E+01  0.00000000000E+00 0. -1.
         25    2    1    2    0    0 -0.14989012883E+02 -0.19558999439E+02  0.16725921816E+04  0.16774439822E+04  0.12508590027E+03 0.  0.
         23    2    1    2    0    0  0.14989012883E+02  0.19558999439E+02  0.29843486054E+03  0.31305910519E+03  0.91298479685E+02 0.  0.
          5    1    3    3  502    0  0.46178188873E+02  0.23182042375E+02  0.78574913021E+03  0.78745730059E+03  0.41800000000E+01 0. -1.
         -5    1    3    3    0  502 -0.61167201756E+02 -0.42741041814E+02  0.88684305143E+03  0.88998668164E+03  0.41800000000E+01 0. -1.
        -11    1    4    4    0    0 -0.77597607156E+01  0.45488153516E+02  0.24603469966E+03  0.25032470800E+03  0.00000000000E+00 0.  1.
         11    1    4    4    0    0  0.22748773598E+02 -0.25929154077E+02  0.52400160875E+02  0.62734397192E+02  0.00000000000E+00 0. -1.
</event>
<event>
 8    1  0.6443238E-009  0.1597115E+03  0.7561462E-02  0.1189023E+00
         -2   -1    0    0    0  501 -0.00000000000E+00  0.00000000000E+00  0.29454849433E+02  0.29454849433E+02  0.00000000000E+00 0. -1.
          2   -1    0    0  501    0  0.00000000000E+00 -0.00000000000E+00 -0.88649204318E+03  0.88649204318E+03  0.00000000000E+00 0.  1.
         25    2    1    2    0    0  0.45717656848E+02  0.10837108823E+03 -0.41425651988E+03  0.44843022495E+03  0.12508719146E+03 0.  0.
         23    2    1    2    0    0 -0.45717656848E+02 -0.10837108823E+03 -0.44278067386E+03  0.46751666767E+03  0.93181073653E+02 0.  0.
          5    1    3    3  502    0  0.87723275516E+02  0.55108337366E+02 -0.24452449527E+03  0.26559744558E+03  0.41800000000E+01 0. -1.
         -5    1    3    3    0  502 -0.42005618668E+02  0.53262750863E+02 -0.16973202462E+03  0.18283277936E+03  0.41800000000E+01 0. -1.
        -11    1    4    4    0    0  0.19387371647E+02 -0.69053662955E+02 -0.25564921428E+03  0.26551986613E+03  0.00000000000E+00 0.  1.
         11    1    4    4    0    0 -0.65105028496E+02 -0.39317425274E+02 -0.18713145958E+03  0.20199680153E+03  0.00000000000E+00 0. -1.
</event>
<event>
 8    1  0.6443238E-009  0.1679489E+03  0.7561462E-02  0.1180004E+00
          2   -1    0    0  501    0  0.00000000000E+00  0.00000000000E+00  0.85014569913E+03  0.85014569913E+03  0.00000000000E+00 0. -1.
         -2   -1    0    0    0  501 -0.00000000000E+00 -0.00000000000E+00 -0.40177436036E+02  0.40177436036E+02  0.00000000000E+00 0.  1.
         25    2    1    2    0    0 -0.14685377055E+03 -0.23613360387E+02  0.44155185756E+03  0.48243101110E+03  0.12509203351E+03 0.  0.
         23    2    1    2    0    0  0.14685377055E+03  0.23613360387E+02  0.36841640553E+03  0.40789212406E+03  0.92313142554E+02 0.  0.
          5    1    3    3  502    0 -0.15593062753E+03 -0.16761181618E+02  0.28430895704E+03  0.32472196301E+03  0.41800000000E+01 0.  1.
         -5    1    3    3    0  502  0.90768569705E+01 -0.68521787692E+01  0.15724290052E+03  0.15770904809E+03  0.41800000000E+01 0.  1.
        -11    1    4    4    0    0  0.10154062546E+03  0.51331502975E+02  0.18732854626E+03  0.21917437364E+03  0.00000000000E+00 0.  1.
         11    1    4    4    0    0  0.45313145093E+02 -0.27718142588E+02  0.18108785927E+03  0.18871775042E+03  0.00000000000E+00 0. -1.
</event>
<event>
 8    1  0.6443238E-009  0.1428908E+03  0.7561462E-02  0.1209491E+00
          3   -1    0    0  501    0  0.00000000000E+00  0.00000000000E+00  0.13560208377E+03  0.13560208377E+03  0.00000000000E+00 0. -1.
         -3   -1    0    0    0  501 -0.00000000000E+00 -0.00000000000E+00 -0.19628573819E+03  0.19628573819E+03  0.00000000000E+00 0.  1.
         25    2    1    2    0    0 -0.10189707271E+03  0.51308406765E+02 -0.73081562503E+02  0.18440120990E+03  0.12508926973E+03 0.  0.
         23    2    1    2    0    0  0.10189707271E+03 -0.51308406765E+02  0.12397908075E+02  0.14748661206E+03  0.92644625214E+02 0.  0.
          5    1    3    3  502    0 -0.39501996826E+02 -0.31144528195E+02  0.10285224312E+02  0.51513567425E+02  0.41800000000E+01 0.  1.
         -5    1    3    3    0  502 -0.62395075886E+02  0.82452934960E+02 -0.83366786815E+02  0.13288764247E+03  0.41800000000E+01 0.  1.
        -11    1    4    4    0    0  0.74267902985E+02 -0.67019425194E+02 -0.20093264547E+02  0.10203462181E+03  0.00000000000E+00 0.  1.
         11    1    4    4    0    0  0.27629169726E+02  0.15711018429E+02  0.32491172622E+02  0.45451990255E+02  0.00000000000E+00 0. -1.
</event>
<event>
 8    1  0.6443238E-009  0.6695799E+02  0.7561462E-02  0.1370754E+00
         -2   -1    0    0    0  501 -0.00000000000E+00  0.00000000000E+00  0.50844016215E+02  0.50844016215E+02  0.00000000000E+00 0.  1.
          2   -1    0    0  501    0  0.00000000000E+00 -0.00000000000E+00 -0.35649075360E+03  0.35649075360E+03  0.00000000000E+00 0. -1.
         25    2    1    2    0    0  0.21681669879E+02 -0.48625919395E+01 -0.53614978119E+02  0.13789688540E+03  0.12508895041E+03 0.  0.
         23    2    1    2    0    0 -0.21681669879E+02  0.48625919395E+01 -0.25203175927E+03  0.26943788442E+03  0.92644623538E+02 0.  0.
          5    1    3    3  502    0  0.40063297386E+02 -0.28742328722E+01  0.31173378580E+02  0.51015497098E+02  0.41800000000E+01 0. -1.
         -5    1    3    3    0  502 -0.18381627507E+02 -0.19883590672E+01 -0.84788356699E+02  0.86881388302E+02  0.41800000000E+01 0. -1.
        -11    1    4    4    0    0 -0.22052305145E+02 -0.31368510368E+02 -0.44387570733E+02  0.58656150918E+02  0.00000000000E+00 0.  1.
         11    1    4    4    0    0  0.37063526551E+00  0.36231102307E+02 -0.20764418854E+03  0.21078173350E+03  0.00000000000E+00 0. -1.
</event>
<event>
 8    1  0.6443238E-009  0.1073430E+03  0.7561462E-02  0.1265571E+00
          1   -1    0    0  501    0  0.00000000000E+00  0.00000000000E+00  0.59654543172E+03  0.59654543172E+03  0.00000000000E+00 0. -1.
         -1   -1    0    0    0  501 -0.00000000000E+00 -0.00000000000E+00 -0.24194046947E+02  0.24194046947E+02  0.00000000000E+00 0.  1.
         25    2    1    2    0    0  0.42776740691E+02 -0.19753289880E+02  0.37166086482E+03  0.39496825732E+03  0.12509230129E+03 0.  0.
         23    2    1    2    0    0 -0.42776740691E+02  0.19753289880E+02  0.20069051995E+03  0.22577122135E+03  0.92064746713E+02 0.  0.
          5    1    3    3  502    0  0.82784148985E+02 -0.35895551190E+02  0.25076728366E+03  0.26653969474E+03  0.41800000000E+01 0. -1.
         -5    1    3    3    0  502 -0.40007408294E+02  0.16142261309E+02  0.12089358117E+03  0.12842856258E+03  0.41800000000E+01 0. -1.
        -11    1    4    4    0    0 -0.51639460029E+02 -0.76597842263E+01  0.49776659288E+02  0.72131975825E+02  0.00000000000E+00 0.  1.
         11    1    4    4    0    0  0.88627193384E+01  0.27413074107E+02  0.15091386066E+03  0.15363924553E+03  0.00000000000E+00 0. -1.
</event>
<event>
 8    1  0.6443238E-009  0.1145070E+03  0.7561462E-02  0.1252444E+00
         -2   -1    0    0    0  501 -0.00000000000E+00  0.00000000000E+00  0.78127734106E+02  0.78127734106E+02  0.00000000000E+00 0. -1.
          2   -1    0    0  501    0  0.00000000000E+00 -0.00000000000E+00 -0.18488421049E+03  0.18488421049E+03  0.00000000000E+00 0.  1.
         25    2    1    2    0    0  0.53674640348E+02 -0.26524071433E+02 -0.29953420882E+02  0.14187762726E+03  0.12509020870E+03 0.  0.
         23    2    1    2    0    0 -0.53674640348E+02  0.26524071433E+02 -0.76803055506E+02  0.12113431734E+03  0.72043876358E+02 0.  0.
          5    1    3    3  502    0  0.82176490551E+02  0.16286452517E+02 -0.36459245808E+01  0.83958259278E+02  0.41800000000E+01 0. -1.
         -5    1    3    3    0  502 -0.28501850203E+02 -0.42810523950E+02 -0.26307496302E+02  0.57919367982E+02  0.41800000000E+01 0. -1.
        -11    1    4    4    0    0 -0.41349593426E+02 -0.19623471105E+02 -0.40884131742E+02  0.61370854018E+02  0.00000000000E+00 0.  1.
         11    1    4    4    0    0 -0.12325046923E+02  0.46147542538E+02 -0.35918923765E+02  0.59763463323E+02  0.00000000000E+00 0. -1.
</event>
<event>
 8    1  0.6443238E-009  0.1352739E+03  0.7561462E-02  0.1219834E+00
          2   -1    0    0  501    0  0.00000000000E+00  0.00000000000E+00  0.12527076947E+04  0.12527076947E+04  0.00000000000E+00 0. -1.
         -2   -1    0    0    0  501 -0.00000000000E+00 -0.00000000000E+00 -0.29167689613E+02  0.29167689613E+02  0.00000000000E+00 0.  1.
         25    2    1    2    0    0 -0.65232010769E+02 -0.11444768359E+03  0.93093811446E+03  0.94849730720E+03  0.12509149174E+03 0.  0.
         23    2    1    2    0    0  0.65232010769E+02  0.11444768359E+03  0.29260189064E+03  0.33337807713E+03  0.90396838411E+02 0.  0.
          5    1    3    3  502    0 -0.36751806213E+02 -0.99234619169E+02  0.32784050969E+03  0.34452151906E+03  0.41800000000E+01 0.  1.
         -5    1    3    3    0  502 -0.28480204556E+02 -0.15213064418E+02  0.60309760477E+03  0.60397578815E+03  0.41800000000E+01 0.  1.
        -11    1    4    4    0    0  0.21471037290E+02  0.28994533276E+02  0.18786000116E+03  0.19129314791E+03  0.00000000000E+00 0. -1.
         11    1    4    4    0    0  0.43760973478E+02  0.85453150311E+02  0.10474188948E+03  0.14208492921E+03  0.00000000000E+00 0.  1.
</event>
<event>
 8    1  0.6443238E-009  0.1547887E+03  0.7561462E-02  0.1194709E+00
          1   -1    0    0  501    0  0.00000000000E+00  0.00000000000E+00  0.17838342131E+03  0.17838342131E+03  0.00000000000E+00 0. -1.
         -1   -1    0    0    0  501 -0.00000000000E+00 -0.00000000000E+00 -0.14550298313E+03  0.14550298313E+03  0.00000000000E+00 0.  1.
         25    2    1    2    0    0 -0.66359144006E+01  0.11797051050E+03  0.22781070669E+02  0.17357324954E+03  0.12509044354E+03 0.  0.
         23    2    1    2    0    0  0.66359144006E+01 -0.11797051050E+03  0.10099367502E+02  0.15031315490E+03  0.92363253538E+02 0.  0.
          5    1    3    3  502    0  0.53548048797E+02  0.86486612841E+02  0.27203895939E+02  0.10537956199E+03  0.41800000000E+01 0. -1.
         -5    1    3    3    0  502 -0.60183963198E+02  0.31483897663E+02 -0.44228252697E+01  0.68193687549E+02  0.41800000000E+01 0. -1.
        -11    1    4    4    0    0 -0.34113704564E+02 -0.53584718783E+02  0.31867011043E+02  0.71067385761E+02  0.00000000000E+00 0.  1.
         11    1    4    4    0    0  0.40749618965E+02 -0.64385791722E+02 -0.21767643541E+02  0.79245769141E+02  0.00000000000E+00 0. -1.
</event>
<event>
 8    1  0.6443238E-009  0.1241590E+03  0.7561462E-02  0.1236390E+00
          2   -1    0    0  501    0  0.00000000000E+00  0.00000000000E+00  0.10370412899E+04  0.10370412899E+04  0.00000000000E+00 0. -1.
         -2   -1    0    0    0  501 -0.00000000000E+00 -0.00000000000E+00 -0.16960908989E+02  0.16960908989E+02  0.00000000000E+00 0.  1.
         25    2    1    2    0    0 -0.90620657329E+01 -0.61480869918E+02  0.72475029037E+03  0.73808704741E+03  0.12508991870E+03 0.  0.
         23    2    1    2    0    0  0.90620657329E+01  0.61480869918E+02  0.29533009054E+03  0.31591515148E+03  0.93383628941E+02 0.  0.
          5    1    3    3  502    0 -0.63892963703E+02 -0.50654294357E+02  0.36685806666E+03  0.37583305047E+03  0.41800000000E+01 0.  1.
         -5    1    3    3    0  502  0.54830897970E+02 -0.10826575560E+02  0.35789222371E+03  0.36225399694E+03  0.41800000000E+01 0.  1.
        -11    1    4    4    0    0  0.76300811523E+01 -0.23975599717E+02  0.91380836666E+02  0.94781352755E+02  0.00000000000E+00 0. -1.
         11    1    4    4    0    0  0.14319845806E+01  0.85456469635E+02  0.20394925387E+03  0.22113379872E+03  0.00000000000E+00 0.  1.
</event>
<event>
 8    1  0.6443238E-009  0.1087926E+03  0.7561462E-02  0.1262822E+00
         -2   -1    0    0    0  501 -0.00000000000E+00  0.00000000000E+00  0.21463468792E+02  0.21463468792E+02  0.00000000000E+00 0.  1.
          2   -1    0    0  501    0  0.00000000000E+00 -0.00000000000E+00 -0.82549029231E+03  0.82549029231E+03  0.00000000000E+00 0. -1.
         25    2    1    2    0    0  0.69259958417E+02  0.28906651275E+02 -0.49707242534E+03  0.51803540983E+03  0.12508858251E+03 0.  0.
         23    2    1    2    0    0 -0.69259958417E+02 -0.28906651275E+02 -0.30695439818E+03  0.32891835127E+03  0.91289336271E+02 0.  0.
          5    1    3    3  502    0  0.19767070112E+02 -0.24596853936E+02 -0.37090944278E+03  0.37227278900E+03  0.41800000000E+01 0.  1.
         -5    1    3    3    0  502  0.49492888305E+02  0.53503505211E+02 -0.12616298255E+03  0.14576262083E+03  0.41800000000E+01 0.  1.
        -11    1    4    4    0    0  0.17860833158E+02 -0.17288496251E+02 -0.33695436829E+02  0.41872233363E+02  0.00000000000E+00 0.  1.
         11    1    4    4    0    0 -0.87120791575E+02 -0.11618155024E+02 -0.27325896135E+03  0.28704611791E+03  0.00000000000E+00 0. -1.
</event>
<event>
 8    1  0.6443238E-009  0.2148821E+03  0.7561462E-02  0.1137757E+00
         -3   -1    0    0    0  501 -0.00000000000E+00  0.00000000000E+00  0.50346221800E+02  0.50346221800E+02  0.00000000000E+00 0.  1.
          3   -1    0    0  501    0  0.00000000000E+00 -0.00000000000E+00 -0.10566032298E+04  0.10566032298E+04  0.00000000000E+00 0. -1.
         25    2    1    2    0    0  0.80296827878E+02 -0.18349674720E+03 -0.60978367512E+03  0.65391433486E+03  0.12509672290E+03 0.  0.
         23    2    1    2    0    0 -0.80296827878E+02  0.18349674720E+03 -0.39647333286E+03  0.45303511673E+03  0.89056591653E+02 0.  0.
          5    1    3    3  502    0  0.99161155469E+02 -0.14827119546E+03 -0.36982821218E+03  0.41061863217E+03  0.41800000000E+01 0. -1.
         -5    1    3    3    0  502 -0.18864327591E+02 -0.35225551744E+02 -0.23995546294E+03  0.24329570269E+03  0.41800000000E+01 0. -1.
        -11    1    4    4    0    0 -0.51688437215E+02  0.17321793508E+03 -0.28501035864E+03  0.33750118830E+03  0.00000000000E+00 0.  1.
         11    1    4    4    0    0 -0.28608390663E+02  0.10278812129E+02 -0.11146297422E+03  0.11553392843E+03  0.00000000000E+00 0. -1.
</event>
<event>
 8    1  0.6443238E-009  0.1512895E+03  0.7561462E-02  0.1198897E+00
         -1   -1    0    0    0  501 -0.00000000000E+00  0.00000000000E+00  0.12286060702E+03  0.12286060702E+03  0.00000000000E+00 0.  1.
          1   -1    0    0  501    0  0.00000000000E+00 -0.00000000000E+00 -0.23554762596E+03  0.23554762596E+03  0.00000000000E+00 0. -1.
         25    2    1    2    0    0 -0.57832206131E+02  0.10921706214E+03 -0.10624891824E+03  0.20544982931E+03  0.12509144258E+03 0.  0.
         23    2    1    2    0    0  0.57832206131E+02 -0.10921706214E+03 -0.64381007021E+01  0.15295840367E+03  0.89899351406E+02 0.  0.
          5    1    3    3  502    0 -0.64489769698E+02  0.31067674160E+02 -0.10468816441E+03  0.12689056285E+03  0.41800000000E+01 0.  1.
         -5    1    3    3    0  502  0.66575635669E+01  0.78149387978E+02 -0.15607538345E+01  0.78559266459E+02  0.41800000000E+01 0.  1.
        -11    1    4    4    0    0 -0.21547200680E+02 -0.46201929733E+02 -0.79541262489E+01  0.51596204246E+02  0.00000000000E+00 0. -1.
         11    1    4    4    0    0  0.79379406811E+02 -0.63015132406E+02  0.15160255469E+01  0.10136219942E+03  0.00000000000E+00 0.  1.
</event>
<event>
 8    1  0.6443238E-009  0.1041597E+03  0.7561462E-02  0.1271784E+00
          1   -1    0    0  501    0  0.00000000000E+00  0.00000000000E+00  0.46617048901E+03  0.46617048901E+03  0.00000000000E+00 0. -1.
         -1   -1    0    0    0  501 -0.00000000000E+00 -0.00000000000E+00 -0.32810393681E+02  0.32810393681E+02  0.00000000000E+00 0.  1.
         25    2    1    2    0    0 -0.25011803280E+02  0.39825366268E+02  0.17295151088E+03  0.21856976834E+03  0.12509543723E+03 0.  0.
         23    2    1    2    0    0  0.25011803280E+02 -0.39825366268E+02  0.26040858446E+03  0.28041111435E+03  0.92769133301E+02 0.  0.
          5    1    3    3  502    0 -0.70492112271E+02  0.34456279778E+02  0.14453452210E+03  0.16451162143E+03  0.41800000000E+01 0.  1.
         -5    1    3    3    0  502  0.45480308991E+02  0.53690864903E+01  0.28416988778E+02  0.54058146905E+02  0.41800000000E+01 0.  1.
        -11    1    4    4    0    0 -0.18297958310E+02  0.73491908976E+01  0.10325357578E+02  0.22258456692E+02  0.00000000000E+00 0.  1.
         11    1    4    4    0    0  0.43309761590E+02 -0.47174557166E+02  0.25008322688E+03  0.25815265766E+03  0.00000000000E+00 0. -1.
</event>
<event>
 8    1  0.6443238E-009  0.1871884E+03  0.7561462E-02  0.1161022E+00
         -2   -1    0    0    0  501 -0.00000000000E+00  0.00000000000E+00  0.14015743184E+03  0.14015743184E+03  0.00000000000E+00 0.  1.
          2   -1    0    0  501    0  0.00000000000E+00 -0.00000000000E+00 -0.29504574978E+03  0.29504574978E+03  0.00000000000E+00 0. -1.
         25    2    1    2    0    0 -0.68715062386E+02 -0.15471189883E+03 -0.53630992745E+02  0.21721313115E+03  0.12509088506E+03 0.  0.
         23    2    1    2    0    0  0.68715062386E+02  0.15471189883E+03 -0.10125732520E+03  0.21799005047E+03  0.92785153768E+02 0.  0.
          5    1    3    3  502    0 -0.27675611401E+02 -0.16067765974E+03 -0.21340175036E+02  0.16448746237E+03  0.41800000000E+01 0. -1.
         -5    1    3    3    0  502 -0.41039450985E+02  0.59657609132E+01 -0.32290817709E+02  0.52725668784E+02  0.41800000000E+01 0. -1.
        -11    1    4    4    0    0  0.27980632523E+02  0.75675745026E+02  0.32840435969E+01  0.80749731417E+02  0.00000000000E+00 0.  1.
         11    1    4    4    0    0  0.40734429863E+02  0.79036153803E+02 -0.10454136879E+03  0.13724031905E+03  0.00000000000E+00 0. -1.
</event>
<event>
 8    1  0.6443238E-009  0.1085716E+03  0.7561462E-02  0.1263238E+00
          2   -1    0    0  501    0  0.00000000000E+00  0.00000000000E+00  0.22019031763E+03  0.22019031763E+03  0.00000000000E+00 0.  1.
         -2   -1    0    0    0  501 -0.00000000000E+00 -0.00000000000E+00 -0.58887263466E+02  0.58887263466E+02  0.00000000000E+00 0. -1.
         25    2    1    2    0    0 -0.31153941392E+02 -0.42667960305E+01  0.99059377858E+02  0.16263148556E+03  0.12508983229E+03 0.  0.
         23    2    1    2    0    0  0.31153941392E+02  0.42667960305E+01  0.62243676303E+02  0.11644609553E+03  0.93255800420E+02 0.  0.
          5    1    3    3  502    0 -0.26472061923E+02  0.58991710733E+02  0.57950783435E+02  0.86928463109E+02  0.41800000000E+01 0. -1.
         -5    1    3    3    0  502 -0.46818794695E+01 -0.63258506763E+02  0.41108594423E+02  0.75703022454E+02  0.41800000000E+01 0. -1.
        -11    1    4    4    0    0 -0.22094415998E+02 -0.20421765117E+02  0.47000632359E+02  0.55805655188E+02  0.00000000000E+00 0.  1.
         11    1    4    4    0    0  0.53248357390E+02  0.24688561147E+02  0.15243043944E+02  0.60640440343E+02  0.00000000000E+00 0. -1.
</event>
<event>
 8    1  0.6443238E-009  0.1026394E+03  0.7561462E-02  0.1274842E+00
         -1   -1    0    0    0  501 -0.00000000000E+00  0.00000000000E+00  0.97494440037E+02  0.97494440037E+02  0.00000000000E+00 0.  1.
          1   -1    0    0  501    0  0.00000000000E+00 -0.00000000000E+00 -0.15609761553E+03  0.15609761553E+03  0.00000000000E+00 0. -1.
         25    2    1    2    0    0 -0.48782002327E+02  0.20607902678E+02 -0.50520481369E+01  0.13592507291E+03  0.12508290392E+03 0.  0.
         23    2    1    2    0    0  0.48782002327E+02 -0.20607902678E+02 -0.53551127352E+02  0.11766698265E+03  0.90407002833E+02 0.  0.
          5    1    3    3  502    0 -0.38187706770E+02 -0.50690915776E+02 -0.10538193659E+01  0.63611734969E+02  0.41800000000E+01 0. -1.
         -5    1    3    3    0  502 -0.10594295557E+02  0.71298818454E+02 -0.39982287710E+01  0.72313337944E+02  0.41800000000E+01 0. -1.
        -11    1    4    4    0    0  0.38297032054E+02  0.78954623081E+01  0.15631906204E+02  0.42111251238E+02  0.00000000000E+00 0.  1.
         11    1    4    4    0    0  0.10484970273E+02 -0.28503364986E+02 -0.69183033556E+02  0.75555731411E+02  0.00000000000E+00 0. -1.
</event>
<event>
 8    1  0.6443238E-009  0.1012369E+03  0.7561462E-02  0.1277716E+00
          1   -1    0    0  501    0  0.00000000000E+00  0.00000000000E+00  0.15715936548E+03  0.15715936548E+03  0.00000000000E+00 0. -1.
         -1   -1    0    0    0  501 -0.00000000000E+00 -0.00000000000E+00 -0.12280814671E+03  0.12280814671E+03  0.00000000000E+00 0.  1.
         25    2    1    2    0    0  0.44498345017E+01 -0.59874697295E+02 -0.45664482605E+02  0.14607651303E+03  0.12509325435E+03 0.  0.
         23    2    1    2    0    0 -0.44498345017E+01  0.59874697295E+02  0.80015701383E+02  0.13389099916E+03  0.88991610759E+02 0.  0.
          5    1    3    3  502    0 -0.35478860434E+02 -0.53666817649E+02  0.21176553257E+02  0.67858644712E+02  0.41800000000E+01 0. -1.
         -5    1    3    3    0  502  0.39928694936E+02 -0.62078796459E+01 -0.66841035861E+02  0.78217868316E+02  0.41800000000E+01 0. -1.
        -11    1    4    4    0    0  0.27495175810E+02 -0.21841575616E+01 -0.17002679367E+00  0.27582315823E+02  0.00000000000E+00 0.  1.
         11    1    4    4    0    0 -0.31945010311E+02  0.62058854857E+02  0.80185728177E+02  0.10630868334E+03  0.00000000000E+00 0. -1.
</event>
<event>
 8    1  0.6443238E-009  0.8414190E+02  0.7561462E-02  0.1317692E+00
         -2   -1    0    0    0  501 -0.00000000000E+00  0.00000000000E+00  0.15170865669E+03  0.15170865669E+03  0.00000000000E+00 0.  1.
          2   -1    0    0  501    0  0.00000000000E+00 -0.00000000000E+00 -0.81212066215E+02  0.81212066215E+02  0.00000000000E+00 0. -1.
         25    2    1    2    0    0  0.18895172767E+02 -0.36493217114E+01  0.45364136171E+02  0.13448719686E+03  0.12513415268E+03 0.  0.
         23    2    1    2    0    0 -0.18895172767E+02  0.36493217114E+01  0.25132454307E+02  0.98433526046E+02  0.93205008918E+02 0.  0.
          5    1    3    3  502    0  0.30553130655E+01 -0.59914859271E+02 -0.38964013887E+00  0.60139417347E+02  0.41800000000E+01 0.  1.
         -5    1    3    3    0  502  0.15839859701E+02  0.56265537560E+02  0.45753776310E+02  0.74347779515E+02  0.41800000000E+01 0.  1.
        -11    1    4    4    0    0 -0.27735965693E+02  0.17729322850E+02 -0.27715532152E+02  0.43032120609E+02  0.00000000000E+00 0. -1.
         11    1    4    4    0    0  0.88407929260E+01 -0.14080001139E+02  0.52847986459E+02  0.55401405437E+02  0.00000000000E+00 0.  1.
</event>
<event>
 8    1  0.6443238E-009  0.1213492E+03  0.7561462E-02  0.1240888E+00
         -1   -1    0    0    0  501 -0.00000000000E+00  0.00000000000E+00  0.18921851031E+02  0.18921851031E+02  0.00000000000E+00 0.  1.
          1   -1    0    0  501    0  0.00000000000E+00 -0.00000000000E+00 -0.16784860442E+04  0.16784860442E+04  0.00000000000E+00 0. -1.
         25    2    1    2    0    0 -0.57240063219E+02  0.90572865618E+02 -0.13458809667E+04  0.13559210017E+04  0.12508524179E+03 0.  0.
         23    2    1    2    0    0  0.57240063219E+02 -0.90572865618E+02 -0.31368322654E+03  0.34148689352E+03  0.82074740401E+02 0.  0.
          5    1    3    3  502    0 -0.68705093426E+02  0.94981402313E+02 -0.68912705871E+03  0.69903893461E+03  0.41800000000E+01 0. -1.
         -5    1    3    3    0  502  0.11465030207E+02 -0.44085366944E+01 -0.65675390795E+03  0.65688206713E+03  0.41800000000E+01 0. -1.
        -11    1    4    4    0    0  0.43429499395E+02 -0.36859368001E+02 -0.63825022745E+02  0.85547460252E+02  0.00000000000E+00 0.  1.
         11    1    4    4    0    0  0.13810563824E+02 -0.53713497617E+02 -0.24985820380E+03  0.25593943327E+03  0.00000000000E+00 0. -1.
</event>
<event>
 8    1  0.6443238E-009  0.1117348E+03  0.7561462E-02  0.1257391E+00
         -1   -1    0    0    0  501 -0.00000000000E+00  0.00000000000E+00  0.24480446824E+02  0.24480446824E+02  0.00000000000E+00 0.  1.
          1   -1    0    0  501    0  0.00000000000E+00 -0.00000000000E+00 -0.78367168033E+03  0.78367168033E+03  0.00000000000E+00 0. -1.
         25    2    1    2    0    0 -0.49247885466E+02 -0.94327741873E+01 -0.62587640545E+03  0.64021964338E+03  0.12508231454E+03 0.  0.
         23    2    1    2    0    0  0.49247885466E+02  0.94327741873E+01 -0.13331482805E+03  0.16793248378E+03  0.88961476370E+02 0.  0.
          5    1    3    3  502    0 -0.89512086751E+02  0.86938429966E+01 -0.44115492243E+03  0.45024785903E+03  0.41800000000E+01 0.  1.
         -5    1    3    3    0  502  0.40264201285E+02 -0.18126617184E+02 -0.18472148303E+03  0.18997178435E+03  0.41800000000E+01 0.  1.
        -11    1    4    4    0    0  0.61399069449E+02 -0.13742209632E+02 -0.49286599996E+02  0.79924107714E+02  0.00000000000E+00 0.  1.
         11    1    4    4    0    0 -0.12151183983E+02  0.23174983820E+02 -0.84028228059E+02  0.88008376067E+02  0.00000000000E+00 0. -1.
</event>
<event>
 8    1  0.6443238E-009  0.1400284E+03  0.7561462E-02  0.1213291E+00
          2   -1    0    0  501    0  0.00000000000E+00  0.00000000000E+00  0.76323611517E+03  0.76323611517E+03  0.00000000000E+00 0. -1.
         -2   -1    0    0    0  501 -0.00000000000E+00 -0.00000000000E+00 -0.41836470463E+02  0.41836470463E+02  0.00000000000E+00 0.  1.
         25    2    1    2    0    0 -0.13625788365E+03  0.17476559923E+02  0.30834998746E+03  0.35999870117E+03  0.12509080331E+03 0.  0.
         23    2    1    2    0    0  0.13625788365E+03 -0.17476559923E+02  0.41304965724E+03  0.44507388446E+03  0.92785248177E+02 0.  0.
          5    1    3    3  502    0 -0.64976285764E+02  0.23644114118E+02  0.26993760576E+03  0.27868395226E+03  0.41800000000E+01 0. -1.
         -5    1    3    3    0  502 -0.71281597884E+02 -0.61675541951E+01  0.38412381699E+02  0.81314748905E+02  0.41800000000E+01 0. -1.
        -11    1    4    4    0    0  0.11057486920E+03 -0.22765774077E+02  0.40030332464E+03  0.41591806150E+03  0.00000000000E+00 0. -1.
         11    1    4    4    0    0  0.25683014452E+02  0.52892141546E+01  0.12746332607E+02  0.29155822963E+02  0.00000000000E+00 0.  1.
</event>
<event>
 8    1  0.6443238E-009  0.9776267E+02  0.7561462E-02  0.1285072E+00
         -2   -1    0    0    0  501 -0.00000000000E+00  0.00000000000E+00  0.90104136001E+02  0.90104136001E+02  0.00000000000E+00 0.  1.
          2   -1    0    0  501    0  0.00000000000E+00 -0.00000000000E+00 -0.21953374784E+03  0.21953374784E+03  0.00000000000E+00 0. -1.
         25    2    1    2    0    0 -0.52228938770E+02  0.28364315762E+01 -0.15062467016E+03  0.20266104070E+03  0.12509116184E+03 0.  0.
         23    2    1    2    0    0  0.52228938770E+02 -0.28364315762E+01  0.21195058313E+02  0.10697684314E+03  0.90878529272E+02 0.  0.
          5    1    3    3  502    0  0.18448818721E+02 -0.58061057137E+01 -0.12548200072E+03  0.12703257330E+03  0.41800000000E+01 0. -1.
         -5    1    3    3    0  502 -0.70677757491E+02  0.86425372899E+01 -0.25142669439E+02  0.75628467400E+02  0.41800000000E+01 0. -1.
        -11    1    4    4    0    0  0.76211517068E+02 -0.14760550909E+02  0.20019777363E+02  0.80167703488E+02  0.00000000000E+00 0.  1.
         11    1    4    4    0    0 -0.23982578298E+02  0.11924119333E+02  0.11752809498E+01  0.26809139654E+02  0.00000000000E+00 0. -1.
</event>
<event>
 8    1  0.6443238E-009  0.1234013E+03  0.7561462E-02  0.1237589E+00
         -2   -1    0    0    0  501 -0.00000000000E+00  0.00000000000E+00  0.19300373336E+02  0.19300373336E+02  0.00000000000E+00 0.  1.
          2   -1    0    0  501    0  0.00000000000E+00 -0.00000000000E+00 -0.10901992462E+04  0.10901992462E+04  0.00000000000E+00 0. -1.
         25    2    1    2    0    0  0.25562872241E+02 -0.78091704661E+02 -0.76623862890E+03  0.78071815979E+03  0.12508970314E+03 0.  0.
         23    2    1    2    0    0 -0.25562872241E+02  0.78091704661E+02 -0.30466024392E+03  0.32878145970E+03  0.92345055330E+02 0.  0.
          5    1    3    3  502    0 -0.35091950698E+02 -0.46664887112E+02 -0.15543416121E+03  0.16609126276E+03  0.41800000000E+01 0. -1.
         -5    1    3    3    0  502  0.60654822939E+02 -0.31426817549E+02 -0.61080446769E+03  0.61462689703E+03  0.41800000000E+01 0. -1.
        -11    1    4    4    0    0 -0.41059111765E+02  0.87423881995E+00 -0.68863008595E+02  0.80179354607E+02  0.00000000000E+00 0.  1.
         11    1    4    4    0    0  0.15496239525E+02  0.77217465841E+02 -0.23579723532E+03  0.24860210509E+03  0.00000000000E+00 0. -1.
</event>
<event>
 8    1  0.6443238E-009  0.1007827E+03  0.7561462E-02  0.1278659E+00
         -2   -1    0    0    0  501 -0.00000000000E+00  0.00000000000E+00  0.31428840286E+02  0.31428840286E+02  0.00000000000E+00 0.  1.
          2   -1    0    0  501    0  0.00000000000E+00 -0.00000000000E+00 -0.79478539030E+03  0.79478539030E+03  0.00000000000E+00 0. -1.
         25    2    1    2    0    0 -0.74011736402E+02 -0.53373770769E+01 -0.63538794969E+03  0.65182758303E+03  0.12512044863E+03 0.  0.
         23    2    1    2    0    0  0.74011736402E+02  0.53373770769E+01 -0.12796860033E+03  0.17438664756E+03  0.92349961880E+02 0.  0.
          5    1    3    3  502    0 -0.19564681847E+02  0.15345635704E+02 -0.53572549530E+03  0.53631850987E+03  0.41800000000E+01 0.  1.
         -5    1    3    3    0  502 -0.54447054555E+02 -0.20683012781E+02 -0.99662454388E+02  0.11550907316E+03  0.41800000000E+01 0.  1.
        -11    1    4    4    0    0 -0.13634514137E+02  0.24686860247E+02 -0.23977790231E+02  0.37017232055E+02  0.00000000000E+00 0.  1.
         11    1    4    4    0    0  0.87646250539E+02 -0.19349483171E+02 -0.10399081010E+03  0.13736941551E+03  0.00000000000E+00 0. -1.
</event>
<event>
 8    1  0.6443238E-009  0.1522102E+03  0.7561462E-02  0.1197783E+00
          2   -1    0    0  501    0  0.00000000000E+00  0.00000000000E+00  0.40312955841E+03  0.40312955841E+03  0.00000000000E+00 0. -1.
         -2   -1    0    0    0  501 -0.00000000000E+00 -0.00000000000E+00 -0.79392092264E+02  0.79392092264E+02  0.00000000000E+00 0.  1.
         25    2    1    2    0    0 -0.67045044598E+02 -0.96297835404E+02  0.58281317320E+02  0.18115666206E+03  0.12511080350E+03 0.  0.
         23    2    1    2    0    0  0.67045044598E+02  0.96297835404E+02  0.26545614883E+03  0.30136498862E+03  0.81151576106E+02 0.  0.
          5    1    3    3  502    0  0.25191884400E+02  0.35256742044E+01 -0.11606077714E+02  0.28270742087E+02  0.41800000000E+01 0. -1.
         -5    1    3    3    0  502 -0.92236928998E+02 -0.99823509608E+02  0.69887395034E+02  0.15288591997E+03  0.41800000000E+01 0. -1.
        -11    1    4    4    0    0  0.32605653584E+02  0.10259717207E+03  0.19951883319E+03  0.22670922601E+03  0.00000000000E+00 0.  1.
         11    1    4    4    0    0  0.34439391015E+02 -0.62993366697E+01  0.65937315643E+02  0.74655762605E+02  0.00000000000E+00 0. -1.
</event>
<event>
 8    1  0.6443238E-009  0.9344052E+02  0.7561462E-02  0.1294728E+00
          2   -1    0    0  501    0  0.00000000000E+00  0.00000000000E+00  0.20177298565E+03  0.20177298565E+03  0.00000000000E+00 0.  1.
         -2   -1    0    0    0  501 -0.00000000000E+00 -0.00000000000E+00 -0.62878114644E+02  0.62878114644E+02  0.00000000000E+00 0. -1.
         25    2    1    2    0    0  0.98522445978E+01  0.40175264679E+02  0.83335948685E+02  0.15589349993E+03  0.12508710710E+03 0.  0.
         23    2    1    2    0    0 -0.98522445978E+01 -0.40175264679E+02  0.55558922323E+02  0.10875760037E+03  0.83846903175E+02 0.  0.
          5    1    3    3  502    0 -0.44954442980E+02  0.35953291448E+02  0.82593660688E+02  0.10076073787E+03  0.41800000000E+01 0.  1.
         -5    1    3    3    0  502  0.54806687578E+02  0.42219732307E+01  0.74228799728E+00  0.55132762063E+02  0.41800000000E+01 0.  1.
        -11    1    4    4    0    0  0.15392537002E+02  0.96607622786E+01 -0.11478025310E+02  0.21494315253E+02  0.00000000000E+00 0. -1.
         11    1    4    4    0    0 -0.25244781600E+02 -0.49836026957E+02  0.67036947632E+02  0.87263285113E+02  0.00000000000E+00 0.  1.
</event>
<event>
 8    1  0.6443238E-009  0.1211185E+03  0.7561462E-02  0.1241263E+00
         -2   -1    0    0    0  501 -0.00000000000E+00  0.00000000000E+00  0.13445878062E+03  0.13445878062E+03  0.00000000000E+00 0.  1.
          2   -1    0    0  501    0  0.00000000000E+00 -0.00000000000E+00 -0.15447667571E+03  0.15447667571E+03  0.00000000000E+00 0. -1.
         25    2    1    2    0    0 -0.90954533568E+02 -0.66783445549E+01  0.16962057835E+02  0.15573366695E+03  0.12509171097E+03 0.  0.
         23    2    1    2    0    0  0.90954533568E+02  0.66783445549E+01 -0.36979952931E+02  0.13320178938E+03  0.89765652185E+02 0.  0.
          5    1    3    3  502    0 -0.44667065167E+02  0.56700031152E+02  0.25527094109E+02  0.76675583969E+02  0.41800000000E+01 0. -1.
         -5    1    3    3    0  502 -0.46287468401E+02 -0.63378375707E+02 -0.85650362748E+01  0.79058082981E+02  0.41800000000E+01 0. -1.
        -11    1    4    4    0    0  0.65385929709E+02  0.24905652404E+01  0.21796461405E+02  0.68968169825E+02  0.00000000000E+00 0.  1.
         11    1    4    4    0    0  0.25568603859E+02  0.41877793146E+01 -0.58776414335E+02  0.64233619554E+02  0.00000000000E+00 0. -1.
</event>
<event>
 8    1  0.6443238E-009  0.1147016E+03  0.7561462E-02  0.1252103E+00
         -2   -1    0    0    0  501 -0.00000000000E+00  0.00000000000E+00  0.20147408550E+02  0.20147408550E+02  0.00000000000E+00 0.  1.
          2   -1    0    0  501    0  0.00000000000E+00 -0.00000000000E+00 -0.77273008672E+03  0.77273008672E+03  0.00000000000E+00 0. -1.
         25    2    1    2    0    0  0.39924279078E+02 -0.43633635651E+02 -0.38552280175E+03  0.40960165360E+03  0.12509133359E+03 0.  0.
         23    2    1    2    0    0 -0.39924279078E+02  0.43633635651E+02 -0.36705987642E+03  0.38327584167E+03  0.93110556407E+02 0.  0.
          5    1    3    3  502    0  0.14241443744E+02 -0.85537240264E+02 -0.20891979158E+03  0.22623967359E+03  0.41800000000E+01 0. -1.
         -5    1    3    3    0  502  0.25682835334E+02  0.41903604614E+02 -0.17660301017E+03  0.18336198001E+03  0.41800000000E+01 0. -1.
        -11    1    4    4    0    0  0.21171775963E+02  0.87463341681E+01 -0.24400392799E+02  0.33468218171E+02  0.00000000000E+00 0.  1.
         11    1    4    4    0    0 -0.61096055041E+02  0.34887301483E+02 -0.34265948362E+03  0.34980762350E+03  0.00000000000E+00 0. -1.
</event>
<event>
 8    1  0.6443238E-009  0.1056886E+03  0.7561462E-02  0.1268769E+00
         -3   -1    0    0    0  501 -0.00000000000E+00  0.00000000000E+00  0.84412679228E+02  0.84412679228E+02  0.00000000000E+00 0.  1.
          3   -1    0    0  501    0  0.00000000000E+00 -0.00000000000E+00 -0.18483693693E+03  0.18483693693E+03  0.00000000000E+00 0. -1.
         25    2    1    2    0    0  0.76506239238E+01 -0.52881666608E+02 -0.21867398746E+02  0.13776117875E+03  0.12507980065E+03 0.  0.
         23    2    1    2    0    0 -0.76506239238E+01  0.52881666608E+02 -0.78556858958E+02  0.13148843742E+03  0.90901190173E+02 0.  0.
          5    1    3    3  502    0  0.38271436853E+02 -0.70741678669E+02 -0.47786600945E+02  0.93648916756E+02  0.41800000000E+01 0.  1.
         -5    1    3    3    0  502 -0.30620812929E+02  0.17860012060E+02  0.25919202199E+02  0.44112261990E+02  0.41800000000E+01 0.  1.
        -11    1    4    4    0    0  0.13479072562E+02 -0.17253587292E+02  0.27337641154E+01  0.22064567474E+02  0.00000000000E+00 0.  1.
         11    1    4    4    0    0 -0.21129696485E+02  0.70135253900E+02 -0.81290623074E+02  0.10942386994E+03  0.00000000000E+00 0. -1.
</event>
<event>
 8    1  0.6443238E-009  0.8431134E+02  0.7561462E-02  0.1317243E+00
          1   -1    0    0  501    0  0.00000000000E+00  0.00000000000E+00  0.38929157363E+03  0.38929157363E+03  0.00000000000E+00 0. -1.
         -1   -1    0    0    0  501 -0.00000000000E+00 -0.00000000000E+00 -0.45409015622E+02  0.45409015622E+02  0.00000000000E+00 0.  1.
         25    2    1    2    0    0 -0.15444620742E+02 -0.27244711071E+02  0.76626803123E+02  0.14999945023E+03  0.12508939811E+03 0.  0.
         23    2    1    2    0    0  0.15444620742E+02  0.27244711071E+02  0.26725575488E+03  0.28470113902E+03  0.92996179766E+02 0.  0.
          5    1    3    3  502    0  0.14410739401E+02 -0.59773389197E+02  0.84874586265E+02  0.10488896634E+03  0.41800000000E+01 0. -1.
         -5    1    3    3    0  502 -0.29855360142E+02  0.32528678126E+02 -0.82477831419E+01  0.45110483888E+02  0.41800000000E+01 0. -1.
        -11    1    4    4    0    0 -0.11418705271E+02 -0.11035061199E+02  0.27780119345E+01  0.16120693411E+02  0.00000000000E+00 0.  1.
         11    1    4    4    0    0  0.26863326013E+02  0.38279772270E+02  0.26447774295E+03  0.26858044561E+03  0.00000000000E+00 0. -1.
</event>
<event>
 8    1  0.6443238E-009  0.1646379E+03  0.7561462E-02  0.1183558E+00
         -1   -1    0    0    0  501 -0.00000000000E+00  0.00000000000E+00  0.67321459523E+02  0.67321459523E+02  0.00000000000E+00 0.  1.
          1   -1    0    0  501    0  0.00000000000E+00 -0.00000000000E+00 -0.65584584352E+03  0.65584584352E+03  0.00000000000E+00 0. -1.
         25    2    1    2    0    0  0.66511298953E+02  0.12427832539E+03 -0.11326800208E+03  0.21987898403E+03  0.12509305445E+03 0.  0.
         23    2    1    2    0    0 -0.66511298953E+02 -0.12427832539E+03 -0.47525638191E+03  0.50328831901E+03  0.86957739475E+02 0.  0.
          5    1    3    3  502    0  0.10021948006E+03  0.93186906996E+02 -0.10624038651E+03  0.17329811293E+03  0.41800000000E+01 0. -1.
         -5    1    3    3    0  502 -0.33708181111E+02  0.31091418394E+02 -0.70276155712E+01  0.46580871097E+02  0.41800000000E+01 0. -1.
        -11    1    4    4    0    0 -0.18363390828E+02 -0.75787601400E+02 -0.13214348549E+03  0.15343687760E+03  0.00000000000E+00 0.  1.
         11    1    4    4    0    0 -0.48147908126E+02 -0.48490723990E+02 -0.34311289642E+03  0.34985144141E+03  0.00000000000E+00 0. -1.
</event>
<event>
 8    1  0.6443238E-009  0.1038034E+03  0.7561462E-02  0.1272495E+00
          1   -1    0    0  501    0  0.00000000000E+00  0.00000000000E+00  0.39965744060E+03  0.39965744060E+03  0.00000000000E+00 0. -1.
         -1   -1    0    0    0  501 -0.00000000000E+00 -0.00000000000E+00 -0.40730810121E+02  0.40730810121E+02  0.00000000000E+00 0.  1.
         25    2    1    2    0    0 -0.57855231444E+02 -0.34073966640E+02  0.19428218033E+03  0.24062680937E+03  0.12508969897E+03 0.  0.
         23    2    1    2    0    0  0.57855231444E+02  0.34073966640E+02  0.16464445015E+03  0.19976144135E+03  0.91041613980E+02 0.  0.
          5    1    3    3  502    0  0.19147229966E+02 -0.43765609654E+01  0.14072980009E+03  0.14215526630E+03  0.41800000000E+01 0. -1.
         -5    1    3    3    0  502 -0.77002461410E+02 -0.29697405674E+02  0.53552380232E+02  0.98471543074E+02  0.41800000000E+01 0. -1.
        -11    1    4    4    0    0  0.35184701551E+02 -0.23971058536E+02  0.32167834714E+02  0.53360514060E+02  0.00000000000E+00 0.  1.
         11    1    4    4    0    0  0.22670529893E+02  0.58045025176E+02  0.13247661543E+03  0.14640092729E+03  0.00000000000E+00 0. -1.
</event>
<event>
 8    1  0.6443238E-009  0.9244942E+02  0.7561462E-02  0.1297026E+00
         -1   -1    0    0    0  501 -0.00000000000E+00  0.00000000000E+00  0.27336250984E+03  0.27336250984E+03  0.00000000000E+00 0.  1.
          1   -1    0    0  501    0  0.00000000000E+00 -0.00000000000E+00 -0.10918310723E+03  0.10918310723E+03  0.00000000000E+00 0. -1.
         25    2    1    2    0    0 -0.38069586419E+02 -0.56799010581E+02 -0.42943706027E+02  0.14888517059E+03  0.12508881294E+03 0.  0.
         23    2    1    2    0    0  0.38069586419E+02  0.56799010581E+02  0.20712310863E+03  0.23366044648E+03  0.83796187908E+02 0.  0.
          5    1    3    3  502    0 -0.53778895540E+02 -0.75848736317E+01 -0.71362156299E+02  0.89775997155E+02  0.41800000000E+01 0.  1.
         -5    1    3    3    0  502  0.15709309121E+02 -0.49214136949E+02  0.28418450272E+02  0.59109173438E+02  0.41800000000E+01 0.  1.
        -11    1    4    4    0    0  0.30977065324E+02  0.11967197938E+02  0.15341448515E+02  0.36580766055E+02  0.00000000000E+00 0. -1.
         11    1    4    4    0    0  0.70925210952E+01  0.44831812642E+02  0.19178166012E+03  0.19707968043E+03  0.00000000000E+00 0.  1.
</event>
<event>
 8    1  0.6443238E-009  0.1863917E+03  0.7561462E-02  0.1161757E+00
         -1   -1    0    0    0  501 -0.00000000000E+00  0.00000000000E+00  0.17123868742E+03  0.17123868742E+03  0.00000000000E+00 0.  1.
          1   -1    0    0  501    0  0.00000000000E+00 -0.00000000000E+00 -0.22768509641E+03  0.22768509641E+03  0.00000000000E+00 0. -1.
         25    2    1    2    0    0 -0.14782804678E+03 -0.66421232430E+02 -0.57225265851E+02  0.21257175772E+03  0.12508840711E+03 0.  0.
         23    2    1    2    0    0  0.14782804678E+03  0.66421232430E+02  0.77885686027E+00  0.18635202611E+03  0.91986735370E+02 0.  0.
          5    1    3    3  502    0  0.21955905966E+02 -0.79861069122E+00 -0.98441603854E+01  0.24435209832E+02  0.41800000000E+01 0.  1.
         -5    1    3    3    0  502 -0.16978395275E+03 -0.65622621739E+02 -0.47381105465E+02  0.18813654789E+03  0.41800000000E+01 0.  1.
        -11    1    4    4    0    0  0.13586825720E+03  0.73473609455E+02  0.26884027744E+02  0.15678426435E+03  0.00000000000E+00 0.  1.
         11    1    4    4    0    0  0.11959789587E+02 -0.70523770250E+01 -0.26105170883E+02  0.29567761761E+02  0.00000000000E+00 0. -1.
</event>
<event>
 8    1  0.6443238E-009  0.1378795E+03  0.7561462E-02  0.1216211E+00
          1   -1    0    0  501    0  0.00000000000E+00  0.00000000000E+00  0.77083233076E+02  0.77083233076E+02  0.00000000000E+00 0. -1.
         -1   -1    0    0    0  501 -0.00000000000E+00 -0.00000000000E+00 -0.27281093651E+03  0.27281093651E+03  0.00000000000E+00 0.  1.
         25    2    1    2    0    0 -0.94581876903E+01  0.94004568398E+02 -0.84213525531E+02  0.17794795771E+03  0.12508893467E+03 0.  0.
         23    2    1    2    0    0  0.94581876903E+01 -0.94004568398E+02 -0.11151417790E+03  0.17194621187E+03  0.90574674778E+02 0.  0.
          5    1    3    3  502    0 -0.20744695103E+02 -0.22900488757E+02 -0.43606052272E+02  0.53607228571E+02  0.41800000000E+01 0. -1.
         -5    1    3    3    0  502  0.11286507413E+02  0.11690505715E+03 -0.40607473259E+02  0.12434072914E+03  0.41800000000E+01 0. -1.
        -11    1    4    4    0    0  0.46182812581E+02 -0.36684779688E+02 -0.31408185060E+02  0.66821398724E+02  0.00000000000E+00 0. -1.
         11    1    4    4    0    0 -0.36724624891E+02 -0.57319788709E+02 -0.80105992840E+02  0.10512481315E+03  0.00000000000E+00 0.  1.
</event>
<event>
 8    1  0.6443238E-009  0.8570815E+02  0.7561462E-02  0.1313591E+00
         -2   -1    0    0    0  501 -0.00000000000E+00  0.00000000000E+00  0.29260294609E+02  0.29260294609E+02  0.00000000000E+00 0.  1.
          2   -1    0    0  501    0  0.00000000000E+00 -0.00000000000E+00 -0.48063964877E+03  0.48063964877E+03  0.00000000000E+00 0. -1.
         25    2    1    2    0    0 -0.42718203840E+02 -0.19328840475E+02 -0.23366236316E+03  0.26915208500E+03  0.12508515456E+03 0.  0.
         23    2    1    2    0    0  0.42718203840E+02  0.19328840475E+02 -0.21771699101E+03  0.24074785838E+03  0.91435190864E+02 0.  0.
          5    1    3    3  502    0 -0.64113482954E+02 -0.10580467749E+02 -0.45280275984E+02  0.79311164330E+02  0.41800000000E+01 0.  1.
         -5    1    3    3    0  502  0.21395279113E+02 -0.87483727265E+01 -0.18838208717E+03  0.18984092067E+03  0.41800000000E+01 0.  1.
        -11    1    4    4    0    0  0.36749094987E+01  0.38944715671E+02 -0.17614767967E+03  0.18043891180E+03  0.00000000000E+00 0. -1.
         11    1    4    4    0    0  0.39043294342E+02 -0.19615875196E+02 -0.41569311341E+02  0.60308946585E+02  0.00000000000E+00 0.  1.
</event>
<event>
 8    1  0.6443238E-009  0.2021281E+03  0.7561462E-02  0.1147956E+00
         -1   -1    0    0    0  501 -0.00000000000E+00  0.00000000000E+00  0.93328647841E+02  0.93328647841E+02  0.00000000000E+00 0.  1.
          1   -1    0    0  501    0  0.00000000000E+00 -0.00000000000E+00 -0.53408002892E+03  0.53408002892E+03  0.00000000000E+00 0. -1.
         25    2    1    2    0    0  0.14512101373E+02  0.18860056918E+03 -0.29366280479E+03  0.37103315055E+03  0.12508788955E+03 0.  0.
         23    2    1    2    0    0 -0.14512101373E+02 -0.18860056918E+03 -0.14708857629E+03  0.25637552621E+03  0.91173380893E+02 0.  0.
          5    1    3    3  502    0  0.36392439261E+01  0.19382142537E+03 -0.29966557735E+03  0.35692705092E+03  0.41800000000E+01 0. -1.
         -5    1    3    3    0  502  0.10872857447E+02 -0.52208561915E+01  0.60027725634E+01  0.14106099634E+02  0.41800000000E+01 0. -1.
        -11    1    4    4    0    0 -0.23396771458E+02 -0.26921971201E+02  0.27338709271E+01  0.35772552303E+02  0.00000000000E+00 0.  1.
         11    1    4    4    0    0  0.88846700850E+01 -0.16167859797E+03 -0.14982244722E+03  0.22060297390E+03  0.00000000000E+00 0. -1.
</event>
<event>
 8    1  0.6443238E-009  0.1573324E+03  0.7561462E-02  0.1191742E+00
          2   -1    0    0  501    0  0.00000000000E+00  0.00000000000E+00  0.34958692972E+03  0.34958692972E+03  0.00000000000E+00 0. -1.
         -2   -1    0    0    0  501 -0.00000000000E+00 -0.00000000000E+00 -0.81528924001E+02  0.81528924001E+02  0.00000000000E+00 0.  1.
         25    2    1    2    0    0 -0.56555462311E+02  0.11543369836E+03  0.14382816464E+03  0.22990780004E+03  0.12509035352E+03 0.  0.
         23    2    1    2    0    0  0.56555462311E+02 -0.11543369836E+03  0.12422984108E+03  0.20120805368E+03  0.92348082892E+02 0.  0.
          5    1    3    3  502    0 -0.28805381231E+02  0.13520544064E+03  0.86617276305E+02  0.16318788595E+03  0.41800000000E+01 0. -1.
         -5    1    3    3    0  502 -0.27750081080E+02 -0.19771742278E+02  0.57210888332E+02  0.66719914091E+02  0.41800000000E+01 0. -1.
        -11    1    4    4    0    0  0.45997516085E+02 -0.27758456781E+02  0.93257259650E+02  0.10762536823E+03  0.00000000000E+00 0. -1.
         11    1    4    4    0    0  0.10557946227E+02 -0.87675241583E+02  0.30972581432E+02  0.93582685449E+02  0.00000000000E+00 0.  1.
</event>
<event>
 7    1  0.6443238E-009  0.1162908E+03  0.7561462E-02  0.1249345E+00
         -1   -1    0    0    0  501 -0.00000000000E+00  0.00000000000E+00  0.51180042762E+02  0.51180042762E+02  0.00000000000E+00 0.  1.
          1   -1    0    0  501    0  0.00000000000E+00 -0.00000000000E+00 -0.50110806595E+03  0.50110806595E+03  0.00000000000E+00 0. -1.
         25    2    1    2    0    0 -0.46314507388E+02  0.78186561781E+02 -0.86607156137E+02  0.17720703966E+03  0.12507343192E+03 0.  0.
          5    1    3    3  502    0  0.26572583852E+02  0.59730959456E+02 -0.42999000198E+01  0.65649457502E+02  0.41800000000E+01 0. -1.
         -5    1    3    3    0  502 -0.72887091240E+02  0.18455602325E+02 -0.82307256117E+02  0.11155758215E+03  0.41800000000E+01 0. -1.
        -11    1    1    2    0    0  0.12994828134E+02 -0.12087471865E+02 -0.99593881417E+02  0.10116280814E+03  0.00000000000E+00 0. -1.
         11    1    1    2    0    0  0.33319679254E+02 -0.66099089917E+02 -0.26372698563E+03  0.27391826091E+03  0.00000000000E+00 0.  1.
</event>
<event>
 8    1  0.6443238E-009  0.1076156E+03  0.7561462E-02  0.1265050E+00
         -2   -1    0    0    0  501 -0.00000000000E+00  0.00000000000E+00  0.37736831549E+03  0.37736831549E+03  0.00000000000E+00 0.  1.
          2   -1    0    0  501    0  0.00000000000E+00 -0.00000000000E+00 -0.33724113924E+02  0.33724113924E+02  0.00000000000E+00 0. -1.
         25    2    1    2    0    0  0.21644951305E+02  0.95210696176E+00  0.23429976912E+03  0.26647670327E+03  0.12507614140E+03 0.  0.
         23    2    1    2    0    0 -0.21644951305E+02 -0.95210696176E+00  0.10934443245E+03  0.14461572615E+03  0.92130846728E+02 0.  0.
          5    1    3    3  502    0  0.60483029758E+02  0.34960279022E+02  0.96036979460E+02  0.11883177951E+03  0.41800000000E+01 0.  1.
         -5    1    3    3    0  502 -0.38838078453E+02 -0.34008172060E+02  0.13826278966E+03  0.14764492375E+03  0.41800000000E+01 0.  1.
        -11    1    4    4    0    0 -0.57196285288E+02  0.49746061311E+01  0.77996481139E+02  0.96848401261E+02  0.00000000000E+00 0.  1.
         11    1    4    4    0    0  0.35551333983E+02 -0.59267130929E+01  0.31347951307E+02  0.47767324890E+02  0.00000000000E+00 0. -1.
</event>
<event>
 8    1  0.6443238E-009  0.1910247E+03  0.7561462E-02  0.1157540E+00
          2   -1    0    0  501    0  0.00000000000E+00  0.00000000000E+00  0.55515348801E+03  0.55515348801E+03  0.00000000000E+00 0. -1.
         -2   -1    0    0    0  501 -0.00000000000E+00 -0.00000000000E+00 -0.26347341125E+03  0.26347341125E+03  0.00000000000E+00 0.  1.
         25    2    1    2    0    0  0.73020917502E+02  0.16703978242E+03 -0.19426416683E+03  0.29430520911E+03  0.12507056524E+03 0.  0.
         23    2    1    2    0    0 -0.73020917502E+02 -0.16703978242E+03  0.48594424359E+03  0.52432169016E+03  0.74411582347E+02 0.  0.
          5    1    3    3  502    0  0.53365617985E+02  0.61074432995E+02 -0.16283809116E+03  0.18196618334E+03  0.41800000000E+01 0.  1.
         -5    1    3    3    0  502  0.19655299517E+02  0.10596534942E+03 -0.31426075677E+02  0.11233902576E+03  0.41800000000E+01 0.  1.
        -11    1    4    4    0    0  0.11674567755E+02 -0.25358285641E+02  0.39750781556E+02  0.48574302025E+02  0.00000000000E+00 0.  1.
         11    1    4    4    0    0 -0.84695485258E+02 -0.14168149678E+03  0.44619346204E+03  0.47574738814E+03  0.00000000000E+00 0. -1.
</event>
<event>
 8    1  0.6443238E-009  0.1044106E+03  0.7561462E-02  0.1271285E+00
         -2   -1    0    0    0  501 -0.00000000000E+00  0.00000000000E+00  0.48968873388E+02  0.48968873388E+02  0.00000000000E+00 0.  1.
          2   -1    0    0  501    0  0.00000000000E+00 -0.00000000000E+00 -0.27467638237E+03  0.27467638237E+03  0.00000000000E+00 0. -1.
         25    2    1    2    0    0 -0.27102357215E+02 -0.35092451357E+02 -0.12218937197E+03  0.18037541391E+03  0.12505610505E+03 0.  0.
         23    2    1    2    0    0  0.27102357215E+02  0.35092451357E+02 -0.10351813701E+03  0.14326984185E+03  0.88567629437E+02 0.  0.
          5    1    3    3  502    0 -0.66410541159E+02  0.89817168873E+01 -0.37092602412E+02  0.76709613277E+02  0.41800000000E+01 0. -1.
         -5    1    3    3    0  502  0.39308183945E+02 -0.44074168245E+02 -0.85096769557E+02  0.10366580063E+03  0.41800000000E+01 0. -1.
        -11    1    4    4    0    0  0.24156922497E+02 -0.17479248664E+02 -0.80424420189E+02  0.85773937773E+02  0.00000000000E+00 0. -1.
         11    1    4    4    0    0  0.29454347172E+01  0.52571700021E+02 -0.23093716824E+02  0.57495904076E+02  0.00000000000E+00 0.  1.
</event>
<event>
 8    1  0.6443238E-009  0.9165036E+02  0.7561462E-02  0.1298904E+00
          2   -1    0    0  501    0  0.00000000000E+00  0.00000000000E+00  0.39763418602E+03  0.39763418602E+03  0.00000000000E+00 0.  1.
         -2   -1    0    0    0  501 -0.00000000000E+00 -0.00000000000E+00 -0.33415051301E+02  0.33415051301E+02  0.00000000000E+00 0. -1.
         25    2    1    2    0    0  0.38497683501E+02  0.73549208387E+01  0.19093508312E+03  0.23160096517E+03  0.12508650850E+03 0.  0.
         23    2    1    2    0    0 -0.38497683501E+02 -0.73549208387E+01  0.17328405160E+03  0.19944827215E+03  0.90642618170E+02 0.  0.
          5    1    3    3  502    0  0.74589417698E+02 -0.19628295326E+02  0.77265496861E+02  0.10925328652E+03  0.41800000000E+01 0.  1.
         -5    1    3    3    0  502 -0.36091734197E+02  0.26983216165E+02  0.11366958626E+03  0.12234767865E+03  0.41800000000E+01 0.  1.
        -11    1    4    4    0    0 -0.12665018109E+02 -0.26015338545E+02  0.16360411676E+03  0.16614303339E+03  0.00000000000E+00 0.  1.
         11    1    4    4    0    0 -0.25832665392E+02  0.18660417706E+02  0.96799348399E+01  0.33305238758E+02  0.00000000000E+00 0. -1.
</event>
<event>
 8    1  0.6443238E-009  0.3265719E+03  0.7561462E-02  0.1072664E+00
          1   -1    0    0  501    0  0.00000000000E+00  0.00000000000E+00  0.31704366455E+03  0.31704366455E+03  0.00000000000E+00 0. -1.
         -1   -1    0    0    0  501 -0.00000000000E+00 -0.00000000000E+00 -0.35985971838E+03  0.35985971838E+03  0.00000000000E+00 0.  1.
         25    2    1    2    0    0  0.26665911389E+03 -0.17584099746E+03 -0.27859975367E+02  0.34416683180E+03  0.12508992954E+03 0.  0.
         23    2    1    2    0    0 -0.26665911389E+03  0.17584099746E+03 -0.14956078460E+02  0.33273655113E+03  0.91993416959E+02 0.  0.
          5    1    3    3  502    0  0.25979937172E+03 -0.16599433003E+03  0.55940054656E+01  0.30838060322E+03  0.41800000000E+01 0.  1.
         -5    1    3    3    0  502  0.68597421763E+01 -0.98466674361E+01 -0.33453980832E+02  0.35786228578E+02  0.41800000000E+01 0.  1.
        -11    1    4    4    0    0 -0.65981749490E+02  0.10660485825E+01 -0.85651614585E+01  0.66543893154E+02  0.00000000000E+00 0.  1.
         11    1    4    4    0    0 -0.20067736440E+03  0.17477494888E+03 -0.63909170015E+01  0.26619265798E+03  0.00000000000E+00 0. -1.
</event>
<event>
 8    1  0.6443238E-009  0.1361899E+03  0.7561462E-02  0.1218550E+00
         -1   -1    0    0    0  501 -0.00000000000E+00  0.00000000000E+00  0.41861022821E+03  0.41861022821E+03  0.00000000000E+00 0.  1.
          1   -1    0    0  501    0  0.00000000000E+00 -0.00000000000E+00 -0.73125854110E+02  0.73125854110E+02  0.00000000000E+00 0. -1.
         25    2    1    2    0    0 -0.11283529030E+03  0.30936100486E+02  0.83270059076E+02  0.19044728359E+03  0.12508964800E+03 0.  0.
         23    2    1    2    0    0  0.11283529030E+03 -0.30936100486E+02  0.26221431503E+03  0.30128879874E+03  0.91267454156E+02 0.  0.
          5    1    3    3  502    0 -0.12830683075E+03  0.39074058316E+02  0.98844151175E+02  0.16666452373E+03  0.41800000000E+01 0. -1.
         -5    1    3    3    0  502  0.15471540449E+02 -0.81379578303E+01 -0.15574092099E+02  0.23782759853E+02  0.41800000000E+01 0. -1.
        -11    1    4    4    0    0  0.73017489476E+02 -0.60651646089E+01  0.63038817451E+02  0.96655224881E+02  0.00000000000E+00 0. -1.
         11    1    4    4    0    0  0.39817800823E+02 -0.24870935877E+02  0.19917549758E+03  0.20463357386E+03  0.00000000000E+00 0.  1.
</event>
<event>
 8    1  0.6443238E-009  0.1773610E+03  0.7561462E-02  0.1170382E+00
          1   -1    0    0  501    0  0.00000000000E+00  0.00000000000E+00  0.21493032901E+04  0.21493032901E+04  0.00000000000E+00 0. -1.
         -1   -1    0    0    0  501 -0.00000000000E+00 -0.00000000000E+00 -0.17421048770E+02  0.17421048770E+02  0.00000000000E+00 0.  1.
         25    2    1    2    0    0  0.12020437537E+03 -0.10429403310E+03  0.11914167704E+04  0.12084897502E+04  0.12508884172E+03 0.  0.
         23    2    1    2    0    0 -0.12020437537E+03  0.10429403310E+03  0.94046547092E+03  0.95823458867E+03  0.91716343901E+02 0.  0.
          5    1    3    3  502    0  0.32110873969E+02 -0.69057889411E+02  0.22834832495E+03  0.24074993297E+03  0.41800000000E+01 0. -1.
         -5    1    3    3    0  502  0.88093501398E+02 -0.35236143685E+02  0.96306844548E+03  0.96773981725E+03  0.41800000000E+01 0. -1.
        -11    1    4    4    0    0 -0.92303586164E+02  0.12005193371E+03  0.75847737393E+03  0.77344705415E+03  0.00000000000E+00 0.  1.
         11    1    4    4    0    0 -0.27900789203E+02 -0.15757900611E+02  0.18198809699E+03  0.18478753452E+03  0.00000000000E+00 0. -1.
</event>
<event>
 8    1  0.6443238E-009  0.1618769E+03  0.7561462E-02  0.1186594E+00
         -4   -1    0    0    0  501 -0.00000000000E+00  0.00000000000E+00  0.18201018482E+03  0.18201018482E+03  0.00000000000E+00 0.  1.
          4   -1    0    0  501    0  0.00000000000E+00 -0.00000000000E+00 -0.29810657764E+03  0.29810657764E+03  0.00000000000E+00 0. -1.
         25    2    1    2    0    0  0.11723330984E+03  0.52906612461E+02  0.10518782723E+03  0.20797949035E+03  0.12509288880E+03 0.  0.
         23    2    1    2    0    0 -0.11723330984E+03 -0.52906612461E+02 -0.22128422005E+03  0.27213727212E+03  0.92462047640E+02 0.  0.
          5    1    3    3  502    0  0.12585675492E+03  0.15631365206E+02  0.41391576364E+02  0.13347283368E+03  0.41800000000E+01 0.  1.
         -5    1    3    3    0  502 -0.86234450783E+01  0.37275247255E+02  0.63796250867E+02  0.74506656667E+02  0.41800000000E+01 0.  1.
        -11    1    4    4    0    0 -0.10086002617E+03 -0.78625363511E+02 -0.17654584647E+03  0.21799800130E+03  0.00000000000E+00 0. -1.
         11    1    4    4    0    0 -0.16373283670E+02  0.25718751049E+02 -0.44738373579E+02  0.54139270813E+02  0.00000000000E+00 0.  1.
</event>
<event>
 8    1  0.6443238E-009  0.9862682E+02  0.7561462E-02  0.1283210E+00
         -2   -1    0    0    0  501 -0.00000000000E+00  0.00000000000E+00  0.20262063515E+02  0.20262063515E+02  0.00000000000E+00 0.  1.
          2   -1    0    0  501    0  0.00000000000E+00 -0.00000000000E+00 -0.58507496435E+03  0.58507496435E+03  0.00000000000E+00 0. -1.
         25    2    1    2    0    0 -0.60753992706E+01  0.90734819923E+01 -0.39158434451E+03  0.41122706548E+03  0.12510060737E+03 0.  0.
         23    2    1    2    0    0  0.60753992706E+01 -0.90734819923E+01 -0.17322855632E+03  0.19410996238E+03  0.86898252109E+02 0.  0.
          5    1    3    3  502    0  0.31318531639E+02  0.46796375933E+02 -0.30003786013E+03  0.30530466936E+03  0.41800000000E+01 0. -1.
         -5    1    3    3    0  502 -0.37393930910E+02 -0.37722893940E+02 -0.91546484386E+02  0.10592239612E+03  0.41800000000E+01 0. -1.
        -11    1    4    4    0    0 -0.29958346454E+02  0.24162405326E+02 -0.72281161094E+02  0.81889502396E+02  0.00000000000E+00 0. -1.
         11    1    4    4    0    0  0.36033745725E+02 -0.33235887319E+02 -0.10094739523E+03  0.11222045999E+03  0.00000000000E+00 0.  1.
</event>
<event>
 8    1  0.6443238E-009  0.2562038E+03  0.7561462E-02  0.1109446E+00
         -1   -1    0    0    0  501 -0.00000000000E+00  0.00000000000E+00  0.94450320189E+03  0.94450320189E+03  0.00000000000E+00 0.  1.
          1   -1    0    0  501    0  0.00000000000E+00 -0.00000000000E+00 -0.11862751691E+03  0.11862751691E+03  0.00000000000E+00 0. -1.
         25    2    1    2    0    0 -0.15317406362E+03 -0.18483327711E+03  0.91903008718E+02  0.28586582008E+03  0.12508984767E+03 0.  0.
         23    2    1    2    0    0  0.15317406362E+03  0.18483327711E+03  0.73397267626E+03  0.77726489871E+03  0.88313074788E+02 0.  0.
          5    1    3    3  502    0 -0.10678644332E+03 -0.43723427127E+02  0.92706878347E+01  0.11583825193E+03  0.41800000000E+01 0.  1.
         -5    1    3    3    0  502 -0.46387620298E+02 -0.14110984998E+03  0.82632320883E+02  0.17002756816E+03  0.41800000000E+01 0.  1.
        -11    1    4    4    0    0  0.10785205740E+03  0.80471406012E+02  0.48868439013E+03  0.50687290974E+03  0.00000000000E+00 0.  1.
         11    1    4    4    0    0  0.45322006214E+02  0.10436187110E+03  0.24528828613E+03  0.27039198897E+03  0.00000000000E+00 0. -1.
</event>
<event>
 8    1  0.6443238E-009  0.1347840E+03  0.7561462E-02  0.1220525E+00
         -2   -1    0    0    0  501 -0.00000000000E+00  0.00000000000E+00  0.11591766385E+02  0.11591766385E+02  0.00000000000E+00 0. -1.
          2   -1    0    0  501    0  0.00000000000E+00 -0.00000000000E+00 -0.18501953201E+04  0.18501953201E+04  0.00000000000E+00 0.  1.
         25    2    1    2    0    0  0.87911230767E+02  0.21263053548E+02 -0.12506039445E+04  0.12600945479E+04  0.12509013486E+03 0.  0.
         23    2    1    2    0    0 -0.87911230767E+02 -0.21263053548E+02 -0.58799960928E+03  0.60169253860E+03  0.90054808584E+02 0.  0.
          5    1    3    3  502    0  0.10210407376E+03 -0.25170587020E+02 -0.81222813473E+03  0.81901820223E+03  0.41800000000E+01 0. -1.
         -5    1    3    3    0  502 -0.14192842995E+02  0.46433640568E+02 -0.43837580974E+03  0.44107634570E+03  0.41800000000E+01 0. -1.
        -11    1    4    4    0    0  0.10140367048E+02 -0.13977460883E+02 -0.26366625569E+02  0.31518175716E+02  0.00000000000E+00 0. -1.
         11    1    4    4    0    0 -0.98051597814E+02 -0.72855926649E+01 -0.56163298371E+03  0.57017436288E+03  0.00000000000E+00 0.  1.
</event>
<event>
 8    1  0.6443238E-009  0.1394813E+03  0.7561462E-02  0.1214029E+00
         -2   -1    0    0    0  501 -0.00000000000E+00  0.00000000000E+00  0.55432661648E+02  0.55432661648E+02  0.00000000000E+00 0.  1.
          2   -1    0    0  501    0  0.00000000000E+00 -0.00000000000E+00 -0.49604697482E+03  0.49604697482E+03  0.00000000000E+00 0. -1.
         25    2    1    2    0    0  0.49185756283E+02  0.11190451780E+03 -0.18926020003E+03  0.25769986182E+03  0.12509170931E+03 0.  0.
         23    2    1    2    0    0 -0.49185756283E+02 -0.11190451780E+03 -0.25135411313E+03  0.29377977465E+03  0.90475444619E+02 0.  0.
          5    1    3    3  502    0  0.10017703996E+02  0.91213488405E+02 -0.19228900401E+03  0.21310276471E+03  0.41800000000E+01 0.  1.
         -5    1    3    3    0  502  0.39168052287E+02  0.20691029391E+02  0.30288039800E+01  0.44597097111E+02  0.41800000000E+01 0.  1.
        -11    1    4    4    0    0 -0.40670902496E+02 -0.12083742473E+02 -0.12811261793E+03  0.13495548160E+03  0.00000000000E+00 0. -1.
         11    1    4    4    0    0 -0.85148537870E+01 -0.99820775323E+02 -0.12324149520E+03  0.15882429304E+03  0.00000000000E+00 0.  1.
</event>
<event>
 8    1  0.6443238E-009  0.1154894E+03  0.7561462E-02  0.1250729E+00
          1   -1    0    0  501    0  0.00000000000E+00  0.00000000000E+00  0.97404353849E+02  0.97404353849E+02  0.00000000000E+00 0. -1.
         -1   -1    0    0    0  501 -0.00000000000E+00 -0.00000000000E+00 -0.15294246783E+03  0.15294246783E+03  0.00000000000E+00 0.  1.
         25    2    1    2    0    0 -0.30301212844E+02  0.33502292261E+02 -0.70033249876E+02  0.15030361629E+03  0.12508378750E+03 0.  0.
         23    2    1    2    0    0  0.30301212844E+02 -0.33502292261E+02  0.14495135899E+02  0.10004320538E+03  0.88079321593E+02 0.  0.
          5    1    3    3  502    0 -0.58467243627E+02 -0.27859611634E+02 -0.40427949518E+02  0.76462200073E+02  0.41800000000E+01 0. -1.
         -5    1    3    3    0  502  0.28166030783E+02  0.61361903895E+02 -0.29605300358E+02  0.73841416217E+02  0.41800000000E+01 0. -1.
        -11    1    4    4    0    0  0.44921804487E+02  0.15323822626E+02  0.17020859073E+01  0.47494053887E+02  0.00000000000E+00 0.  1.
         11    1    4    4    0    0 -0.14620591642E+02 -0.48826114887E+02  0.12793049992E+02  0.52549151497E+02  0.00000000000E+00 0. -1.
</event>
<event>
 8    1  0.6443238E-009  0.2534134E+03  0.7561462E-02  0.1111166E+00
         -2   -1    0    0    0  501 -0.00000000000E+00  0.00000000000E+00  0.53064782715E+02  0.53064782715E+02  0.00000000000E+00 0.  1.
          2   -1    0    0  501    0  0.00000000000E+00 -0.00000000000E+00 -0.13232392771E+04  0.13232392771E+04  0.00000000000E+00 0. -1.
         25    2    1    2    0    0  0.52570462580E+00 -0.24173676401E+03 -0.65726634572E+03  0.71139653454E+03  0.12509612581E+03 0.  0.
         23    2    1    2    0    0 -0.52570462580E+00  0.24173676401E+03 -0.61290814869E+03  0.66490752530E+03  0.89491223237E+02 0.  0.
          5    1    3    3  502    0  0.37987547024E+02 -0.35167677991E+02 -0.22382032536E+03  0.22976690308E+03  0.41800000000E+01 0. -1.
         -5    1    3    3    0  502 -0.37461842398E+02 -0.20656908602E+03 -0.43344602036E+03  0.48162963146E+03  0.41800000000E+01 0. -1.
        -11    1    4    4    0    0  0.14608721116E+02  0.19968854819E+03 -0.39944629718E+03  0.44681794429E+03  0.00000000000E+00 0.  1.
         11    1    4    4    0    0 -0.15134425742E+02  0.42048215822E+02 -0.21346185151E+03  0.21808958101E+03  0.00000000000E+00 0. -1.
</event>
<event>
 8    1  0.6443238E-009  0.8866309E+02  0.7561462E-02  0.1306122E+00
         -3   -1    0    0    0  501 -0.00000000000E+00  0.00000000000E+00  0.10889327612E+02  0.10889327612E+02  0.00000000000E+00 0.  1.
          3   -1    0    0  501    0  0.00000000000E+00 -0.00000000000E+00 -0.13768828676E+04  0.13768828676E+04  0.00000000000E+00 0. -1.
         25    2    1    2    0    0 -0.29372947329E+02  0.44750823002E+02 -0.87512551563E+03  0.88564122930E+03  0.12510121000E+03 0.  0.
         23    2    1    2    0    0  0.29372947329E+02 -0.44750823002E+02 -0.49086802433E+03  0.50213096588E+03  0.91206816589E+02 0.  0.
          5    1    3    3  502    0 -0.47590229748E+02  0.31976668795E+02 -0.84951977466E+03  0.85146265758E+03  0.41800000000E+01 0.  1.
         -5    1    3    3    0  502  0.18217282419E+02  0.12774154207E+02 -0.25605740967E+02  0.34178571721E+02  0.41800000000E+01 0.  1.
        -11    1    4    4    0    0  0.49224360855E+02 -0.55857951907E+02 -0.44201659229E+03  0.44824303269E+03  0.00000000000E+00 0. -1.
         11    1    4    4    0    0 -0.19851413526E+02  0.11107128904E+02 -0.48851432037E+02  0.53887933190E+02  0.00000000000E+00 0.  1.
</event>
<event>
 8    1  0.6443238E-009  0.1026990E+03  0.7561462E-02  0.1274720E+00
          1   -1    0    0  501    0  0.00000000000E+00  0.00000000000E+00  0.43857377341E+03  0.43857377341E+03  0.00000000000E+00 0. -1.
         -1   -1    0    0    0  501 -0.00000000000E+00 -0.00000000000E+00 -0.35376500327E+02  0.35376500327E+02  0.00000000000E+00 0.  1.
         25    2    1    2    0    0 -0.58820694444E+02 -0.14424821032E+02  0.24128394930E+03  0.27844776412E+03  0.12508902269E+03 0.  0.
         23    2    1    2    0    0  0.58820694444E+02  0.14424821032E+02  0.16191332378E+03  0.19550250961E+03  0.91309130385E+02 0.  0.
          5    1    3    3  502    0  0.73385799031E+01  0.19848486943E+02  0.18163538617E+03  0.18291173581E+03  0.41800000000E+01 0.  1.
         -5    1    3    3    0  502 -0.66159274347E+02 -0.34273307975E+02  0.59648563138E+02  0.95536028314E+02  0.41800000000E+01 0.  1.
        -11    1    4    4    0    0 -0.10555771558E+02 -0.26588929482E+02  0.35627286442E+02  0.45691345170E+02  0.00000000000E+00 0. -1.
         11    1    4    4    0    0  0.69376466001E+02  0.41013750514E+02  0.12628603733E+03  0.14981116444E+03  0.00000000000E+00 0.  1.
</event>
<event>
 8    1  0.6443238E-009  0.1117478E+03  0.7561462E-02  0.1257367E+00
          1   -1    0    0  501    0  0.00000000000E+00  0.00000000000E+00  0.27867386903E+02  0.27867386903E+02  0.00000000000E+00 0. -1.
         -1   -1    0    0    0  501 -0.00000000000E+00 -0.00000000000E+00 -0.55689620677E+03  0.55689620677E+03  0.00000000000E+00 0.  1.
         25    2    1    2    0    0 -0.37075227309E+02 -0.26514292153E+02 -0.39829178057E+03  0.41995421119E+03  0.12509043472E+03 0.  0.
         23    2    1    2    0    0  0.37075227309E+02  0.26514292153E+02 -0.13073703930E+03  0.16480938248E+03  0.89400105938E+02 0.  0.
          5    1    3    3  502    0 -0.47910454835E+02 -0.71591687598E+02 -0.27271327364E+03  0.28602584400E+03  0.41800000000E+01 0. -1.
         -5    1    3    3    0  502  0.10835227526E+02  0.45077395446E+02 -0.12557850692E+03  0.13392836719E+03  0.41800000000E+01 0. -1.
        -11    1    4    4    0    0  0.30027420148E+01  0.49505888855E+02 -0.10549856372E+03  0.11657528228E+03  0.00000000000E+00 0.  1.
         11    1    4    4    0    0  0.34072485295E+02 -0.22991596703E+02 -0.25238475575E+02  0.48234100204E+02  0.00000000000E+00 0. -1.
</event>
<event>
 8    1  0.6443238E-009  0.1279935E+03  0.7561462E-02  0.1230464E+00
          2   -1    0    0  501    0  0.00000000000E+00  0.00000000000E+00  0.89564135889E+03  0.89564135889E+03  0.00000000000E+00 0.  1.
         -2   -1    0    0    0  501 -0.00000000000E+00 -0.00000000000E+00 -0.24552084163E+02  0.24552084163E+02  0.00000000000E+00 0. -1.
         25    2    1    2    0    0 -0.64987060553E+02  0.74337481442E+02  0.52121048947E+03  0.54502937727E+03  0.12508904258E+03 0.  0.
         23    2    1    2    0    0  0.64987060553E+02 -0.74337481442E+02  0.34987878526E+03  0.37516406578E+03  0.92647356637E+02 0.  0.
          5    1    3    3  502    0 -0.83413891111E+02  0.92240226434E+02  0.48317130048E+03  0.49893698461E+03  0.41800000000E+01 0. -1.
         -5    1    3    3    0  502  0.18426830558E+02 -0.17902744993E+02  0.38039188985E+02  0.46092392662E+02  0.41800000000E+01 0. -1.
        -11    1    4    4    0    0  0.56393062600E+02 -0.37560305667E+02  0.31975215594E+03  0.32685225301E+03  0.00000000000E+00 0.  1.
         11    1    4    4    0    0  0.85939979526E+01 -0.36777175775E+02  0.30126629321E+02  0.48311812769E+02  0.00000000000E+00 0. -1.
</event>
<event>
 8    1  0.6443238E-009  0.9182611E+02  0.7561462E-02  0.1298489E+00
         -1   -1    0    0    0  501 -0.00000000000E+00  0.00000000000E+00  0.10546040739E+02  0.10546040739E+02  0.00000000000E+00 0.  1.
          1   -1    0    0  501    0  0.00000000000E+00 -0.00000000000E+00 -0.13067910161E+04  0.13067910161E+04  0.00000000000E+00 0. -1.
         25    2    1    2    0    0  0.79967748919E+00 -0.20690890045E+02 -0.94531779618E+03  0.95378281831E+03  0.12508867380E+03 0.  0.
         23    2    1    2    0    0 -0.79967748919E+00  0.20690890045E+02 -0.35092717917E+03  0.36355423852E+03  0.92698688501E+02 0.  0.
          5    1    3    3  502    0  0.13320679398E+02  0.36349572346E+02 -0.71770768842E+03  0.71876319489E+03  0.41800000000E+01 0. -1.
         -5    1    3    3    0  502 -0.12521001908E+02 -0.57040462392E+02 -0.22761010776E+03  0.23501962342E+03  0.41800000000E+01 0. -1.
        -11    1    4    4    0    0  0.37009977317E+02 -0.90036747289E+01 -0.82665576465E+02  0.91018691003E+02  0.00000000000E+00 0. -1.
         11    1    4    4    0    0 -0.37809654807E+02  0.29694564774E+02 -0.26826160271E+03  0.27253554752E+03  0.00000000000E+00 0.  1.
</event>
<event>
 8    1  0.6443238E-009  0.1780632E+03  0.7561462E-02  0.1169691E+00
          3   -1    0    0  501    0  0.00000000000E+00  0.00000000000E+00  0.13095907482E+03  0.13095907482E+03  0.00000000000E+00 0. -1.
         -3   -1    0    0    0  501 -0.00000000000E+00 -0.00000000000E+00 -0.29413815316E+03  0.29413815316E+03  0.00000000000E+00 0.  1.
         25    2    1    2    0    0 -0.93462406522E+02 -0.10662745714E+03  0.19078395110E+01  0.18909196606E+03  0.12508995054E+03 0.  0.
         23    2    1    2    0    0  0.93462406522E+02  0.10662745714E+03 -0.16508691785E+03  0.23600526193E+03  0.91324460926E+02 0.  0.
          5    1    3    3  502    0 -0.46305962707E+02  0.21249426655E+02 -0.10440569594E+02  0.52175264339E+02  0.41800000000E+01 0. -1.
         -5    1    3    3    0  502 -0.47156443815E+02 -0.12787688379E+03  0.12348409104E+02  0.13691670172E+03  0.41800000000E+01 0. -1.
        -11    1    4    4    0    0  0.66719819043E+02  0.88802172228E+01 -0.64750514931E+02  0.93397118237E+02  0.00000000000E+00 0.  1.
         11    1    4    4    0    0  0.26742587479E+02  0.97747239916E+02 -0.10033640292E+03  0.14260814369E+03  0.00000000000E+00 0. -1.
</event>
<event>
 8    1  0.6443238E-009  0.9189201E+02  0.7561462E-02  0.1298334E+00
          2   -1    0    0  501    0  0.00000000000E+00  0.00000000000E+00  0.59495029211E+03  0.59495029211E+03  0.00000000000E+00 0. -1.
         -2   -1    0    0    0  501 -0.00000000000E+00 -0.00000000000E+00 -0.22789352166E+02  0.22789352166E+02  0.00000000000E+00 0.  1.
         25    2    1    2    0    0 -0.46794286420E+01 -0.26734373619E+02  0.21987392596E+03  0.25442161104E+03  0.12509671884E+03 0.  0.
         23    2    1    2    0    0  0.46794286420E+01  0.26734373619E+02  0.35228701398E+03  0.36331803323E+03  0.84600409366E+02 0.  0.
          5    1    3    3  502    0  0.32746624711E+02  0.20009582263E+02  0.17570580078E+03  0.17989643031E+03  0.41800000000E+01 0.  1.
         -5    1    3    3    0  502 -0.37426053353E+02 -0.46743955881E+02  0.44168125183E+02  0.74525180733E+02  0.41800000000E+01 0.  1.
        -11    1    4    4    0    0  0.22715192773E+02  0.50468660399E+02  0.27430675443E+03  0.27983434599E+03  0.00000000000E+00 0. -1.
         11    1    4    4    0    0 -0.18035764131E+02 -0.23734286781E+02  0.77980259547E+02  0.83483687244E+02  0.00000000000E+00 0.  1.
</event>
<event>
 8    1  0.6443238E-009  0.1113167E+03  0.7561462E-02  0.1258151E+00
         -4   -1    0    0    0  501 -0.00000000000E+00  0.00000000000E+00  0.22480706157E+03  0.22480706157E+03  0.00000000000E+00 0.  1.
          4   -1    0    0  501    0  0.00000000000E+00 -0.00000000000E+00 -0.60234165216E+02  0.60234165216E+02  0.00000000000E+00 0. -1.
         25    2    1    2    0    0 -0.25891757768E+02 -0.18838234915E+02  0.58177936644E+02  0.14161315147E+03  0.12507737662E+03 0.  0.
         23    2    1    2    0    0  0.25891757768E+02  0.18838234915E+02  0.10639495971E+03  0.14342807532E+03  0.90699851836E+02 0.  0.
          5    1    3    3  502    0  0.48283502070E+02  0.47309450431E+01  0.91883275754E+01  0.49553770561E+02  0.41800000000E+01 0.  1.
         -5    1    3    3    0  502 -0.74175259838E+02 -0.23569179958E+02  0.48989609069E+02  0.92059380905E+02  0.41800000000E+01 0.  1.
        -11    1    4    4    0    0 -0.32503367354E+02  0.18905629819E+02  0.37332969092E+02  0.52987190050E+02  0.00000000000E+00 0. -1.
         11    1    4    4    0    0  0.58395125122E+02 -0.67394903412E-01  0.69061990614E+02  0.90440885266E+02  0.00000000000E+00 0.  1.
</event>
<event>
 8    1  0.6443238E-009  0.9930728E+02  0.7561462E-02  0.1281759E+00
         -2   -1    0    0    0  501 -0.00000000000E+00  0.00000000000E+00  0.32193444386E+02  0.32193444386E+02  0.00000000000E+00 0. -1.
          2   -1    0    0  501    0  0.00000000000E+00 -0.00000000000E+00 -0.55045198056E+03  0.55045198056E+03  0.00000000000E+00 0.  1.
         25    2    1    2    0    0  0.54792512483E+02  0.41636798488E+02 -0.36412939949E+03  0.39111849669E+03  0.12509043316E+03 0.  0.
         23    2    1    2    0    0 -0.54792512483E+02 -0.41636798488E+02 -0.15412913668E+03  0.19152692825E+03  0.90503762682E+02 0.  0.
          5    1    3    3  502    0 -0.87638257599E+01  0.62122613388E+02 -0.25885273610E+03  0.26637986996E+03  0.41800000000E+01 0. -1.
         -5    1    3    3    0  502  0.63556338243E+02 -0.20485814900E+02 -0.10527666339E+03  0.12473862673E+03  0.41800000000E+01 0. -1.
        -11    1    4    4    0    0 -0.27391959120E+02 -0.19967416553E+02 -0.42173352536E+00  0.33899778869E+02  0.00000000000E+00 0. -1.
         11    1    4    4    0    0 -0.27400553363E+02 -0.21669381936E+02 -0.15370740316E+03  0.15762714939E+03  0.00000000000E+00 0.  1.
</event>
<event>
 8    1  0.6443238E-009  0.1841239E+03  0.7561462E-02  0.1163871E+00
          1   -1    0    0  501    0  0.00000000000E+00  0.00000000000E+00  0.12703820748E+04  0.12703820748E+04  0.00000000000E+00 0. -1.
         -1   -1    0    0    0  501 -0.00000000000E+00 -0.00000000000E+00 -0.27081270038E+02  0.27081270038E+02  0.00000000000E+00 0.  1.
         25    2    1    2    0    0  0.14901725873E+03 -0.64646626752E+00  0.71201887735E+03  0.73812460569E+03  0.12510192049E+03 0.  0.
         23    2    1    2    0    0 -0.14901725873E+03  0.64646626752E+00  0.53128192742E+03  0.55933873915E+03  0.91612102886E+02 0.  0.
          5    1    3    3  502    0  0.10614120770E+03 -0.58508137140E+02  0.40642831481E+03  0.42413512654E+03  0.41800000000E+01 0.  1.
         -5    1    3    3    0  502  0.42876051032E+02  0.57861670872E+02  0.30559056253E+03  0.31398947915E+03  0.41800000000E+01 0.  1.
        -11    1    4    4    0    0 -0.93879039339E+02  0.44970818396E+02  0.30759543589E+03  0.32473158256E+03  0.00000000000E+00 0.  1.
         11    1    4    4    0    0 -0.55138219390E+02 -0.44324352128E+02  0.22368649154E+03  0.23460715659E+03  0.00000000000E+00 0. -1.
</event>
<event>
 8    1  0.6443238E-009  0.1115423E+03  0.7561462E-02  0.1257740E+00
          1   -1    0    0  501    0  0.00000000000E+00  0.00000000000E+00  0.19889984344E+04  0.19889984344E+04  0.00000000000E+00 0. -1.
         -1   -1    0    0    0  501 -0.00000000000E+00 -0.00000000000E+00 -0.10645796980E+02  0.10645796980E+02  0.00000000000E+00 0.  1.
         25    2    1    2    0    0 -0.27515450950E+02  0.38999703695E+02  0.16589611736E+04  0.16643549137E+04  0.12508807415E+03 0.  0.
         23    2    1    2    0    0  0.27515450950E+02 -0.38999703695E+02  0.31939146383E+03  0.33528931770E+03  0.90166193580E+02 0.  0.
          5    1    3    3  502    0  0.32837370863E+02  0.58401571568E+02  0.10326304807E+04  0.10348102331E+04  0.41800000000E+01 0. -1.
         -5    1    3    3    0  502 -0.60352821813E+02 -0.19401867873E+02  0.62633069291E+03  0.62954468059E+03  0.41800000000E+01 0. -1.
        -11    1    4    4    0    0  0.54831437229E+02 -0.17177336022E+02  0.12235580783E+03  0.13517577849E+03  0.00000000000E+00 0.  1.
         11    1    4    4    0    0 -0.27315986279E+02 -0.21822367674E+02  0.19703565600E+03  0.20011353921E+03  0.00000000000E+00 0. -1.
</event>
<event>
 8    1  0.6443238E-009  0.1301513E+03  0.7561462E-02  0.1227231E+00
         -1   -1    0    0    0  501 -0.00000000000E+00  0.00000000000E+00  0.35043343671E+03  0.35043343671E+03  0.00000000000E+00 0.  1.
          1   -1    0    0  501    0  0.00000000000E+00 -0.00000000000E+00 -0.72319527963E+02  0.72319527963E+02  0.00000000000E+00 0. -1.
         25    2    1    2    0    0 -0.26979690720E+02 -0.85926956009E+02  0.24468623109E+03  0.28918195676E+03  0.12507400589E+03 0.  0.
         23    2    1    2    0    0  0.26979690720E+02  0.85926956009E+02  0.33427677655E+02  0.13357100791E+03  0.92803335287E+02 0.  0.
          5    1    3    3  502    0  0.11575588416E+02  0.29358492744E+02  0.40512262441E+02  0.51523112789E+02  0.41800000000E+01 0.  1.
         -5    1    3    3    0  502 -0.38555279136E+02 -0.11528544875E+03  0.20417396865E+03  0.23765884397E+03  0.41800000000E+01 0.  1.
        -11    1    4    4    0    0  0.37499100077E+02  0.88403788323E+02 -0.24922877913E+01  0.96060521521E+02  0.00000000000E+00 0. -1.
         11    1    4    4    0    0 -0.10519409357E+02 -0.24768323137E+01  0.35919965446E+02  0.37510486389E+02  0.00000000000E+00 0.  1.
</event>
<event>
 8    1  0.6443238E-009  0.5593038E+02  0.7561462E-02  0.1415750E+00
          2   -1    0    0  501    0  0.00000000000E+00  0.00000000000E+00  0.25228968286E+03  0.25228968286E+03  0.00000000000E+00 0. -1.
         -2   -1    0    0    0  501 -0.00000000000E+00 -0.00000000000E+00 -0.56673899190E+02  0.56673899190E+02  0.00000000000E+00 0.  1.
         25    2    1    2    0    0 -0.17859707578E+02  0.22183851664E+02  0.81767751136E+02  0.15213478814E+03  0.12509171118E+03 0.  0.
         23    2    1    2    0    0  0.17859707578E+02 -0.22183851664E+02  0.11384803254E+03  0.15682879391E+03  0.10403270476E+03 0.  0.
          5    1    3    3  502    0  0.62004767924E+01 -0.61239823623E+01 -0.31451241582E+02  0.32902918860E+02  0.41800000000E+01 0.  1.
         -5    1    3    3    0  502 -0.24060184370E+02  0.28307834027E+02  0.11321899272E+03  0.11923186928E+03  0.41800000000E+01 0.  1.
        -11    1    4    4    0    0  0.14756908341E+02  0.18692543990E+02 -0.10404039781E+02  0.25988874319E+02  0.00000000000E+00 0.  1.
         11    1    4    4    0    0  0.31027992367E+01 -0.40876395655E+02  0.12425207232E+03  0.13083991960E+03  0.00000000000E+00 0. -1.
</event>
<event>
 8    1  0.6443238E-009  0.7729063E+02  0.7561462E-02  0.1336921E+00
          1   -1    0    0  501    0  0.00000000000E+00  0.00000000000E+00  0.64744142966E+03  0.64744142966E+03  0.00000000000E+00 0. -1.
         -1   -1    0    0    0  501 -0.00000000000E+00 -0.00000000000E+00 -0.25611653163E+02  0.25611653163E+02  0.00000000000E+00 0.  1.
         25    2    1    2    0    0 -0.32944363617E+02  0.26205467410E+01  0.24069415449E+03  0.27327220708E+03  0.12510725317E+03 0.  0.
         23    2    1    2    0    0  0.32944363617E+02 -0.26205467410E+01  0.38113562200E+03  0.39978087574E+03  0.11605252211E+03 0.  0.
          5    1    3    3  502    0 -0.33612293334E+02  0.48303129480E+01  0.17271103037E+01  0.34257458989E+02  0.41800000000E+01 0. -1.
         -5    1    3    3    0  502  0.66792971731E+00 -0.22097662069E+01  0.23896704419E+03  0.23901474809E+03  0.41800000000E+01 0. -1.
        -11    1    4    4    0    0  0.72129745282E+02 -0.16551168390E+02  0.29485792116E+03  0.30400301808E+03  0.00000000000E+00 0. -1.
         11    1    4    4    0    0 -0.39185381665E+02  0.13930621649E+02  0.86277700839E+02  0.95777857659E+02  0.00000000000E+00 0.  1.
</event>
<event>
 8    1  0.6443238E-009  0.1373483E+03  0.7561462E-02  0.1216942E+00
          1   -1    0    0  501    0  0.00000000000E+00  0.00000000000E+00  0.87579161924E+02  0.87579161924E+02  0.00000000000E+00 0. -1.
         -1   -1    0    0    0  501 -0.00000000000E+00 -0.00000000000E+00 -0.25619581746E+03  0.25619581746E+03  0.00000000000E+00 0.  1.
         25    2    1    2    0    0 -0.49223073944E+01 -0.10252072518E+03 -0.88317072587E+02  0.18434158149E+03  0.12508870914E+03 0.  0.
         23    2    1    2    0    0  0.49223073944E+01  0.10252072518E+03 -0.80299582950E+02  0.15943339790E+03  0.91849099844E+02 0.  0.
          5    1    3    3  502    0  0.35295012962E+02 -0.25735184087E+01  0.11468879526E+02  0.37434857213E+02  0.41800000000E+01 0. -1.
         -5    1    3    3    0  502 -0.40217320356E+02 -0.99947206769E+02 -0.99785952113E+02  0.14690672427E+03  0.41800000000E+01 0. -1.
        -11    1    4    4    0    0  0.41848036171E+02  0.72265342196E+02 -0.73436897670E+02  0.11120483692E+03  0.00000000000E+00 0.  1.
         11    1    4    4    0    0 -0.36925728777E+02  0.30255382981E+02 -0.68626852796E+01  0.48228560981E+02  0.00000000000E+00 0. -1.
</event>
<event>
 8    1  0.6443238E-009  0.3761008E+03  0.7561462E-02  0.1052384E+00
          1   -1    0    0  501    0  0.00000000000E+00  0.00000000000E+00  0.29531449010E+03  0.29531449010E+03  0.00000000000E+00 0. -1.
         -1   -1    0    0    0  501 -0.00000000000E+00 -0.00000000000E+00 -0.53582473254E+03  0.53582473254E+03  0.00000000000E+00 0.  1.
         25    2    1    2    0    0 -0.80970218964E+02  0.36551867540E+03 -0.20050751570E+03  0.44273429681E+03  0.12510122018E+03 0.  0.
         23    2    1    2    0    0  0.80970218964E+02 -0.36551867540E+03 -0.40002726739E+02  0.38840492582E+03  0.95383907607E+02 0.  0.
          5    1    3    3  502    0 -0.85842984135E+02  0.35258132449E+03 -0.21537807023E+03  0.42200449504E+03  0.41800000000E+01 0.  1.
         -5    1    3    3    0  502  0.48727651707E+01  0.12937350917E+02  0.14870554531E+02  0.20729801765E+02  0.41800000000E+01 0.  1.
        -11    1    4    4    0    0  0.44841111998E+02 -0.15914938118E+03 -0.64476235556E+02  0.17747235223E+03  0.00000000000E+00 0.  1.
         11    1    4    4    0    0  0.36129106966E+02 -0.20636929423E+03  0.24473508817E+02  0.21093257360E+03  0.00000000000E+00 0. -1.
</event>
<event>
 8    1  0.6443238E-009  0.1182424E+03  0.7561462E-02  0.1246025E+00
          2   -1    0    0  501    0  0.00000000000E+00  0.00000000000E+00  0.50417844731E+03  0.50417844731E+03  0.00000000000E+00 0. -1.
         -2   -1    0    0    0  501 -0.00000000000E+00 -0.00000000000E+00 -0.38024790068E+02  0.38024790068E+02  0.00000000000E+00 0.  1.
         25    2    1    2    0    0  0.25486812236E+02 -0.83720097208E+02  0.26214308371E+03  0.30335417840E+03  0.12508448722E+03 0.  0.
         23    2    1    2    0    0 -0.25486812236E+02  0.83720097208E+02  0.20401057353E+03  0.23884905897E+03  0.88147187052E+02 0.  0.
          5    1    3    3  502    0  0.47856139340E+01 -0.99417744466E+02  0.10779396883E+03  0.14677807102E+03  0.41800000000E+01 0.  1.
         -5    1    3    3    0  502  0.20701198302E+02  0.15697647258E+02  0.15434911487E+03  0.15657610738E+03  0.41800000000E+01 0.  1.
        -11    1    4    4    0    0 -0.45063509750E+02  0.32057408843E+02  0.47596182782E+02  0.72964333672E+02  0.00000000000E+00 0.  1.
         11    1    4    4    0    0  0.19576697514E+02  0.51662688365E+02  0.15641439075E+03  0.16588472530E+03  0.00000000000E+00 0. -1.
</event>
<event>
 8    1  0.6443238E-009  0.9395173E+02  0.7561462E-02  0.1293555E+00
         -2   -1    0    0    0  501 -0.00000000000E+00  0.00000000000E+00  0.92920122578E+02  0.92920122578E+02  0.00000000000E+00 0.  1.
          2   -1    0    0  501    0  0.00000000000E+00 -0.00000000000E+00 -0.18243870137E+03  0.18243870137E+03  0.00000000000E+00 0. -1.
         25    2    1    2    0    0 -0.19006608609E+02  0.26227555369E+02 -0.11831263637E+03  0.17519846680E+03  0.12508991571E+03 0.  0.
         23    2    1    2    0    0  0.19006608609E+02 -0.26227555369E+02  0.28794057573E+02  0.10016035715E+03  0.90298746183E+02 0.  0.
          5    1    3    3  502    0  0.15119980083E+02 -0.46241391833E+02 -0.40396307279E+02  0.63373607741E+02  0.41800000000E+01 0. -1.
         -5    1    3    3    0  502 -0.34126588692E+02  0.72468947201E+02 -0.77916329088E+02  0.11182485906E+03  0.41800000000E+01 0. -1.
        -11    1    4    4    0    0  0.24313168566E+01 -0.38287118252E+02 -0.22810797966E+02  0.44633476557E+02  0.00000000000E+00 0. -1.
         11    1    4    4    0    0  0.16575291752E+02  0.12059562883E+02  0.51604855539E+02  0.55526880597E+02  0.00000000000E+00 0.  1.
</event>
<event>
 8    1  0.6443238E-009  0.1255218E+03  0.7561462E-02  0.1234256E+00
         -2   -1    0    0    0  501 -0.00000000000E+00  0.00000000000E+00  0.15750764581E+03  0.15750764581E+03  0.00000000000E+00 0.  1.
          2   -1    0    0  501    0  0.00000000000E+00 -0.00000000000E+00 -0.37343777072E+03  0.37343777072E+03  0.00000000000E+00 0. -1.
         25    2    1    2    0    0  0.79446202873E+02 -0.68675487546E+02  0.96274574031E+02  0.18958908585E+03  0.12508879298E+03 0.  0.
         23    2    1    2    0    0 -0.79446202873E+02  0.68675487546E+02 -0.31220469894E+03  0.34135633068E+03  0.89578729122E+02 0.  0.
          5    1    3    3  502    0  0.68709345891E+02 -0.87878313011E+02  0.24343413112E+02  0.11425255477E+03  0.41800000000E+01 0. -1.
         -5    1    3    3    0  502  0.10736856982E+02  0.19202825464E+02  0.71931160918E+02  0.75336531077E+02  0.41800000000E+01 0. -1.
        -11    1    4    4    0    0 -0.48553655742E+01  0.34731515900E+02 -0.19628843102E+03  0.19939659206E+03  0.00000000000E+00 0. -1.
         11    1    4    4    0    0 -0.74590837298E+02  0.33943971647E+02 -0.11591626792E+03  0.14195973862E+03  0.00000000000E+00 0.  1.
</event>
<event>
 8    1  0.6443238E-009  0.8877936E+02  0.7561462E-02  0.1305835E+00
         -2   -1    0    0    0  501 -0.00000000000E+00  0.00000000000E+00  0.75059374513E+02  0.75059374513E+02  0.00000000000E+00 0.  1.
          2   -1    0    0  501    0  0.00000000000E+00 -0.00000000000E+00 -0.26221007523E+03  0.26221007523E+03  0.00000000000E+00 0. -1.
         25    2    1    2    0    0 -0.20075639653E+02 -0.70406272190E+02 -0.16174130477E+03  0.21718248808E+03  0.12509160239E+03 0.  0.
         23    2    1    2    0    0  0.20075639653E+02  0.70406272190E+02 -0.25409395950E+02  0.12008696167E+03  0.91734216564E+02 0.  0.
          5    1    3    3  502    0  0.43126832362E+00  0.11284695024E+02 -0.12435626218E+03  0.12493791529E+03  0.41800000000E+01 0. -1.
         -5    1    3    3    0  502 -0.20506907976E+02 -0.81690967214E+02 -0.37385042590E+02  0.92244572786E+02  0.41800000000E+01 0. -1.
        -11    1    4    4    0    0  0.27543441416E+02  0.32724086764E+02 -0.56361465567E+02  0.70753952684E+02  0.00000000000E+00 0. -1.
         11    1    4    4    0    0 -0.74678017637E+01  0.37682185426E+02  0.30952069617E+02  0.49333008982E+02  0.00000000000E+00 0.  1.
</event>
<event>
 8    1  0.6443238E-009  0.1495515E+03  0.7561462E-02  0.1201025E+00
         -1   -1    0    0    0  501 -0.00000000000E+00  0.00000000000E+00  0.19957618422E+02  0.19957618422E+02  0.00000000000E+00 0.  1.
          1   -1    0    0  501    0  0.00000000000E+00 -0.00000000000E+00 -0.16651192906E+04  0.16651192906E+04  0.00000000000E+00 0. -1.
         25    2    1    2    0    0  0.11483148783E+03  0.22557632124E+02 -0.12730675596E+04  0.12845399744E+04  0.12508723845E+03 0.  0.
         23    2    1    2    0    0 -0.11483148783E+03 -0.22557632124E+02 -0.37209411253E+03  0.40053693455E+03  0.90998296665E+02 0.  0.
          5    1    3    3  502    0  0.81702986658E+02 -0.46699539626E+02 -0.73228314031E+03  0.73831720488E+03  0.41800000000E+01 0. -1.
         -5    1    3    3    0  502  0.33128501168E+02  0.69257171749E+02 -0.54078441929E+03  0.54622276955E+03  0.41800000000E+01 0. -1.
        -11    1    4    4    0    0 -0.15867746106E+02 -0.24317868691E+02 -0.21206651271E+02  0.35956448133E+02  0.00000000000E+00 0.  1.
         11    1    4    4    0    0 -0.98963741719E+02  0.17602365674E+01 -0.35088746126E+03  0.36458048642E+03  0.00000000000E+00 0. -1.
</event>
<event>
 8    1  0.6443238E-009  0.9529784E+02  0.7561462E-02  0.1290507E+00
          2   -1    0    0  501    0  0.00000000000E+00  0.00000000000E+00  0.14954980060E+03  0.14954980060E+03  0.00000000000E+00 0. -1.
         -2   -1    0    0    0  501 -0.00000000000E+00 -0.00000000000E+00 -0.90549829451E+02  0.90549829451E+02  0.00000000000E+00 0.  1.
         25    2    1    2    0    0  0.17651945751E+02  0.12891168633E+02 -0.14531151984E-01  0.12698764471E+03  0.12509231903E+03 0.  0.
         23    2    1    2    0    0 -0.17651945751E+02 -0.12891168633E+02  0.59014502302E+02  0.11311198535E+03  0.93988490410E+02 0.  0.
          5    1    3    3  502    0 -0.49496038634E+02 -0.15683131396E+02 -0.10523057623E+02  0.53141561819E+02  0.41800000000E+01 0. -1.
         -5    1    3    3    0  502  0.67147984385E+02  0.28574300029E+02  0.10508526471E+02  0.73846082887E+02  0.41800000000E+01 0. -1.
        -11    1    4    4    0    0  0.13765766635E+02 -0.27508191422E+02 -0.12844630398E+02  0.33334388496E+02  0.00000000000E+00 0.  1.
         11    1    4    4    0    0 -0.31417712386E+02  0.14617022789E+02  0.71859132700E+02  0.79777596850E+02  0.00000000000E+00 0. -1.
</event>
<event>
 8    1  0.6443238E-009  0.1507646E+03  0.7561462E-02  0.1199537E+00
         -2   -1    0    0    0  501 -0.00000000000E+00  0.00000000000E+00  0.14031626177E+03  0.14031626177E+03  0.00000000000E+00 0.  1.
          2   -1    0    0  501    0  0.00000000000E+00 -0.00000000000E+00 -0.25783731046E+03  0.25783731046E+03  0.00000000000E+00 0. -1.
         25    2    1    2    0    0  0.12623846468E+03  0.34378839205E+02  0.28245655164E+02  0.18320143695E+03  0.12508754901E+03 0.  0.
         23    2    1    2    0    0 -0.12623846468E+03 -0.34378839205E+02 -0.14576670386E+03  0.21495213527E+03  0.88534930709E+02 0.  0.
          5    1    3    3  502    0  0.45372987138E+02  0.50952979372E+02  0.63542729507E+02  0.93327728687E+02  0.41800000000E+01 0. -1.
         -5    1    3    3    0  502  0.80865477540E+02 -0.16574140167E+02 -0.35297074343E+02  0.89873708265E+02  0.41800000000E+01 0. -1.
        -11    1    4    4    0    0 -0.13335517840E+02  0.20916126790E+02 -0.53625634862E+02  0.59084931330E+02  0.00000000000E+00 0. -1.
         11    1    4    4    0    0 -0.11290294684E+03 -0.55294965996E+02 -0.92141068994E+02  0.15586720394E+03  0.00000000000E+00 0.  1.
</event>
<event>
 8    1  0.6443238E-009  0.1504606E+03  0.7561462E-02  0.1199908E+00
         -1   -1    0    0    0  501 -0.00000000000E+00  0.00000000000E+00  0.20322687317E+03  0.20322687317E+03  0.00000000000E+00 0.  1.
          1   -1    0    0  501    0  0.00000000000E+00 -0.00000000000E+00 -0.14300745007E+03  0.14300745007E+03  0.00000000000E+00 0. -1.
         25    2    1    2    0    0  0.11404164282E+03 -0.27603651629E+01  0.10304313945E+03  0.19818965055E+03  0.12509249811E+03 0.  0.
         23    2    1    2    0    0 -0.11404164282E+03  0.27603651629E+01 -0.42823716351E+02  0.14804467269E+03  0.84084710356E+02 0.  0.
          5    1    3    3  502    0  0.12021001717E+03  0.37508992043E+02  0.62822326344E+02  0.14078881276E+03  0.41800000000E+01 0.  1.
         -5    1    3    3    0  502 -0.61683743442E+01 -0.40269357206E+02  0.40220813105E+02  0.57400837787E+02  0.41800000000E+01 0.  1.
        -11    1    4    4    0    0 -0.69661942458E+02  0.36104790977E+02 -0.87602288379E+00  0.78467251606E+02  0.00000000000E+00 0.  1.
         11    1    4    4    0    0 -0.44379700367E+02 -0.33344425814E+02 -0.41947693467E+02  0.69577421084E+02  0.00000000000E+00 0. -1.
</event>
<event>
 8    1  0.6443238E-009  0.1040197E+03  0.7561462E-02  0.1272063E+00
         -2   -1    0    0    0  501 -0.00000000000E+00  0.00000000000E+00  0.33157709774E+02  0.33157709774E+02  0.00000000000E+00 0.  1.
          2   -1    0    0  501    0  0.00000000000E+00 -0.00000000000E+00 -0.36530352020E+03  0.36530352020E+03  0.00000000000E+00 0. -1.
         25    2    1    2    0    0 -0.20067473182E+02 -0.30477790948E+01 -0.20448917109E+03  0.24057439981E+03  0.12509287876E+03 0.  0.
         23    2    1    2    0    0  0.20067473182E+02  0.30477790948E+01 -0.12765663934E+03  0.15788683016E+03  0.90664442494E+02 0.  0.
          5    1    3    3  502    0  0.47380327913E+02 -0.10027519121E+02 -0.13459278422E+03  0.14310183988E+03  0.41800000000E+01 0. -1.
         -5    1    3    3    0  502 -0.67447801095E+02  0.69797400263E+01 -0.69896386870E+02  0.97472559938E+02  0.41800000000E+01 0. -1.
        -11    1    4    4    0    0  0.85895664058E+01  0.46122329230E+02 -0.79134800493E+02  0.91996557292E+02  0.00000000000E+00 0.  1.
         11    1    4    4    0    0  0.11477906776E+02 -0.43074550135E+02 -0.48521838844E+02  0.65890272864E+02  0.00000000000E+00 0. -1.
</event>
<event>
 8    1  0.6443238E-009  0.1830320E+03  0.7561462E-02  0.1164901E+00
          2   -1    0    0  501    0  0.00000000000E+00  0.00000000000E+00  0.37000026778E+03  0.37000026778E+03  0.00000000000E+00 0. -1.
         -2   -1    0    0    0  501 -0.00000000000E+00 -0.00000000000E+00 -0.11163131953E+03  0.11163131953E+03  0.00000000000E+00 0.  1.
         25    2    1    2    0    0 -0.16812867293E+03 -0.12661702212E+02  0.17383656696E+03  0.27257355710E+03  0.12509845184E+03 0.  0.
         23    2    1    2    0    0  0.16812867293E+03  0.12661702212E+02  0.84532381278E+02  0.20905803021E+03  0.90177420375E+02 0.  0.
          5    1    3    3  502    0 -0.53898865088E+02  0.30567392385E+02  0.25451366371E+01  0.62156280902E+02  0.41800000000E+01 0. -1.
         -5    1    3    3    0  502 -0.11422980784E+03 -0.43229094597E+02  0.17129143033E+03  0.21041727620E+03  0.41800000000E+01 0. -1.
        -11    1    4    4    0    0  0.94264276633E+02 -0.26810266713E+02  0.12890944024E+02  0.98846955887E+02  0.00000000000E+00 0.  1.
         11    1    4    4    0    0  0.73864396300E+02  0.39471968924E+02  0.71641437253E+02  0.11021107432E+03  0.00000000000E+00 0. -1.
</event>
<event>
 8    1  0.6443238E-009  0.9845400E+02  0.7561462E-02  0.1283581E+00
          1   -1    0    0  501    0  0.00000000000E+00  0.00000000000E+00  0.32852593888E+03  0.32852593888E+03  0.00000000000E+00 0. -1.
         -1   -1    0    0    0  501 -0.00000000000E+00 -0.00000000000E+00 -0.50642602836E+02  0.50642602836E+02  0.00000000000E+00 0.  1.
         25    2    1    2    0    0 -0.54281786618E+02 -0.40857096968E+02  0.12027765825E+03  0.18636266864E+03  0.12509402246E+03 0.  0.
         23    2    1    2    0    0  0.54281786618E+02  0.40857096968E+02  0.15760567780E+03  0.19280587308E+03  0.87856361701E+02 0.  0.
          5    1    3    3  502    0 -0.25522994151E+02  0.10947260186E+02  0.12371663898E+03  0.12686427746E+03  0.41800000000E+01 0.  1.
         -5    1    3    3    0  502 -0.28758792467E+02 -0.51804357154E+02 -0.34389807227E+01  0.59498391177E+02  0.41800000000E+01 0.  1.
        -11    1    4    4    0    0 -0.11001821128E+02  0.42720488239E+02  0.47800054271E+02  0.65045563814E+02  0.00000000000E+00 0. -1.
         11    1    4    4    0    0  0.65283607746E+02 -0.18633912714E+01  0.10980562352E+03  0.12776030927E+03  0.00000000000E+00 0.  1.
</event>
<event>
 8    1  0.6443238E-009  0.1016075E+03  0.7561462E-02  0.1276951E+00
         -1   -1    0    0    0  501 -0.00000000000E+00  0.00000000000E+00  0.60862756499E+02  0.60862756499E+02  0.00000000000E+00 0.  1.
          1   -1    0    0  501    0  0.00000000000E+00 -0.00000000000E+00 -0.22293157843E+03  0.22293157843E+03  0.00000000000E+00 0. -1.
         25    2    1    2    0    0  0.10479431432E+02  0.39892752449E+02 -0.11201783021E+03  0.17290595966E+03  0.12508887408E+03 0.  0.
         23    2    1    2    0    0 -0.10479431432E+02 -0.39892752449E+02 -0.50050991719E+02  0.11088837527E+03  0.89943759192E+02 0.  0.
          5    1    3    3  502    0  0.27970048123E+02 -0.38039213328E+02 -0.21300513522E+02  0.51966235374E+02  0.41800000000E+01 0. -1.
         -5    1    3    3    0  502 -0.17490616691E+02  0.77931965777E+02 -0.90717316691E+02  0.12093972428E+03  0.41800000000E+01 0. -1.
        -11    1    4    4    0    0 -0.54740574040E+01  0.17442681207E+02  0.15276975529E+02  0.23824323987E+02  0.00000000000E+00 0.  1.
         11    1    4    4    0    0 -0.50053740282E+01 -0.57335433655E+02 -0.65327967248E+02  0.87064051286E+02  0.00000000000E+00 0. -1.
</event>
<event>
 8    1  0.6443238E-009  0.9219788E+02  0.7561462E-02  0.1297615E+00
         -1   -1    0    0    0  501 -0.00000000000E+00  0.00000000000E+00  0.11432459798E+02  0.11432459798E+02  0.00000000000E+00 0.  1.
          1   -1    0    0  501    0  0.00000000000E+00 -0.00000000000E+00 -0.16454196777E+04  0.16454196777E+04  0.00000000000E+00 0. -1.
         25    2    1    2    0    0 -0.25422554063E+02  0.40407989599E+02 -0.13107167078E+04  0.13175375399E+04  0.12509104342E+03 0.  0.
         23    2    1    2    0    0  0.25422554063E+02 -0.40407989599E+02 -0.32327051014E+03  0.33931459760E+03  0.91386331270E+02 0.  0.
          5    1    3    3  502    0  0.18748560780E+02 -0.35818195815E+01 -0.33416198965E+02  0.38709852958E+02  0.41800000000E+01 0. -1.
         -5    1    3    3    0  502 -0.44171114842E+02  0.43989809180E+02 -0.12773005088E+04  0.12788276870E+04  0.41800000000E+01 0. -1.
        -11    1    4    4    0    0  0.54382630145E+01 -0.68050060960E+02 -0.23379658143E+03  0.24355949374E+03  0.00000000000E+00 0. -1.
         11    1    4    4    0    0  0.19984291048E+02  0.27642071361E+02 -0.89473928708E+02  0.95755103865E+02  0.00000000000E+00 0.  1.
</event>
<event>
 8    1  0.6443238E-009  0.1184081E+03  0.7561462E-02  0.1245747E+00
          2   -1    0    0  501    0  0.00000000000E+00  0.00000000000E+00  0.26671730352E+03  0.26671730352E+03  0.00000000000E+00 0.  1.
         -2   -1    0    0    0  501 -0.00000000000E+00 -0.00000000000E+00 -0.84306746923E+02  0.84306746923E+02  0.00000000000E+00 0. -1.
         25    2    1    2    0    0  0.57951268033E+02 -0.12945841633E+02  0.19688971641E+03  0.24069871500E+03  0.12507744278E+03 0.  0.
         23    2    1    2    0    0 -0.57951268033E+02  0.12945841633E+02 -0.14479159817E+02  0.11032533544E+03  0.91848186092E+02 0.  0.
          5    1    3    3  502    0 -0.32756497015E+02 -0.29572692292E+02  0.46555749151E+02  0.64284075828E+02  0.41800000000E+01 0.  1.
         -5    1    3    3    0  502  0.90707765048E+02  0.16626850659E+02  0.15033396726E+03  0.17641463917E+03  0.41800000000E+01 0.  1.
        -11    1    4    4    0    0 -0.78641601154E+02  0.10515257475E+02 -0.29493547297E+02  0.84645976891E+02  0.00000000000E+00 0. -1.
         11    1    4    4    0    0  0.20690333120E+02  0.24305841586E+01  0.15014387480E+02  0.25679358547E+02  0.00000000000E+00 0.  1.
</event>
<event>
 8    1  0.6443238E-009  0.8822671E+02  0.7561462E-02  0.1307204E+00
         -1   -1    0    0    0  501 -0.00000000000E+00  0.00000000000E+00  0.80744706422E+02  0.80744706422E+02  0.00000000000E+00 0.  1.
          1   -1    0    0  501    0  0.00000000000E+00 -0.00000000000E+00 -0.23207847176E+03  0.23207847176E+03  0.00000000000E+00 0. -1.
         25    2    1    2    0    0 -0.68381424093E+02  0.27114246188E+02 -0.35063071623E+02  0.14929017199E+03  0.12508770904E+03 0.  0.
         23    2    1    2    0    0  0.68381424093E+02 -0.27114246188E+02 -0.11627069372E+03  0.16353300620E+03  0.88390997230E+02 0.  0.
          5    1    3    3  502    0 -0.19087512456E+02 -0.10230496724E+02 -0.73242510594E+02  0.76491397903E+02  0.41800000000E+01 0.  1.
         -5    1    3    3    0  502 -0.49293911637E+02  0.37344742913E+02  0.38179438972E+02  0.72798774082E+02  0.41800000000E+01 0.  1.
        -11    1    4    4    0    0  0.67313353338E+00 -0.24651323436E+02 -0.85745144344E+02  0.89220909178E+02  0.00000000000E+00 0. -1.
         11    1    4    4    0    0  0.67708290560E+02 -0.24629227527E+01 -0.30525549373E+02  0.74312097020E+02  0.00000000000E+00 0.  1.
</event>
<event>
 8    1  0.6443238E-009  0.1026853E+03  0.7561462E-02  0.1274748E+00
         -3   -1    0    0    0  501 -0.00000000000E+00  0.00000000000E+00  0.40821291868E+02  0.40821291868E+02  0.00000000000E+00 0.  1.
          3   -1    0    0  501    0  0.00000000000E+00 -0.00000000000E+00 -0.50231022255E+03  0.50231022255E+03  0.00000000000E+00 0. -1.
         25    2    1    2    0    0  0.55682654841E+02 -0.74500066872E+02 -0.24329431630E+03  0.28894664328E+03  0.12508884964E+03 0.  0.
         23    2    1    2    0    0 -0.55682654841E+02  0.74500066872E+02 -0.21819461438E+03  0.25418487114E+03  0.91379652857E+02 0.  0.
          5    1    3    3  502    0  0.43101380399E+02 -0.56721186221E+02 -0.25434635564E+03  0.26416767968E+03  0.41800000000E+01 0. -1.
         -5    1    3    3    0  502  0.12581274442E+02 -0.17778880651E+02  0.11052039338E+02  0.24778963605E+02  0.41800000000E+01 0. -1.
        -11    1    4    4    0    0 -0.59496420347E+02  0.29028971513E+02 -0.18838940928E+03  0.19968243476E+03  0.00000000000E+00 0. -1.
         11    1    4    4    0    0  0.38137655056E+01  0.45471095359E+02 -0.29805205102E+02  0.54502436383E+02  0.00000000000E+00 0.  1.
</event>
<event>
 8    1  0.6443238E-009  0.1046467E+03  0.7561462E-02  0.1270817E+00
          1   -1    0    0  501    0  0.00000000000E+00  0.00000000000E+00  0.43745812879E+03  0.43745812879E+03  0.00000000000E+00 0. -1.
         -1   -1    0    0    0  501 -0.00000000000E+00 -0.00000000000E+00 -0.38838137405E+02  0.38838137405E+02  0.00000000000E+00 0.  1.
         25    2    1    2    0    0 -0.10515508508E+02  0.55059921341E+01  0.90931977100E+02  0.15510203681E+03  0.12508847067E+03 0.  0.
         23    2    1    2    0    0  0.10515508508E+02 -0.55059921341E+01  0.30768801429E+03  0.32119422939E+03  0.91394348763E+02 0.  0.
          5    1    3    3  502    0 -0.43866026435E+02  0.47002349277E+02  0.76037767820E+02  0.99662749549E+02  0.41800000000E+01 0.  1.
         -5    1    3    3    0  502  0.33350517926E+02 -0.41496357143E+02  0.14894209280E+02  0.55439287262E+02  0.41800000000E+01 0.  1.
        -11    1    4    4    0    0  0.20585499165E+02  0.39931114132E+02  0.17088412278E+03  0.17669080358E+03  0.00000000000E+00 0.  1.
         11    1    4    4    0    0 -0.10069990657E+02 -0.45437106266E+02  0.13680389151E+03  0.14450342580E+03  0.00000000000E+00 0. -1.
</event>
<event>
 8    1  0.6443238E-009  0.9348020E+02  0.7561462E-02  0.1294636E+00
          1   -1    0    0  501    0  0.00000000000E+00  0.00000000000E+00  0.80684120769E+02  0.80684120769E+02  0.00000000000E+00 0. -1.
         -1   -1    0    0    0  501 -0.00000000000E+00 -0.00000000000E+00 -0.20539290917E+03  0.20539290917E+03  0.00000000000E+00 0.  1.
         25    2    1    2    0    0  0.54531234061E+01 -0.76809405789E+01  0.72642747203E+01  0.12565355770E+03  0.12508922204E+03 0.  0.
         23    2    1    2    0    0 -0.54531234061E+01  0.76809405789E+01 -0.13197306312E+03  0.16042347224E+03  0.90719720310E+02 0.  0.
          5    1    3    3  502    0 -0.76242810485E+01 -0.63633607272E+02  0.18753088018E+02  0.66906773544E+02  0.41800000000E+01 0.  1.
         -5    1    3    3    0  502  0.13077404455E+02  0.55952666693E+02 -0.11488813298E+02  0.58746784153E+02  0.41800000000E+01 0.  1.
        -11    1    4    4    0    0  0.18892707200E+02  0.27750660741E+02 -0.10884495401E+02  0.35291724200E+02  0.00000000000E+00 0.  1.
         11    1    4    4    0    0 -0.24345830606E+02 -0.20069720162E+02 -0.12108856772E+03  0.12513174804E+03  0.00000000000E+00 0. -1.
</event>
<event>
 8    1  0.6443238E-009  0.1779246E+03  0.7561462E-02  0.1169827E+00
         -1   -1    0    0    0  501 -0.00000000000E+00  0.00000000000E+00  0.62613684748E+02  0.62613684748E+02  0.00000000000E+00 0.  1.
          1   -1    0    0  501    0  0.00000000000E+00 -0.00000000000E+00 -0.67381214985E+03  0.67381214985E+03  0.00000000000E+00 0. -1.
         25    2    1    2    0    0 -0.37860115198E+02  0.15939934787E+03 -0.21524421549E+03  0.29802713169E+03  0.12509419851E+03 0.  0.
         23    2    1    2    0    0  0.37860115198E+02 -0.15939934787E+03 -0.39595424961E+03  0.43839870291E+03  0.92585714339E+02 0.  0.
          5    1    3    3  502    0  0.50480802534E+01  0.13787859808E+03 -0.92493725947E+02  0.16615821575E+03  0.41800000000E+01 0. -1.
         -5    1    3    3    0  502 -0.42908195451E+02  0.21520749788E+02 -0.12275048954E+03  0.13186891594E+03  0.41800000000E+01 0. -1.
        -11    1    4    4    0    0  0.46252464291E+02 -0.10707879958E+03 -0.16902290536E+03  0.20536285523E+03  0.00000000000E+00 0.  1.
         11    1    4    4    0    0 -0.83923490932E+01 -0.52320548285E+02 -0.22693134426E+03  0.23303584768E+03  0.00000000000E+00 0. -1.
</event>
<event>
 8    1  0.6443238E-009  0.1591794E+03  0.7561462E-02  0.1189626E+00
         -2   -1    0    0    0  501 -0.00000000000E+00  0.00000000000E+00  0.15360219520E+03  0.15360219520E+03  0.00000000000E+00 0.  1.
          2   -1    0    0  501    0  0.00000000000E+00 -0.00000000000E+00 -0.45391272367E+03  0.45391272367E+03  0.00000000000E+00 0. -1.
         25    2    1    2    0    0 -0.38107927542E+02 -0.12342250010E+03  0.78961943143E+02  0.19638507156E+03  0.12508709045E+03 0.  0.
         23    2    1    2    0    0  0.38107927542E+02  0.12342250010E+03 -0.37927247161E+03  0.41112984731E+03  0.92167325847E+02 0.  0.
          5    1    3    3  502    0  0.44541698106E+02 -0.57208518709E+02  0.21063733964E+02  0.75617000546E+02  0.41800000000E+01 0.  1.
         -5    1    3    3    0  502 -0.82649625648E+02 -0.66213981388E+02  0.57898209179E+02  0.12076807102E+03  0.41800000000E+01 0.  1.
        -11    1    4    4    0    0 -0.71635906454E+00  0.85417635570E+02 -0.12687192675E+03  0.15294826391E+03  0.00000000000E+00 0.  1.
         11    1    4    4    0    0  0.38824286606E+02  0.38004864528E+02 -0.25240054486E+03  0.25818158340E+03  0.00000000000E+00 0. -1.
</event>
<event>
 8    1  0.6443238E-009  0.1628834E+03  0.7561462E-02  0.1185479E+00
         -1   -1    0    0    0  501 -0.00000000000E+00  0.00000000000E+00  0.41496282959E+02  0.41496282959E+02  0.00000000000E+00 0.  1.
          1   -1    0    0  501    0  0.00000000000E+00 -0.00000000000E+00 -0.79661854242E+03  0.79661854242E+03  0.00000000000E+00 0. -1.
         25    2    1    2    0    0 -0.99931547482E+02 -0.77354577181E+02 -0.57098711845E+03  0.59803151780E+03  0.12508142169E+03 0.  0.
         23    2    1    2    0    0  0.99931547482E+02  0.77354577181E+02 -0.18413514100E+03  0.24008330757E+03  0.88114695880E+02 0.  0.
          5    1    3    3  502    0 -0.10529907548E+03 -0.58056676296E+01 -0.35896569362E+03  0.37415964863E+03  0.41800000000E+01 0.  1.
         -5    1    3    3    0  502  0.53675279939E+01 -0.71548909551E+02 -0.21202142484E+03  0.22387186917E+03  0.41800000000E+01 0.  1.
        -11    1    4    4    0    0  0.79150218367E+02  0.12350196847E+02 -0.66623082330E+02  0.10419174405E+03  0.00000000000E+00 0.  1.
         11    1    4    4    0    0  0.20781329115E+02  0.65004380333E+02 -0.11751205867E+03  0.13589156352E+03  0.00000000000E+00 0. -1.
</event>
<event>
 8    1  0.6443238E-009  0.1211150E+03  0.7561462E-02  0.1241269E+00
         -1   -1    0    0    0  501 -0.00000000000E+00  0.00000000000E+00  0.31887822521E+02  0.31887822521E+02  0.00000000000E+00 0.  1.
          1   -1    0    0  501    0  0.00000000000E+00 -0.00000000000E+00 -0.67130671966E+03  0.67130671966E+03  0.00000000000E+00 0. -1.
         25    2    1    2    0    0 -0.23505887102E+02 -0.52155780617E+02 -0.15783272445E+03  0.20935618596E+03  0.12508433759E+03 0.  0.
         23    2    1    2    0    0  0.23505887102E+02  0.52155780617E+02 -0.48158617269E+03  0.49383835622E+03  0.93157544909E+02 0.  0.
          5    1    3    3  502    0 -0.58537543277E+02 -0.73797818702E+02 -0.12472759724E+03  0.15635602941E+03  0.41800000000E+01 0. -1.
         -5    1    3    3    0  502  0.35031656176E+02  0.21642038085E+02 -0.33105127211E+02  0.53000156552E+02  0.41800000000E+01 0. -1.
        -11    1    4    4    0    0  0.52515756062E+02  0.71397194430E+01 -0.18438773705E+03  0.19185337579E+03  0.00000000000E+00 0.  1.
         11    1    4    4    0    0 -0.29009868960E+02  0.45016061174E+02 -0.29719843564E+03  0.30198498043E+03  0.00000000000E+00 0. -1.
</event>
<event>
 8    1  0.6443238E-009  0.1010114E+03  0.7561462E-02  0.1278183E+00
          2   -1    0    0  501    0  0.00000000000E+00  0.00000000000E+00  0.37111793710E+03  0.37111793710E+03  0.00000000000E+00 0. -1.
         -2   -1    0    0    0  501 -0.00000000000E+00 -0.00000000000E+00 -0.32395537437E+02  0.32395537437E+02  0.00000000000E+00 0.  1.
         25    2    1    2    0    0 -0.36297127056E+00  0.10691788509E+02  0.19013602495E+03  0.22784495532E+03  0.12508864693E+03 0.  0.
         23    2    1    2    0    0  0.36297127056E+00 -0.10691788509E+02  0.14858637472E+03  0.17566851922E+03  0.93097109536E+02 0.  0.
          5    1    3    3  502    0  0.49167874637E+02  0.27521483054E+02  0.41181781468E+02  0.69916546330E+02  0.41800000000E+01 0. -1.
         -5    1    3    3    0  502 -0.49530845908E+02 -0.16829694545E+02  0.14895424348E+03  0.15792840899E+03  0.41800000000E+01 0. -1.
        -11    1    4    4    0    0  0.27993960210E+02 -0.42511433992E+02  0.70773317900E+02  0.87176524104E+02  0.00000000000E+00 0.  1.
         11    1    4    4    0    0 -0.27630988940E+02  0.31819645483E+02  0.77813056818E+02  0.88491995117E+02  0.00000000000E+00 0. -1.
</event>
<event>
 8    1  0.6443238E-009  0.1605081E+03  0.7561462E-02  0.1188124E+00
          2   -1    0    0  501    0  0.00000000000E+00  0.00000000000E+00  0.70004154840E+03  0.70004154840E+03  0.00000000000E+00 0. -1.
         -2   -1    0    0    0  501 -0.00000000000E+00 -0.00000000000E+00 -0.59418083512E+02  0.59418083512E+02  0.00000000000E+00 0.  1.
         25    2    1    2    0    0  0.61752093106E+02 -0.13644376855E+03  0.17344816964E+03  0.26107676816E+03  0.12508632357E+03 0.  0.
         23    2    1    2    0    0 -0.61752093106E+02  0.13644376855E+03  0.46717529524E+03  0.49838286374E+03  0.87763884430E+02 0.  0.
          5    1    3    3  502    0  0.76100883162E+01 -0.71446637963E+02  0.15983714000E+03  0.17529380835E+03  0.41800000000E+01 0. -1.
         -5    1    3    3    0  502  0.54142004790E+02 -0.64997130588E+02  0.13611029641E+02  0.85782959818E+02  0.41800000000E+01 0. -1.
        -11    1    4    4    0    0 -0.43889621934E+02  0.23085532306E+02  0.22491522819E+03  0.23031739098E+03  0.00000000000E+00 0. -1.
         11    1    4    4    0    0 -0.17862471172E+02  0.11335823624E+03  0.24226006705E+03  0.26806547276E+03  0.00000000000E+00 0.  1.
</event>
<event>
 8    1  0.6443238E-009  0.1014610E+03  0.7561462E-02  0.1277253E+00
          1   -1    0    0  501    0  0.00000000000E+00  0.00000000000E+00  0.29387024219E+03  0.29387024219E+03  0.00000000000E+00 0. -1.
         -1   -1    0    0    0  501 -0.00000000000E+00 -0.00000000000E+00 -0.54281724254E+02  0.54281724254E+02  0.00000000000E+00 0.  1.
         25    2    1    2    0    0  0.82089929415E+02 -0.20370737315E+02  0.14021786245E+03  0.20606328619E+03  0.12508919024E+03 0.  0.
         23    2    1    2    0    0 -0.82089929415E+02  0.20370737315E+02  0.99370655485E+02  0.14208868025E+03  0.56222259246E+02 0.  0.
          5    1    3    3  502    0  0.75514821344E+02  0.19182697080E+02  0.14580016005E+03  0.16536512081E+03  0.41800000000E+01 0.  1.
         -5    1    3    3    0  502  0.65751080706E+01 -0.39553434394E+02 -0.55822976026E+01  0.40698165377E+02  0.41800000000E+01 0.  1.
        -11    1    4    4    0    0 -0.61557283747E+02  0.14927068536E+02  0.10262528830E+03  0.12059878257E+03  0.00000000000E+00 0. -1.
         11    1    4    4    0    0 -0.20532645668E+02  0.54436687784E+01 -0.32546328160E+01  0.21489897689E+02  0.00000000000E+00 0.  1.
</event>
<event>
 8    1  0.6443238E-009  0.1454045E+03  0.7561462E-02  0.1206236E+00
          2   -1    0    0  501    0  0.00000000000E+00  0.00000000000E+00  0.20303101409E+03  0.20303101409E+03  0.00000000000E+00 0.  1.
         -2   -1    0    0    0  501 -0.00000000000E+00 -0.00000000000E+00 -0.11284235649E+03  0.11284235649E+03  0.00000000000E+00 0. -1.
         25    2    1    2    0    0  0.45302948382E+02 -0.94403766095E+02  0.61247944705E+02  0.17424968450E+03  0.12508882297E+03 0.  0.
         23    2    1    2    0    0 -0.45302948382E+02  0.94403766095E+02  0.28940712891E+02  0.14162368608E+03  0.90858546166E+02 0.  0.
          5    1    3    3  502    0 -0.38476243771E+02 -0.25164422787E+02 -0.57220639335E+01  0.46517565763E+02  0.41800000000E+01 0.  1.
         -5    1    3    3    0  502  0.83779192153E+02 -0.69239343309E+02  0.66970008638E+02  0.12773211874E+03  0.41800000000E+01 0.  1.
        -11    1    4    4    0    0 -0.45178343501E+01  0.94980023010E+02  0.32957888657E+02  0.10063716025E+03  0.00000000000E+00 0.  1.
         11    1    4    4    0    0 -0.40785114032E+02 -0.57625691493E+00 -0.40171757662E+01  0.40986525832E+02  0.00000000000E+00 0. -1.
</event>
<event>
 8    1  0.6443238E-009  0.2544865E+03  0.7561462E-02  0.1110502E+00
         -2   -1    0    0    0  501 -0.00000000000E+00  0.00000000000E+00  0.94204485878E+03  0.94204485878E+03  0.00000000000E+00 0.  1.
          2   -1    0    0  501    0  0.00000000000E+00 -0.00000000000E+00 -0.72936709080E+02  0.72936709080E+02  0.00000000000E+00 0. -1.
         25    2    1    2    0    0  0.11848861209E+03 -0.20102770494E+03  0.36069824162E+03  0.44743888592E+03  0.12508655314E+03 0.  0.
         23    2    1    2    0    0 -0.11848861209E+03  0.20102770494E+03  0.50840990808E+03  0.56754268194E+03  0.95772500471E+02 0.  0.
          5    1    3    3  502    0  0.14506556490E+03 -0.16931875720E+03  0.30974422157E+03  0.38166977199E+03  0.41800000000E+01 0.  1.
         -5    1    3    3    0  502 -0.26576952807E+02 -0.31708947731E+02  0.50954020056E+02  0.65769113926E+02  0.41800000000E+01 0.  1.
        -11    1    4    4    0    0 -0.63444324590E+01  0.76664339096E+02  0.10023287277E+03  0.12634991688E+03  0.00000000000E+00 0.  1.
         11    1    4    4    0    0 -0.11214417963E+03  0.12436336584E+03  0.40817703531E+03  0.44119276506E+03  0.00000000000E+00 0. -1.
</event>
<event>
 8    1  0.6443238E-009  0.1142947E+03  0.7561462E-02  0.1252817E+00
         -2   -1    0    0    0  501 -0.00000000000E+00  0.00000000000E+00  0.21168209298E+02  0.21168209298E+02  0.00000000000E+00 0.  1.
          2   -1    0    0  501    0  0.00000000000E+00 -0.00000000000E+00 -0.11447429755E+04  0.11447429755E+04  0.00000000000E+00 0. -1.
         25    2    1    2    0    0  0.96591066362E+01  0.84579862665E+02 -0.86402430631E+03  0.87717942288E+03  0.12513467349E+03 0.  0.
         23    2    1    2    0    0 -0.96591066362E+01 -0.84579862665E+02 -0.25955045985E+03  0.28873176188E+03  0.93554997736E+02 0.  0.
          5    1    3    3  502    0  0.38811852337E+02 -0.12467452343E+01 -0.51750508500E+03  0.51897678143E+03  0.41800000000E+01 0. -1.
         -5    1    3    3    0  502 -0.29152745701E+02  0.85826607899E+02 -0.34651922131E+03  0.35820264145E+03  0.41800000000E+01 0. -1.
        -11    1    4    4    0    0  0.15004565067E+02 -0.55384102344E+01  0.31168164153E+00  0.15997128062E+02  0.00000000000E+00 0.  1.
         11    1    4    4    0    0 -0.24663671704E+02 -0.79041452430E+02 -0.25986214149E+03  0.27273463382E+03  0.00000000000E+00 0. -1.
</event>
<event>
 8    1  0.6443238E-009  0.1676924E+03  0.7561462E-02  0.1180276E+00
         -2   -1    0    0    0  501 -0.00000000000E+00  0.00000000000E+00  0.17630688940E+03  0.17630688940E+03  0.00000000000E+00 0.  1.
          2   -1    0    0  501    0  0.00000000000E+00 -0.00000000000E+00 -0.18546004448E+03  0.18546004448E+03  0.00000000000E+00 0. -1.
         25    2    1    2    0    0  0.22311788932E+02 -0.14433889748E+03 -0.15468871481E+02  0.19291853869E+03  0.12508694310E+03 0.  0.
         23    2    1    2    0    0 -0.22311788932E+02  0.14433889748E+03  0.63157163942E+01  0.16884839519E+03  0.84488810106E+02 0.  0.
          5    1    3    3  502    0  0.33173124997E+02  0.46746763079E+01 -0.26681532859E+02  0.43031214442E+02  0.41800000000E+01 0. -1.
         -5    1    3    3    0  502 -0.10861336066E+02 -0.14901357379E+03  0.11212661378E+02  0.14988732425E+03  0.41800000000E+01 0. -1.
        -11    1    4    4    0    0  0.11170169694E+02  0.15939620122E+02  0.28299363763E+02  0.34346734488E+02  0.00000000000E+00 0.  1.
         11    1    4    4    0    0 -0.33481958626E+02  0.12839927736E+03 -0.21983647369E+02  0.13450166070E+03  0.00000000000E+00 0. -1.
</event>
<event>
 8    1  0.6443238E-009  0.8919349E+02  0.7561462E-02  0.1304817E+00
          2   -1    0    0  501    0  0.00000000000E+00  0.00000000000E+00  0.64022219328E+02  0.64022219328E+02  0.00000000000E+00 0. -1.
         -2   -1    0    0    0  501 -0.00000000000E+00 -0.00000000000E+00 -0.20015826485E+03  0.20015826485E+03  0.00000000000E+00 0.  1.
         25    2    1    2    0    0  0.68831834932E+01  0.27801297586E+00 -0.81954337539E+02  0.14969959085E+03  0.12508396601E+03 0.  0.
         23    2    1    2    0    0 -0.68831834932E+01 -0.27801297586E+00 -0.54181707983E+02  0.11448089333E+03  0.10061193742E+03 0.  0.
          5    1    3    3  502    0 -0.21572107352E+02  0.49924755259E+02 -0.73765629601E+02  0.91742452081E+02  0.41800000000E+01 0. -1.
         -5    1    3    3    0  502  0.28455290845E+02 -0.49646742283E+02 -0.81887079371E+01  0.57957138767E+02  0.41800000000E+01 0. -1.
        -11    1    4    4    0    0  0.18794478043E+02 -0.24693595097E+02 -0.69320665056E+02  0.75949724473E+02  0.00000000000E+00 0.  1.
         11    1    4    4    0    0 -0.25677661536E+02  0.24415582121E+02  0.15138957073E+02  0.38531168857E+02  0.00000000000E+00 0. -1.
</event>
<event>
 8    1  0.6443238E-009  0.1448177E+03  0.7561462E-02  0.1206989E+00
          2   -1    0    0  501    0  0.00000000000E+00  0.00000000000E+00  0.18917608244E+04  0.18917608244E+04  0.00000000000E+00 0. -1.
         -2   -1    0    0    0  501 -0.00000000000E+00 -0.00000000000E+00 -0.15005327325E+02  0.15005327325E+02  0.00000000000E+00 0.  1.
         25    2    1    2    0    0 -0.11236512463E+03 -0.23953617711E+02  0.13049357022E+04  0.13159420355E+04  0.12508619864E+03 0.  0.
         23    2    1    2    0    0  0.11236512463E+03  0.23953617711E+02  0.57181979495E+03  0.59082411622E+03  0.94316283739E+02 0.  0.
          5    1    3    3  502    0 -0.38718943082E+02 -0.50269528149E+02  0.24503587976E+03  0.25315259584E+03  0.41800000000E+01 0.  1.
         -5    1    3    3    0  502 -0.73646181547E+02  0.26315910437E+02  0.10598998224E+04  0.10627894397E+04  0.41800000000E+01 0.  1.
        -11    1    4    4    0    0  0.44950590012E+02  0.57046679769E+02  0.31395077273E+03  0.32224209364E+03  0.00000000000E+00 0. -1.
         11    1    4    4    0    0  0.67414534617E+02 -0.33093062058E+02  0.25786902221E+03  0.26858202258E+03  0.00000000000E+00 0.  1.
</event>
<event>
 8    1  0.6443238E-009  0.2286771E+03  0.7561462E-02  0.1127574E+00
         -2   -1    0    0    0  501 -0.00000000000E+00  0.00000000000E+00  0.67384712000E+02  0.67384712000E+02  0.00000000000E+00 0.  1.
          2   -1    0    0  501    0  0.00000000000E+00 -0.00000000000E+00 -0.11172777078E+04  0.11172777078E+04  0.00000000000E+00 0. -1.
         25    2    1    2    0    0 -0.19193008472E+03 -0.74724225489E+02 -0.85267384442E+03  0.88606983736E+03  0.12508478890E+03 0.  0.
         23    2    1    2    0    0  0.19193008472E+03  0.74724225489E+02 -0.19721915138E+03  0.29859258245E+03  0.88550941974E+02 0.  0.
          5    1    3    3  502    0 -0.77795402556E+02  0.26639046450E+02 -0.21147595694E+03  0.22693901431E+03  0.41800000000E+01 0.  1.
         -5    1    3    3    0  502 -0.11413468216E+03 -0.10136327194E+03 -0.64119788749E+03  0.65913082305E+03  0.41800000000E+01 0.  1.
        -11    1    4    4    0    0  0.12791918725E+03  0.90120680732E+02 -0.12050267226E+03  0.19749923945E+03  0.00000000000E+00 0.  1.
         11    1    4    4    0    0  0.64010897471E+02 -0.15396455243E+02 -0.76716479119E+02  0.10109334299E+03  0.00000000000E+00 0. -1.
</event>
<event>
 8    1  0.6443238E-009  0.2696865E+03  0.7561462E-02  0.1101459E+00
          2   -1    0    0  501    0  0.00000000000E+00  0.00000000000E+00  0.17133657464E+04  0.17133657464E+04  0.00000000000E+00 0.  1.
         -2   -1    0    0    0  501 -0.00000000000E+00 -0.00000000000E+00 -0.46175321596E+02  0.46175321596E+02  0.00000000000E+00 0. -1.
         25    2    1    2    0    0 -0.24636854339E+03 -0.43297552221E+02  0.10610428348E+04  0.10972835298E+04  0.12508840968E+03 0.  0.
         23    2    1    2    0    0  0.24636854339E+03  0.43297552221E+02  0.60614759005E+03  0.66225753826E+03  0.92725448870E+02 0.  0.
          5    1    3    3  502    0 -0.11613296134E+03  0.34577498406E+02  0.59200526440E+03  0.60429311893E+03  0.41800000000E+01 0.  1.
         -5    1    3    3    0  502 -0.13023558204E+03 -0.77875050627E+02  0.46903757040E+03  0.49299041085E+03  0.41800000000E+01 0.  1.
        -11    1    4    4    0    0  0.19709456962E+03  0.71371565719E+02  0.49220952081E+03  0.53498633827E+03  0.00000000000E+00 0.  1.
         11    1    4    4    0    0  0.49273973763E+02 -0.28074013497E+02  0.11393806924E+03  0.12727119999E+03  0.00000000000E+00 0. -1.
</event>
<event>
 8    1  0.6443238E-009  0.1971932E+03  0.7561462E-02  0.1152129E+00
         -2   -1    0    0    0  501 -0.00000000000E+00  0.00000000000E+00  0.28110848651E+03  0.28110848651E+03  0.00000000000E+00 0.  1.
          2   -1    0    0  501    0  0.00000000000E+00 -0.00000000000E+00 -0.14481775483E+03  0.14481775483E+03  0.00000000000E+00 0. -1.
         25    2    1    2    0    0  0.12735305279E+03  0.10683355582E+03  0.11130298995E+03  0.23594032939E+03  0.12508906729E+03 0.  0.
         23    2    1    2    0    0 -0.12735305279E+03 -0.10683355582E+03  0.24987741734E+02  0.18998591195E+03  0.88532766791E+02 0.  0.
          5    1    3    3  502    0  0.33156429277E+02 -0.27176230423E+02  0.33405390839E+02  0.54509529805E+02  0.41800000000E+01 0. -1.
         -5    1    3    3    0  502  0.94196623516E+02  0.13400978625E+03  0.77897599111E+02  0.18143079959E+03  0.41800000000E+01 0. -1.
        -11    1    4    4    0    0  0.13974049559E+01 -0.44300400871E+02 -0.18388521039E+01  0.44360563962E+02  0.00000000000E+00 0. -1.
         11    1    4    4    0    0 -0.12875045775E+03 -0.62533154953E+02  0.26826593838E+02  0.14562534798E+03  0.00000000000E+00 0.  1.
</event>
