<event>
 7    1  0.2651429E-009  0.9751004E+02  0.7561462E-02  0.1285621E+00
          1   -1    0    0  501    0  0.00000000000E+00  0.00000000000E+00  0.90320564648E+02  0.90320564648E+02  0.00000000000E+00 0. -1.
         -1   -1    0    0    0  501 -0.00000000000E+00 -0.00000000000E+00 -0.15043865155E+03  0.15043865155E+03  0.00000000000E+00 0.  1.
         25    2    1    2    0    0  0.36760861627E+02 -0.35511478641E+02 -0.35550844985E+02  0.13972953526E+03  0.12509218353E+03 0.  0.
          5    1    3    3  502    0  0.61558483925E+02 -0.72358102655E+01 -0.66383691975E+02  0.90917934719E+02  0.41800000000E+01 0. -1.
         -5    1    3    3    0  502 -0.24797622297E+02 -0.28275668376E+02  0.30832846990E+02  0.48811600539E+02  0.41800000000E+01 0. -1.
        -11    1    1    2    0    0 -0.10698133608E+02 -0.26073867953E+02  0.37048590051E+01  0.28425738917E+02  0.00000000000E+00 0. -1.
         11    1    1    2    0    0 -0.26062728019E+02  0.61585346594E+02 -0.28272100927E+02  0.72603942026E+02  0.00000000000E+00 0.  1.
</event>
<event>
 7    1  0.2651429E-009  0.5451342E+02  0.7561462E-02  0.1422414E+00
          1   -1    0    0  501    0  0.00000000000E+00  0.00000000000E+00  0.66458283149E+03  0.66458283149E+03  0.00000000000E+00 0. -1.
         -1   -1    0    0    0  501 -0.00000000000E+00 -0.00000000000E+00 -0.21273950377E+02  0.21273950377E+02  0.00000000000E+00 0.  1.
         25    2    1    2    0    0  0.82986795237E+01 -0.23394846856E+02  0.48916745690E+03  0.50551874586E+03  0.12509282384E+03 0.  0.
          5    1    3    3  502    0 -0.51788543672E+01 -0.16418758501E+02  0.17005637688E+01  0.17797766163E+02  0.41800000000E+01 0. -1.
         -5    1    3    3    0  502  0.13477533891E+02 -0.69760883553E+01  0.48746689314E+03  0.48772097969E+03  0.41800000000E+01 0. -1.
        -11    1    1    2    0    0  0.29369926500E+02  0.23949284802E+02  0.24008169209E+02  0.44861486978E+02  0.00000000000E+00 0.  1.
         11    1    1    2    0    0 -0.37668606024E+02 -0.55443794608E+00  0.13013325500E+03  0.13547654903E+03  0.00000000000E+00 0. -1.
</event>
<event>
 7    1  0.2651429E-009  0.1103530E+03  0.7561462E-02  0.1259918E+00
          1   -1    0    0  501    0  0.00000000000E+00  0.00000000000E+00  0.37870845811E+03  0.37870845811E+03  0.00000000000E+00 0. -1.
         -1   -1    0    0    0  501 -0.00000000000E+00 -0.00000000000E+00 -0.34614055134E+02  0.34614055134E+02  0.00000000000E+00 0.  1.
         25    2    1    2    0    0  0.27896845626E+02  0.19338228045E+02  0.17662043862E+03  0.21907658396E+03  0.12509024439E+03 0.  0.
          5    1    3    3  502    0 -0.43474621211E+02  0.33662416443E+02  0.93114439211E+02  0.10821724520E+03  0.41800000000E+01 0. -1.
         -5    1    3    3    0  502  0.71371466836E+02 -0.14324188398E+02  0.83505999412E+02  0.11085933876E+03  0.41800000000E+01 0. -1.
        -11    1    1    2    0    0  0.19164759679E+02 -0.37572851930E+02  0.44474924604E+02  0.61294584869E+02  0.00000000000E+00 0.  1.
         11    1    1    2    0    0 -0.47061605305E+02  0.18234623885E+02  0.12299903975E+03  0.13295134442E+03  0.00000000000E+00 0. -1.
</event>
<event>
 7    1  0.2651429E-009  0.1126112E+03  0.7561462E-02  0.1255809E+00
         -2   -1    0    0    0  501 -0.00000000000E+00  0.00000000000E+00  0.28527327390E+02  0.28527327390E+02  0.00000000000E+00 0.  1.
          2   -1    0    0  501    0  0.00000000000E+00 -0.00000000000E+00 -0.74416818574E+03  0.74416818574E+03  0.00000000000E+00 0. -1.
         25    2    1    2    0    0 -0.55713280852E+02 -0.54216291691E+02 -0.58410584623E+03  0.60238763794E+03  0.12509136981E+03 0.  0.
          5    1    3    3  502    0 -0.76688467214E+02 -0.11055526610E+01 -0.45093838335E+03  0.45743331889E+03  0.41800000000E+01 0. -1.
         -5    1    3    3    0  502  0.20975186362E+02 -0.53110739030E+02 -0.13316746288E+03  0.14495431906E+03  0.41800000000E+01 0. -1.
        -11    1    1    2    0    0  0.48745470028E+02  0.14532052668E+02 -0.11682004009E+03  0.12741359099E+03  0.00000000000E+00 0. -1.
         11    1    1    2    0    0  0.69678108245E+01  0.39684239023E+02 -0.14714972027E+02  0.42894284192E+02  0.00000000000E+00 0.  1.
</event>
<event>
 7    1  0.2651429E-009  0.1139537E+03  0.7561462E-02  0.1253419E+00
          2   -1    0    0  501    0  0.00000000000E+00  0.00000000000E+00  0.11209302255E+04  0.11209302255E+04  0.00000000000E+00 0. -1.
         -2   -1    0    0    0  501 -0.00000000000E+00 -0.00000000000E+00 -0.15782620146E+02  0.15782620146E+02  0.00000000000E+00 0.  1.
         25    2    1    2    0    0 -0.65994762519E+02 -0.15598783637E+02  0.77686427265E+03  0.78978748292E+03  0.12509012482E+03 0.  0.
          5    1    3    3  502    0 -0.13269739647E+02  0.41011308389E+02  0.10660600495E+03  0.11506661591E+03  0.41800000000E+01 0.  1.
         -5    1    3    3    0  502 -0.52725022873E+02 -0.56610092026E+02  0.67025826770E+03  0.67472086701E+03  0.41800000000E+01 0.  1.
        -11    1    1    2    0    0  0.40787141161E+02 -0.32943839347E+02  0.10944981064E+03  0.12135958340E+03  0.00000000000E+00 0.  1.
         11    1    1    2    0    0  0.25207621358E+02  0.48542622984E+02  0.21883352202E+03  0.22556577928E+03  0.00000000000E+00 0. -1.
</event>
<event>
 7    1  0.2651429E-009  0.1488391E+03  0.7561462E-02  0.1201907E+00
          2   -1    0    0  501    0  0.00000000000E+00  0.00000000000E+00  0.14799989034E+04  0.14799989034E+04  0.00000000000E+00 0. -1.
         -2   -1    0    0    0  501 -0.00000000000E+00 -0.00000000000E+00 -0.15295540081E+02  0.15295540081E+02  0.00000000000E+00 0.  1.
         25    2    1    2    0    0 -0.10319636456E+03 -0.31667417212E+01  0.85394281198E+03  0.86920898625E+03  0.12508564162E+03 0.  0.
          5    1    3    3  502    0  0.19647386995E+02  0.28035189026E+02  0.22261999740E+03  0.22527566953E+03  0.41800000000E+01 0.  1.
         -5    1    3    3    0  502 -0.12284375155E+03 -0.31201930748E+02  0.63132281458E+03  0.64393331672E+03  0.41800000000E+01 0.  1.
        -11    1    1    2    0    0  0.85607135356E+02  0.40802166350E+02  0.38291044340E+03  0.39447915796E+03  0.00000000000E+00 0.  1.
         11    1    1    2    0    0  0.17589229203E+02 -0.37635424629E+02  0.22785010793E+03  0.23160629926E+03  0.00000000000E+00 0. -1.
</event>
<event>
 7    1  0.2651429E-009  0.1531410E+03  0.7561462E-02  0.1196666E+00
         -3   -1    0    0    0  501 -0.00000000000E+00  0.00000000000E+00  0.30330039065E+03  0.30330039065E+03  0.00000000000E+00 0.  1.
          3   -1    0    0  501    0  0.00000000000E+00 -0.00000000000E+00 -0.10316387206E+03  0.10316387206E+03  0.00000000000E+00 0. -1.
         25    2    1    2    0    0  0.25767552529E+02 -0.13370108712E+03  0.76094530749E+02  0.19994834788E+03  0.12509603011E+03 0.  0.
          5    1    3    3  502    0  0.29387974994E+01 -0.10250107645E+03  0.10848708918E+03  0.14933863573E+03  0.41800000000E+01 0.  1.
         -5    1    3    3    0  502  0.22828755030E+02 -0.31200010668E+02 -0.32392558428E+02  0.50609712145E+02  0.41800000000E+01 0.  1.
        -11    1    1    2    0    0 -0.36163259772E+02  0.14498423964E+03  0.10838848275E+03  0.18459760100E+03  0.00000000000E+00 0. -1.
         11    1    1    2    0    0  0.10395707243E+02 -0.11283152523E+02  0.15653505091E+02  0.21918313839E+02  0.00000000000E+00 0.  1.
</event>
<event>
 7    1  0.2651429E-009  0.1106003E+03  0.7561462E-02  0.1259462E+00
          1   -1    0    0  501    0  0.00000000000E+00  0.00000000000E+00  0.70119186392E+03  0.70119186392E+03  0.00000000000E+00 0. -1.
         -1   -1    0    0    0  501 -0.00000000000E+00 -0.00000000000E+00 -0.32670774065E+02  0.32670774065E+02  0.00000000000E+00 0.  1.
         25    2    1    2    0    0  0.98091275689E+02  0.15102348202E+02  0.43241350523E+03  0.46095252213E+03  0.12508320774E+03 0.  0.
          5    1    3    3  502    0  0.88936703168E+02  0.64847430565E+01  0.43768278386E+03  0.44669394528E+03  0.41800000000E+01 0.  1.
         -5    1    3    3    0  502  0.91545725209E+01  0.86176051455E+01 -0.52692786250E+01  0.14258576847E+02  0.41800000000E+01 0.  1.
        -11    1    1    2    0    0 -0.74268447153E+02 -0.39888341774E+02  0.92105138233E+02  0.12486087674E+03  0.00000000000E+00 0.  1.
         11    1    1    2    0    0 -0.23822828535E+02  0.24785993572E+02  0.14400244639E+03  0.14804923911E+03  0.00000000000E+00 0. -1.
</event>
<event>
 7    1  0.2651429E-009  0.1141478E+03  0.7561462E-02  0.1253076E+00
          2   -1    0    0  501    0  0.00000000000E+00  0.00000000000E+00  0.16861131376E+04  0.16861131376E+04  0.00000000000E+00 0. -1.
         -2   -1    0    0    0  501 -0.00000000000E+00 -0.00000000000E+00 -0.19149483309E+02  0.19149483309E+02  0.00000000000E+00 0.  1.
         25    2    1    2    0    0  0.12827747671E+02  0.39730692647E+02  0.15273937108E+04  0.15330753996E+04  0.12508218935E+03 0.  0.
          5    1    3    3  502    0  0.23191202830E+01  0.83086753176E+02  0.80415965394E+03  0.80845470393E+03  0.41800000000E+01 0.  1.
         -5    1    3    3    0  502  0.10508627388E+02 -0.43356060528E+02  0.72323405686E+03  0.72462069570E+03  0.41800000000E+01 0.  1.
        -11    1    1    2    0    0 -0.46140331219E+02 -0.47327298995E+02  0.10046458994E+03  0.12025779487E+03  0.00000000000E+00 0. -1.
         11    1    1    2    0    0  0.33312583548E+02  0.75966063477E+01  0.39105353523E+02  0.51929426386E+02  0.00000000000E+00 0.  1.
</event>
<event>
 7    1  0.2651429E-009  0.1704355E+03  0.7561462E-02  0.1177394E+00
          2   -1    0    0  501    0  0.00000000000E+00  0.00000000000E+00  0.79060191324E+02  0.79060191324E+02  0.00000000000E+00 0. -1.
         -2   -1    0    0    0  501 -0.00000000000E+00 -0.00000000000E+00 -0.37656809841E+03  0.37656809841E+03  0.00000000000E+00 0.  1.
         25    2    1    2    0    0  0.87329309489E+02  0.85837717610E+02 -0.17382423863E+03  0.24669229860E+03  0.12509077580E+03 0.  0.
          5    1    3    3  502    0  0.78773943089E+02 -0.70182627599E+01 -0.10073372078E+03  0.12813799212E+03  0.41800000000E+01 0.  1.
         -5    1    3    3    0  502  0.85553664002E+01  0.92855980370E+02 -0.73090517852E+02  0.11855430648E+03  0.41800000000E+01 0.  1.
        -11    1    1    2    0    0  0.27518289169E+02 -0.29732054397E+02 -0.32221301534E+02  0.51763535138E+02  0.00000000000E+00 0.  1.
         11    1    1    2    0    0 -0.11484759866E+03 -0.56105663213E+02 -0.91462366921E+02  0.15717245600E+03  0.00000000000E+00 0. -1.
</event>
<event>
 7    1  0.2651429E-009  0.1134033E+03  0.7561462E-02  0.1254394E+00
          2   -1    0    0  501    0  0.00000000000E+00  0.00000000000E+00  0.14723624676E+04  0.14723624676E+04  0.00000000000E+00 0. -1.
         -2   -1    0    0    0  501 -0.00000000000E+00 -0.00000000000E+00 -0.19045275853E+02  0.19045275853E+02  0.00000000000E+00 0.  1.
         25    2    1    2    0    0 -0.58123292536E+02  0.40129247764E+02  0.12245198009E+04  0.12329185503E+04  0.12510289782E+03 0.  0.
          5    1    3    3  502    0 -0.13110641387E+02  0.58980954511E+02  0.10474478292E+04  0.10491973452E+04  0.41800000000E+01 0. -1.
         -5    1    3    3    0  502 -0.45012651149E+02 -0.18851706746E+02  0.17707197176E+03  0.18372120507E+03  0.41800000000E+01 0. -1.
        -11    1    1    2    0    0 -0.25080328584E+02 -0.18867466458E+02  0.38207097274E+02  0.49444781874E+02  0.00000000000E+00 0.  1.
         11    1    1    2    0    0  0.83203621120E+02 -0.21261781306E+02  0.19059029356E+03  0.20904441134E+03  0.00000000000E+00 0. -1.
</event>
<event>
 7    1  0.2651429E-009  0.1270991E+03  0.7561462E-02  0.1231825E+00
         -2   -1    0    0    0  501 -0.00000000000E+00  0.00000000000E+00  0.45932284203E+02  0.45932284203E+02  0.00000000000E+00 0.  1.
          2   -1    0    0  501    0  0.00000000000E+00 -0.00000000000E+00 -0.43406920008E+03  0.43406920008E+03  0.00000000000E+00 0. -1.
         25    2    1    2    0    0  0.51178554696E+02  0.54436537901E+02 -0.31111206893E+03  0.34354074984E+03  0.12508775417E+03 0.  0.
          5    1    3    3  502    0  0.81538733808E+02  0.71863174574E+02 -0.21066892808E+03  0.23709017405E+03  0.41800000000E+01 0.  1.
         -5    1    3    3    0  502 -0.30360179112E+02 -0.17426636674E+02 -0.10044314085E+03  0.10645057579E+03  0.41800000000E+01 0.  1.
        -11    1    1    2    0    0 -0.40208319132E+02  0.12686663625E+02 -0.43693020139E+02  0.60718533993E+02  0.00000000000E+00 0.  1.
         11    1    1    2    0    0 -0.10970235564E+02 -0.67123201526E+02 -0.33331826802E+02  0.75742200453E+02  0.00000000000E+00 0. -1.
</event>
<event>
 7    1  0.2651429E-009  0.1658972E+03  0.7561462E-02  0.1182195E+00
          2   -1    0    0  501    0  0.00000000000E+00  0.00000000000E+00  0.14502436447E+04  0.14502436447E+04  0.00000000000E+00 0. -1.
         -2   -1    0    0    0  501 -0.00000000000E+00 -0.00000000000E+00 -0.23635868227E+02  0.23635868227E+02  0.00000000000E+00 0.  1.
         25    2    1    2    0    0 -0.14034693801E+03 -0.24381004659E+02  0.90823483342E+03  0.92780575609E+03  0.12506523091E+03 0.  0.
          5    1    3    3  502    0  0.97745155088E+01  0.28265432770E+02  0.12914831274E+03  0.13263195289E+03  0.41800000000E+01 0.  1.
         -5    1    3    3    0  502 -0.15012145352E+03 -0.52646437429E+02  0.77908652069E+03  0.79517380320E+03  0.41800000000E+01 0.  1.
        -11    1    1    2    0    0  0.41722804073E+02  0.78953879640E+01  0.43508334813E+02  0.60795597941E+02  0.00000000000E+00 0.  1.
         11    1    1    2    0    0  0.98624133934E+02  0.16485616695E+02  0.47486460826E+03  0.48527815892E+03  0.00000000000E+00 0. -1.
</event>
<event>
 7    1  0.2651429E-009  0.1180864E+03  0.7561462E-02  0.1246288E+00
          1   -1    0    0  501    0  0.00000000000E+00  0.00000000000E+00  0.60507105106E+03  0.60507105106E+03  0.00000000000E+00 0. -1.
         -1   -1    0    0    0  501 -0.00000000000E+00 -0.00000000000E+00 -0.33500912929E+02  0.33500912929E+02  0.00000000000E+00 0.  1.
         25    2    1    2    0    0  0.42341279985E+02 -0.77580427488E+02  0.36623180310E+03  0.39697003432E+03  0.12509183757E+03 0.  0.
          5    1    3    3  502    0  0.39147758168E+02 -0.95689342427E+02  0.16435159927E+03  0.19421101361E+03  0.41800000000E+01 0. -1.
         -5    1    3    3    0  502  0.31935218173E+01  0.18108914940E+02  0.20188020383E+03  0.20275902071E+03  0.41800000000E+01 0. -1.
        -11    1    1    2    0    0 -0.26136494764E+02  0.89813724113E+02  0.11125340404E+03  0.14535109669E+03  0.00000000000E+00 0.  1.
         11    1    1    2    0    0 -0.16204785221E+02 -0.12233296625E+02  0.94084930990E+02  0.96250832982E+02  0.00000000000E+00 0. -1.
</event>
<event>
 7    1  0.2651429E-009  0.1189415E+03  0.7561462E-02  0.1244853E+00
          2   -1    0    0  501    0  0.00000000000E+00  0.00000000000E+00  0.13880014886E+04  0.13880014886E+04  0.00000000000E+00 0. -1.
         -2   -1    0    0    0  501 -0.00000000000E+00 -0.00000000000E+00 -0.13105449573E+02  0.13105449573E+02  0.00000000000E+00 0.  1.
         25    2    1    2    0    0  0.32054735123E+02  0.63413763292E+02  0.95274117001E+03  0.96353902979E+03  0.12507163340E+03 0.  0.
          5    1    3    3  502    0 -0.40760124570E+02  0.19796801212E+01  0.16393221560E+03  0.16898683558E+03  0.41800000000E+01 0. -1.
         -5    1    3    3    0  502  0.72814859693E+02  0.61434083170E+02  0.78880895441E+03  0.79455219421E+03  0.41800000000E+01 0. -1.
        -11    1    1    2    0    0  0.12320620449E+02 -0.54964342130E+02  0.33183173917E+03  0.33657863824E+03  0.00000000000E+00 0. -1.
         11    1    1    2    0    0 -0.44375355572E+02 -0.84494211613E+01  0.90323129863E+02  0.10098927016E+03  0.00000000000E+00 0.  1.
</event>
<event>
 7    1  0.2651429E-009  0.2821194E+03  0.7561462E-02  0.1094537E+00
          2   -1    0    0  501    0  0.00000000000E+00  0.00000000000E+00  0.25655264712E+04  0.25655264712E+04  0.00000000000E+00 0. -1.
         -2   -1    0    0    0  501 -0.00000000000E+00 -0.00000000000E+00 -0.35772413271E+02  0.35772413271E+02  0.00000000000E+00 0.  1.
         25    2    1    2    0    0  0.18220702260E+02 -0.27981715469E+03  0.14362465997E+04  0.14687006381E+04  0.12509050807E+03 0.  0.
          5    1    3    3  502    0  0.22831736208E+02 -0.78211601377E+02  0.19824613428E+03  0.21437664267E+03  0.41800000000E+01 0. -1.
         -5    1    3    3    0  502 -0.46110339481E+01 -0.20160555331E+03  0.12380004654E+04  0.12543239954E+04  0.41800000000E+01 0. -1.
        -11    1    1    2    0    0 -0.21167845537E+02  0.20750110923E+03  0.94029834086E+03  0.96315406755E+03  0.00000000000E+00 0. -1.
         11    1    1    2    0    0  0.29471432765E+01  0.72316045462E+02  0.15320911736E+03  0.16944417879E+03  0.00000000000E+00 0.  1.
</event>
<event>
 7    1  0.2651429E-009  0.2218537E+03  0.7561462E-02  0.1132509E+00
         -1   -1    0    0    0  501 -0.00000000000E+00  0.00000000000E+00  0.51607367349E+02  0.51607367349E+02  0.00000000000E+00 0.  1.
          1   -1    0    0  501    0  0.00000000000E+00 -0.00000000000E+00 -0.11648200229E+04  0.11648200229E+04  0.00000000000E+00 0. -1.
         25    2    1    2    0    0 -0.36596727816E+02 -0.21655204733E+03 -0.60622756916E+03  0.65680113894E+03  0.12506702527E+03 0.  0.
          5    1    3    3  502    0 -0.37126238533E+02 -0.90418163993E+02 -0.12191669499E+03  0.15631684133E+03  0.41800000000E+01 0.  1.
         -5    1    3    3    0  502  0.52951071636E+00 -0.12613388334E+03 -0.48431087418E+03  0.50048429761E+03  0.41800000000E+01 0.  1.
        -11    1    1    2    0    0  0.28664034646E+02  0.15740194355E+03 -0.44802142776E+03  0.47573122501E+03  0.00000000000E+00 0.  1.
         11    1    1    2    0    0  0.79326931704E+01  0.59150103781E+02 -0.58963658607E+02  0.83895026281E+02  0.00000000000E+00 0. -1.
</event>
<event>
 6    1  0.2651429E-009  0.1075465E+03  0.7561462E-02  0.1265182E+00
         -2   -1    0    0    0  501 -0.00000000000E+00  0.00000000000E+00  0.15463629586E+03  0.15463629586E+03  0.00000000000E+00 0.  1.
          2   -1    0    0  501    0  0.00000000000E+00 -0.00000000000E+00 -0.91540371597E+02  0.91540371597E+02  0.00000000000E+00 0. -1.
          5    1    1    2  502    0 -0.57545917893E+02 -0.33533300027E+01  0.19875976167E+02  0.61117136033E+02  0.41800000000E+01 0. -1.
         -5    1    1    2    0  502  0.60401101651E+02  0.24026373870E+02  0.61013171756E+02  0.89250429969E+02  0.41800000000E+01 0. -1.
        -11    1    1    2    0    0  0.38018144551E+02 -0.32057970703E+02  0.17869989500E+00  0.49730521155E+02  0.00000000000E+00 0.  1.
         11    1    1    2    0    0 -0.40873328309E+02  0.11384926836E+02 -0.17971923556E+02  0.46078580299E+02  0.00000000000E+00 0. -1.
</event>
<event>
 7    1  0.2651429E-009  0.8720390E+02  0.7561462E-02  0.1309768E+00
          4   -1    0    0  501    0  0.00000000000E+00  0.00000000000E+00  0.64164240369E+02  0.64164240369E+02  0.00000000000E+00 0. -1.
         -4   -1    0    0    0  501 -0.00000000000E+00 -0.00000000000E+00 -0.22801432071E+03  0.22801432071E+03  0.00000000000E+00 0.  1.
         25    2    1    2    0    0 -0.15367805207E+02 -0.17227449607E+02 -0.15194518631E+03  0.19816012897E+03  0.12508853910E+03 0.  0.
          5    1    3    3  502    0 -0.22818749323E+02  0.27342217334E+02  0.36869112494E+01  0.36046607108E+02  0.41800000000E+01 0.  1.
         -5    1    3    3    0  502  0.74509441156E+01 -0.44569666941E+02 -0.15563209756E+03  0.16211352186E+03  0.41800000000E+01 0.  1.
        -11    1    1    2    0    0 -0.32984750361E+02  0.28418359900E+02 -0.76529341204E+01  0.44205931009E+02  0.00000000000E+00 0.  1.
         11    1    1    2    0    0  0.48352555568E+02 -0.11190910293E+02 -0.42519599140E+01  0.49812501104E+02  0.00000000000E+00 0. -1.
</event>
<event>
 7    1  0.2651429E-009  0.2175913E+03  0.7561462E-02  0.1135692E+00
         -2   -1    0    0    0  501 -0.00000000000E+00  0.00000000000E+00  0.61020812766E+03  0.61020812766E+03  0.00000000000E+00 0.  1.
          2   -1    0    0  501    0  0.00000000000E+00 -0.00000000000E+00 -0.12843691415E+03  0.12843691415E+03  0.00000000000E+00 0. -1.
         25    2    1    2    0    0  0.19561240930E+03  0.34654606749E+02  0.29646572319E+02  0.23662644413E+03  0.12509195965E+03 0.  0.
          5    1    3    3  502    0  0.25578888519E+02  0.42375212742E+02  0.43196384327E+02  0.65828095914E+02  0.41800000000E+01 0. -1.
         -5    1    3    3    0  502  0.17003352079E+03 -0.77206059929E+01 -0.13549812008E+02  0.17079834822E+03  0.41800000000E+01 0. -1.
        -11    1    1    2    0    0 -0.13576076779E+03  0.16182128204E+02  0.32511420989E+03  0.35269263788E+03  0.00000000000E+00 0. -1.
         11    1    1    2    0    0 -0.59851641513E+02 -0.50836734953E+02  0.12701043130E+03  0.14932595980E+03  0.00000000000E+00 0.  1.
</event>
<event>
 7    1  0.2651429E-009  0.9563280E+02  0.7561462E-02  0.1289757E+00
         -2   -1    0    0    0  501 -0.00000000000E+00  0.00000000000E+00  0.26494330931E+02  0.26494330931E+02  0.00000000000E+00 0.  1.
          2   -1    0    0  501    0  0.00000000000E+00 -0.00000000000E+00 -0.46639566915E+03  0.46639566915E+03  0.00000000000E+00 0. -1.
         25    2    1    2    0    0 -0.65294859503E+01  0.20706675150E+02 -0.21616223421E+03  0.25067425743E+03  0.12506027049E+03 0.  0.
          5    1    3    3  502    0  0.12135302538E+02 -0.38709255181E+02 -0.21198088486E+02  0.45961977327E+02  0.41800000000E+01 0. -1.
         -5    1    3    3    0  502 -0.18664788488E+02  0.59415930331E+02 -0.19496414572E+03  0.20471228010E+03  0.41800000000E+01 0. -1.
        -11    1    1    2    0    0 -0.82642887868E+00  0.33425393143E+02 -0.12474737748E+03  0.12915048618E+03  0.00000000000E+00 0. -1.
         11    1    1    2    0    0  0.73559148290E+01 -0.54132068293E+02 -0.98991726528E+02  0.11306525648E+03  0.00000000000E+00 0.  1.
</event>
<event>
 7    1  0.2651429E-009  0.9213930E+02  0.7561462E-02  0.1297752E+00
          1   -1    0    0  501    0  0.00000000000E+00  0.00000000000E+00  0.17252922964E+03  0.17252922964E+03  0.00000000000E+00 0. -1.
         -1   -1    0    0    0  501 -0.00000000000E+00 -0.00000000000E+00 -0.78518541290E+02  0.78518541290E+02  0.00000000000E+00 0.  1.
         25    2    1    2    0    0  0.37118426375E+02 -0.85253385304E+01  0.38539244845E+02  0.13632278557E+03  0.12509264366E+03 0.  0.
          5    1    3    3  502    0 -0.25251941331E+02  0.21191947823E+02  0.55839326056E+02  0.64978934494E+02  0.41800000000E+01 0. -1.
         -5    1    3    3    0  502  0.62370367705E+02 -0.29717286353E+02 -0.17300081211E+02  0.71343851072E+02  0.41800000000E+01 0. -1.
        -11    1    1    2    0    0 -0.42976700016E+02 -0.23701508444E+02 -0.13958392832E+01  0.49098947179E+02  0.00000000000E+00 0.  1.
         11    1    1    2    0    0  0.58582736418E+01  0.32226846974E+02  0.56867282785E+02  0.65626038181E+02  0.00000000000E+00 0. -1.
</event>
<event>
 7    1  0.2651429E-009  0.1153428E+03  0.7561462E-02  0.1250984E+00
         -2   -1    0    0    0  501 -0.00000000000E+00  0.00000000000E+00  0.13040875398E+03  0.13040875398E+03  0.00000000000E+00 0. -1.
          2   -1    0    0  501    0  0.00000000000E+00 -0.00000000000E+00 -0.16122854539E+03  0.16122854539E+03  0.00000000000E+00 0.  1.
         25    2    1    2    0    0  0.26957016534E+02  0.87341494105E+02 -0.47831455110E+02  0.16214866637E+03  0.12509646108E+03 0.  0.
          5    1    3    3  502    0 -0.95492525638E+01  0.27675896204E+01 -0.67086945772E+02  0.67948351487E+02  0.41800000000E+01 0. -1.
         -5    1    3    3    0  502  0.36506269098E+02  0.84573904485E+02  0.19255490662E+02  0.94200314882E+02  0.41800000000E+01 0. -1.
        -11    1    1    2    0    0 -0.55027773781E+02 -0.27338485548E+02  0.14826324497E+02  0.63208136956E+02  0.00000000000E+00 0. -1.
         11    1    1    2    0    0  0.28070757247E+02 -0.60003008557E+02  0.21853392081E+01  0.66280496043E+02  0.00000000000E+00 0.  1.
</event>
<event>
 7    1  0.2651429E-009  0.1364279E+03  0.7561462E-02  0.1218218E+00
          1   -1    0    0  501    0  0.00000000000E+00  0.00000000000E+00  0.95268427112E+02  0.95268427112E+02  0.00000000000E+00 0. -1.
         -1   -1    0    0    0  501 -0.00000000000E+00 -0.00000000000E+00 -0.22165242587E+03  0.22165242587E+03  0.00000000000E+00 0.  1.
         25    2    1    2    0    0 -0.16981471657E+02  0.94608890434E+02 -0.74848206773E+02  0.17461017435E+03  0.12508895395E+03 0.  0.
          5    1    3    3  502    0 -0.60640365932E+02  0.87664684285E+02 -0.28487893500E+02  0.11041459744E+03  0.41800000000E+01 0. -1.
         -5    1    3    3    0  502  0.43658894275E+02  0.69442061487E+01 -0.46360313273E+02  0.64195576912E+02  0.41800000000E+01 0. -1.
        -11    1    1    2    0    0 -0.95827062373E+01 -0.94726664433E+02 -0.13863219235E+02  0.96214126099E+02  0.00000000000E+00 0.  1.
         11    1    1    2    0    0  0.26564177895E+02  0.11777399931E+00 -0.37672572755E+02  0.46096552538E+02  0.00000000000E+00 0. -1.
</event>
<event>
 7    1  0.2651429E-009  0.2634105E+03  0.7561462E-02  0.1105111E+00
          2   -1    0    0  501    0  0.00000000000E+00  0.00000000000E+00  0.57180454338E+03  0.57180454338E+03  0.00000000000E+00 0.  1.
         -2   -1    0    0    0  501 -0.00000000000E+00 -0.00000000000E+00 -0.14409329208E+03  0.14409329208E+03  0.00000000000E+00 0. -1.
         25    2    1    2    0    0  0.16906591814E+03 -0.19584577867E+03  0.14447963907E+03  0.32165388236E+03  0.12509196711E+03 0.  0.
          5    1    3    3  502    0  0.57856812576E+02 -0.11052082573E+03  0.66025483882E+01  0.12499331873E+03  0.41800000000E+01 0.  1.
         -5    1    3    3    0  502  0.11120910556E+03 -0.85324952934E+02  0.13787709068E+03  0.19666056363E+03  0.41800000000E+01 0.  1.
        -11    1    1    2    0    0 -0.77005617349E+02  0.11954247926E+03  0.94199412871E+02  0.17056904419E+03  0.00000000000E+00 0. -1.
         11    1    1    2    0    0 -0.92060300789E+02  0.76303299409E+02  0.18903219935E+03  0.22367490891E+03  0.00000000000E+00 0.  1.
</event>
<event>
 7    1  0.2651429E-009  0.1065153E+03  0.7561462E-02  0.1267162E+00
         -1   -1    0    0    0  501 -0.00000000000E+00  0.00000000000E+00  0.59894279056E+02  0.59894279056E+02  0.00000000000E+00 0. -1.
          1   -1    0    0  501    0  0.00000000000E+00 -0.00000000000E+00 -0.29628596713E+03  0.29628596713E+03  0.00000000000E+00 0.  1.
         25    2    1    2    0    0 -0.54959205486E+02  0.58702337903E+02 -0.13808125299E+03  0.20293655108E+03  0.12510128934E+03 0.  0.
          5    1    3    3  502    0 -0.84591208367E+02  0.48445623699E+02 -0.14067024248E+03  0.17119649677E+03  0.41800000000E+01 0.  1.
         -5    1    3    3    0  502  0.29632002881E+02  0.10256714205E+02  0.25889894878E+01  0.31740054309E+02  0.41800000000E+01 0.  1.
        -11    1    1    2    0    0  0.20199732647E+02 -0.38871600061E+02 -0.10397475468E+03  0.11282632716E+03  0.00000000000E+00 0.  1.
         11    1    1    2    0    0  0.34759472840E+02 -0.19830737843E+02  0.56643195883E+01  0.40417367948E+02  0.00000000000E+00 0. -1.
</event>
<event>
 7    1  0.2651429E-009  0.5915115E+02  0.7561462E-02  0.1401429E+00
          3   -1    0    0  501    0  0.00000000000E+00  0.00000000000E+00  0.22746046987E+03  0.22746046987E+03  0.00000000000E+00 0. -1.
         -3   -1    0    0    0  501 -0.00000000000E+00 -0.00000000000E+00 -0.60291739065E+02  0.60291739065E+02  0.00000000000E+00 0.  1.
         25    2    1    2    0    0  0.74941443905E+01  0.92809445733E+01  0.16447684553E+03  0.20698420263E+03  0.12509008471E+03 0.  0.
          5    1    3    3  502    0  0.21073242923E+02  0.37272600985E+02  0.37091749570E+01  0.43180536476E+02  0.41800000000E+01 0.  1.
         -5    1    3    3    0  502 -0.13579098532E+02 -0.27991656412E+02  0.16076767057E+03  0.16380366616E+03  0.41800000000E+01 0.  1.
        -11    1    1    2    0    0 -0.11794796004E+02 -0.24973726834E+02 -0.32107732862E+02  0.42352222542E+02  0.00000000000E+00 0.  1.
         11    1    1    2    0    0  0.43006516132E+01  0.15692782260E+02  0.34799618144E+02  0.38415783766E+02  0.00000000000E+00 0. -1.
</event>
<event>
 7    1  0.2651429E-009  0.1072381E+03  0.7561462E-02  0.1265772E+00
         -2   -1    0    0    0  501 -0.00000000000E+00  0.00000000000E+00  0.54064342782E+02  0.54064342782E+02  0.00000000000E+00 0.  1.
          2   -1    0    0  501    0  0.00000000000E+00 -0.00000000000E+00 -0.25023702860E+03  0.25023702860E+03  0.00000000000E+00 0. -1.
         25    2    1    2    0    0  0.43228111808E+02  0.88905925454E+01 -0.11708890208E+03  0.17693014242E+03  0.12508697783E+03 0.  0.
          5    1    3    3  502    0 -0.30485976941E+01  0.57692430055E+02 -0.25661439857E+02  0.63353708093E+02  0.41800000000E+01 0. -1.
         -5    1    3    3    0  502  0.46276709502E+02 -0.48801837510E+02 -0.91427462224E+02  0.11357643433E+03  0.41800000000E+01 0. -1.
        -11    1    1    2    0    0 -0.29569482346E+02 -0.43136872023E+02 -0.16688289885E+02  0.54896657762E+02  0.00000000000E+00 0.  1.
         11    1    1    2    0    0 -0.13658629462E+02  0.34246279478E+02 -0.62395493848E+02  0.72474571191E+02  0.00000000000E+00 0. -1.
</event>
<event>
 7    1  0.2651429E-009  0.7833697E+02  0.7561462E-02  0.1333838E+00
         -2   -1    0    0    0  501 -0.00000000000E+00  0.00000000000E+00  0.74902435452E+02  0.74902435452E+02  0.00000000000E+00 0.  1.
          2   -1    0    0  501    0  0.00000000000E+00 -0.00000000000E+00 -0.23314834562E+03  0.23314834562E+03  0.00000000000E+00 0. -1.
         25    2    1    2    0    0 -0.43788521377E+02  0.57008929809E+02 -0.62684416342E+02  0.15730921714E+03  0.12509756617E+03 0.  0.
          5    1    3    3  502    0 -0.37342319899E+01  0.12193436835E+02  0.37818791175E+02  0.40129263092E+02  0.41800000000E+01 0.  1.
         -5    1    3    3    0  502 -0.40054289387E+02  0.44815492974E+02 -0.10050320752E+03  0.11717995404E+03  0.41800000000E+01 0.  1.
        -11    1    1    2    0    0  0.11715606918E+02 -0.48394999299E+02 -0.10500738702E+03  0.11621481288E+03  0.00000000000E+00 0. -1.
         11    1    1    2    0    0  0.32072914460E+02 -0.86139305099E+01  0.94458931927E+01  0.34526751063E+02  0.00000000000E+00 0.  1.
</event>
<event>
 7    1  0.2651429E-009  0.1218303E+03  0.7561462E-02  0.1240108E+00
         -4   -1    0    0    0  501 -0.00000000000E+00  0.00000000000E+00  0.10901966507E+04  0.10901966507E+04  0.00000000000E+00 0. -1.
          4   -1    0    0  501    0  0.00000000000E+00 -0.00000000000E+00 -0.29760440999E+02  0.29760440999E+02  0.00000000000E+00 0.  1.
         25    2    1    2    0    0  0.52065696495E+02  0.77241948355E+02  0.89459346006E+03  0.90808512264E+03  0.12507588034E+03 0.  0.
          5    1    3    3  502    0  0.62019962845E+02  0.33616922052E+02  0.20143957934E+03  0.21347587631E+03  0.41800000000E+01 0.  1.
         -5    1    3    3    0  502 -0.99542663503E+01  0.43625026303E+02  0.69315388072E+03  0.69460924633E+03  0.41800000000E+01 0.  1.
        -11    1    1    2    0    0 -0.88347417634E+01 -0.83853190873E+02  0.83668795521E+02  0.11878500590E+03  0.00000000000E+00 0.  1.
         11    1    1    2    0    0 -0.43230954732E+02  0.66112425174E+01  0.82173954097E+02  0.93086963139E+02  0.00000000000E+00 0. -1.
</event>
<event>
 7    1  0.2651429E-009  0.1240134E+03  0.7561462E-02  0.1236619E+00
          1   -1    0    0  501    0  0.00000000000E+00  0.00000000000E+00  0.24010610530E+03  0.24010610530E+03  0.00000000000E+00 0. -1.
         -1   -1    0    0    0  501 -0.00000000000E+00 -0.00000000000E+00 -0.72742301163E+02  0.72742301163E+02  0.00000000000E+00 0.  1.
         25    2    1    2    0    0  0.49019521891E+02  0.47038384198E+02  0.54265528883E+02  0.15234094316E+03  0.12508993654E+03 0.  0.
          5    1    3    3  502    0  0.55631330721E+02 -0.27269979545E+02  0.45767386036E+02  0.77140279795E+02  0.41800000000E+01 0.  1.
         -5    1    3    3    0  502 -0.66118088304E+01  0.74308363743E+02  0.84981428469E+01  0.75200663362E+02  0.41800000000E+01 0.  1.
        -11    1    1    2    0    0 -0.16663109726E+01 -0.61636526423E+02  0.79630653543E+02  0.10071186110E+03  0.00000000000E+00 0.  1.
         11    1    1    2    0    0 -0.47353210918E+02  0.14598142225E+02  0.33467621710E+02  0.59795602210E+02  0.00000000000E+00 0. -1.
</event>
<event>
 7    1  0.2651429E-009  0.1101655E+03  0.7561462E-02  0.1260264E+00
         -2   -1    0    0    0  501 -0.00000000000E+00  0.00000000000E+00  0.23575180392E+02  0.23575180392E+02  0.00000000000E+00 0. -1.
          2   -1    0    0  501    0  0.00000000000E+00 -0.00000000000E+00 -0.65971090388E+03  0.65971090388E+03  0.00000000000E+00 0.  1.
         25    2    1    2    0    0  0.28532759660E+02  0.37179549724E-01 -0.20971407179E+03  0.24585051102E+03  0.12509341353E+03 0.  0.
          5    1    3    3  502    0 -0.26626669134E+02  0.46323643079E+02 -0.11430342615E+03  0.12624422777E+03  0.41800000000E+01 0.  1.
         -5    1    3    3    0  502  0.55159428794E+02 -0.46286463530E+02 -0.95410645643E+02  0.11960628325E+03  0.41800000000E+01 0.  1.
        -11    1    1    2    0    0 -0.26211193636E+02 -0.43660259726E+02 -0.28164635093E+03  0.28621305341E+03  0.00000000000E+00 0.  1.
         11    1    1    2    0    0 -0.23215660238E+01  0.43623080176E+02 -0.14477530076E+03  0.15122251983E+03  0.00000000000E+00 0. -1.
</event>
<event>
 7    1  0.2651429E-009  0.1190162E+03  0.7561462E-02  0.1244729E+00
         -2   -1    0    0    0  501 -0.00000000000E+00  0.00000000000E+00  0.53252666966E+03  0.53252666966E+03  0.00000000000E+00 0.  1.
          2   -1    0    0  501    0  0.00000000000E+00 -0.00000000000E+00 -0.40075031305E+02  0.40075031305E+02  0.00000000000E+00 0. -1.
         25    2    1    2    0    0 -0.59184865869E+02  0.50750501830E+02  0.39552091992E+03  0.42209271932E+03  0.12508798434E+03 0.  0.
          5    1    3    3  502    0  0.83024503227E+01  0.67788101907E+02  0.26967288671E+03  0.27821771272E+03  0.41800000000E+01 0.  1.
         -5    1    3    3    0  502 -0.67487316192E+02 -0.17037600077E+02  0.12584803321E+03  0.14387500661E+03  0.41800000000E+01 0.  1.
        -11    1    1    2    0    0  0.14123254370E+02  0.14720731981E+02 -0.52419928509E+01  0.21062876183E+02  0.00000000000E+00 0. -1.
         11    1    1    2    0    0  0.45061611499E+02 -0.65471233811E+02  0.10217271129E+03  0.12944610546E+03  0.00000000000E+00 0.  1.
</event>
<event>
 7    1  0.2651429E-009  0.1178145E+03  0.7561462E-02  0.1246747E+00
          1   -1    0    0  501    0  0.00000000000E+00  0.00000000000E+00  0.59411281582E+03  0.59411281582E+03  0.00000000000E+00 0. -1.
         -1   -1    0    0    0  501 -0.00000000000E+00 -0.00000000000E+00 -0.37802988645E+02  0.37802988645E+02  0.00000000000E+00 0.  1.
         25    2    1    2    0    0 -0.57187454073E+02 -0.51255957207E+02  0.47116267421E+03  0.49349721577E+03  0.12509060058E+03 0.  0.
          5    1    3    3  502    0 -0.35829172735E+02 -0.87608706104E+02  0.39638135566E+03  0.40754713410E+03  0.41800000000E+01 0.  1.
         -5    1    3    3    0  502 -0.21358281338E+02  0.36352748897E+02  0.74781318553E+02  0.85950081667E+02  0.41800000000E+01 0.  1.
        -11    1    1    2    0    0  0.31431184671E+02  0.62848935981E+02  0.29894029754E+02  0.76364658964E+02  0.00000000000E+00 0.  1.
         11    1    1    2    0    0  0.25756269402E+02 -0.11592978773E+02  0.55253123213E+02  0.62053929732E+02  0.00000000000E+00 0. -1.
</event>
<event>
 7    1  0.2651429E-009  0.8119524E+02  0.7561462E-02  0.1325693E+00
          1   -1    0    0  501    0  0.00000000000E+00  0.00000000000E+00  0.45176951393E+02  0.45176951393E+02  0.00000000000E+00 0. -1.
         -1   -1    0    0    0  501 -0.00000000000E+00 -0.00000000000E+00 -0.59178283682E+03  0.59178283682E+03  0.00000000000E+00 0.  1.
         25    2    1    2    0    0 -0.58628740574E+02  0.55425721050E+01 -0.49936438055E+03  0.51815103230E+03  0.12509060068E+03 0.  0.
          5    1    3    3  502    0  0.45386165131E+01 -0.26344407400E+02 -0.36705234543E+03  0.36804826249E+03  0.41800000000E+01 0. -1.
         -5    1    3    3    0  502 -0.63167357087E+02  0.31886979505E+02 -0.13231203512E+03  0.15010276980E+03  0.41800000000E+01 0. -1.
        -11    1    1    2    0    0  0.10847512033E+02  0.94350531593E+01 -0.64316586016E+02  0.65903808556E+02  0.00000000000E+00 0.  1.
         11    1    1    2    0    0  0.47781228541E+02 -0.14977625264E+02  0.17075081140E+02  0.52904947362E+02  0.00000000000E+00 0. -1.
</event>
<event>
 7    1  0.2651429E-009  0.1392703E+03  0.7561462E-02  0.1214314E+00
          2   -1    0    0  501    0  0.00000000000E+00  0.00000000000E+00  0.87786204950E+03  0.87786204950E+03  0.00000000000E+00 0. -1.
         -2   -1    0    0    0  501 -0.00000000000E+00 -0.00000000000E+00 -0.53760120483E+02  0.53760120483E+02  0.00000000000E+00 0.  1.
         25    2    1    2    0    0 -0.52241471976E+02 -0.83813446106E+02  0.77076557451E+03  0.78707097315E+03  0.12508909137E+03 0.  0.
          5    1    3    3  502    0 -0.56453529169E+02 -0.11440826247E+03  0.59148972389E+03  0.60510645125E+03  0.41800000000E+01 0. -1.
         -5    1    3    3    0  502  0.42120571929E+01  0.30594816361E+02  0.17927585062E+03  0.18196452190E+03  0.41800000000E+01 0. -1.
        -11    1    1    2    0    0  0.30628146954E+02 -0.25194261786E+01 -0.13184858819E+02  0.33440565130E+02  0.00000000000E+00 0.  1.
         11    1    1    2    0    0  0.21613325022E+02  0.86332872285E+02  0.66521213323E+02  0.11111063170E+03  0.00000000000E+00 0. -1.
</event>
<event>
 7    1  0.2651429E-009  0.1951245E+03  0.7561462E-02  0.1153919E+00
         -2   -1    0    0    0  501 -0.00000000000E+00  0.00000000000E+00  0.38133233971E+03  0.38133233971E+03  0.00000000000E+00 0. -1.
          2   -1    0    0  501    0  0.00000000000E+00 -0.00000000000E+00 -0.11559466518E+03  0.11559466518E+03  0.00000000000E+00 0.  1.
         25    2    1    2    0    0  0.10146036925E+03  0.14353129259E+03  0.93516286971E+02  0.23513634284E+03  0.12509342634E+03 0.  0.
          5    1    3    3  502    0  0.84000447331E+02  0.48997260106E+02  0.98897372764E+02  0.13876227654E+03  0.41800000000E+01 0. -1.
         -5    1    3    3    0  502  0.17459921920E+02  0.94534032484E+02 -0.53810857928E+01  0.96374066302E+02  0.41800000000E+01 0. -1.
        -11    1    1    2    0    0 -0.39854093755E+02  0.69108726200E+00  0.27831661325E+02  0.48615098095E+02  0.00000000000E+00 0.  1.
         11    1    1    2    0    0 -0.61606275495E+02 -0.14422237985E+03  0.14438972623E+03  0.21317556396E+03  0.00000000000E+00 0. -1.
</event>
<event>
 7    1  0.2651429E-009  0.1165977E+03  0.7561462E-02  0.1248818E+00
         -1   -1    0    0    0  501 -0.00000000000E+00  0.00000000000E+00  0.26372032214E+03  0.26372032214E+03  0.00000000000E+00 0.  1.
          1   -1    0    0  501    0  0.00000000000E+00 -0.00000000000E+00 -0.63919765190E+02  0.63919765190E+02  0.00000000000E+00 0. -1.
         25    2    1    2    0    0  0.22614053486E+02 -0.55520761098E+02  0.60462158980E+02  0.15132043797E+03  0.12509297322E+03 0.  0.
          5    1    3    3  502    0 -0.39547382229E+02 -0.59219373104E+02  0.12072722097E+02  0.72347443706E+02  0.41800000000E+01 0. -1.
         -5    1    3    3    0  502  0.62161435715E+02  0.36986120054E+01  0.48389436883E+02  0.78972994262E+02  0.41800000000E+01 0. -1.
        -11    1    1    2    0    0 -0.34674912277E+02 -0.73402698424E+01  0.85943251307E+02  0.92964894170E+02  0.00000000000E+00 0.  1.
         11    1    1    2    0    0  0.12060858791E+02  0.62861030941E+02  0.53395146659E+02  0.83354755188E+02  0.00000000000E+00 0. -1.
</event>
<event>
 7    1  0.2651429E-009  0.1173293E+03  0.7561462E-02  0.1247569E+00
          2   -1    0    0  501    0  0.00000000000E+00  0.00000000000E+00  0.34540100810E+03  0.34540100810E+03  0.00000000000E+00 0. -1.
         -2   -1    0    0    0  501 -0.00000000000E+00 -0.00000000000E+00 -0.66004219459E+02  0.66004219459E+02  0.00000000000E+00 0.  1.
         25    2    1    2    0    0 -0.10331062309E+03 -0.18121806866E+02  0.10449661920E+03  0.19382498654E+03  0.12508835780E+03 0.  0.
          5    1    3    3  502    0 -0.57674789709E+02 -0.43026186816E+02 -0.52982207865E+01  0.72271555009E+02  0.41800000000E+01 0.  1.
         -5    1    3    3    0  502 -0.45635833377E+02  0.24904379949E+02  0.10979483999E+03  0.12155343153E+03  0.41800000000E+01 0.  1.
        -11    1    1    2    0    0  0.57384489355E+02 -0.74389484865E+01  0.14720567335E+03  0.15817024954E+03  0.00000000000E+00 0. -1.
         11    1    1    2    0    0  0.45926133731E+02  0.25560755353E+02  0.27694496083E+02  0.59409991474E+02  0.00000000000E+00 0.  1.
</event>
<event>
 6    1  0.2651429E-009  0.1141993E+03  0.7561462E-02  0.1252985E+00
          2   -1    0    0  501    0  0.00000000000E+00  0.00000000000E+00  0.43474675405E+03  0.43474675405E+03  0.00000000000E+00 0. -1.
         -2   -1    0    0    0  501 -0.00000000000E+00 -0.00000000000E+00 -0.56015501839E+02  0.56015501839E+02  0.00000000000E+00 0.  1.
          5    1    1    2  502    0  0.17210680735E+01 -0.64260433375E+02  0.23017555337E+03  0.23902013125E+03  0.41800000000E+01 0.  1.
         -5    1    1    2    0  502  0.45275719427E+02  0.45860690278E+02  0.11947322101E+03  0.13581022282E+03  0.41800000000E+01 0.  1.
        -11    1    1    2    0    0 -0.70339374680E+02  0.11051674698E+01 -0.57405726866E+01  0.70581890031E+02  0.00000000000E+00 0.  1.
         11    1    1    2    0    0  0.23342587180E+02  0.17294575626E+02  0.34823050510E+02  0.45350011788E+02  0.00000000000E+00 0. -1.
</event>
<event>
 7    1  0.2791572E-009  0.1364339E+03  0.7561462E-02  0.1218210E+00
         -2   -1    0    0    0  501 -0.00000000000E+00  0.00000000000E+00  0.52200832192E+02  0.52200832192E+02  0.00000000000E+00 0.  1.
          2   -1    0    0  501    0  0.00000000000E+00 -0.00000000000E+00 -0.42734515533E+03  0.42734515533E+03  0.00000000000E+00 0. -1.
         25    2    1    2    0    0  0.82379543056E+02 -0.58051016792E+02 -0.22859574506E+03  0.27939225344E+03  0.12509079484E+03 0.  0.
          5    1    3    3  502    0  0.14844050716E+02 -0.81432528907E+02 -0.16025981215E+03  0.18042251078E+03  0.41800000000E+01 0.  1.
         -5    1    3    3    0  502  0.67535492340E+02  0.23381512114E+02 -0.68335932918E+02  0.98969742659E+02  0.41800000000E+01 0.  1.
        -11    1    1    2    0    0  0.38836597840E+01  0.26130766988E+02  0.82659774749E+00  0.26430721907E+02  0.00000000000E+00 0.  1.
         11    1    1    2    0    0 -0.86263202840E+02  0.31920249805E+02 -0.14737517582E+03  0.17372301218E+03  0.00000000000E+00 0. -1.
</event>
<event>
 7    1  0.2651429E-009  0.2302140E+03  0.7561462E-02  0.1126489E+00
          1   -1    0    0  501    0  0.00000000000E+00  0.00000000000E+00  0.14098161807E+04  0.14098161807E+04  0.00000000000E+00 0. -1.
         -1   -1    0    0    0  501 -0.00000000000E+00 -0.00000000000E+00 -0.43069475372E+02  0.43069475372E+02  0.00000000000E+00 0.  1.
         25    2    1    2    0    0  0.20319820732E+03  0.64620353537E+02  0.88730594011E+03  0.92109991304E+03  0.12509163400E+03 0.  0.
          5    1    3    3  502    0  0.16306312715E+02  0.57587146290E+02  0.20230255302E+03  0.21101177836E+03  0.41800000000E+01 0. -1.
         -5    1    3    3    0  502  0.18689189460E+03  0.70332072476E+01  0.68500338710E+03  0.71008813468E+03  0.41800000000E+01 0. -1.
        -11    1    1    2    0    0 -0.10247033536E+03 -0.36554763290E+02  0.34327643372E+03  0.36010433252E+03  0.00000000000E+00 0. -1.
         11    1    1    2    0    0 -0.10072787196E+03 -0.28065590248E+02  0.13616433149E+03  0.17168141051E+03  0.00000000000E+00 0.  1.
</event>
<event>
 7    1  0.2651429E-009  0.1073054E+03  0.7561462E-02  0.1265643E+00
         -2   -1    0    0    0  501 -0.00000000000E+00  0.00000000000E+00  0.26854212436E+03  0.26854212436E+03  0.00000000000E+00 0.  1.
          2   -1    0    0  501    0  0.00000000000E+00 -0.00000000000E+00 -0.65975827767E+02  0.65975827767E+02  0.00000000000E+00 0. -1.
         25    2    1    2    0    0 -0.52426327952E+02  0.63248773556E+02  0.13666644918E+03  0.20266811503E+03  0.12509084418E+03 0.  0.
          5    1    3    3  502    0  0.86499284765E+01  0.69669608438E+02  0.11967662392E+03  0.13881153524E+03  0.41800000000E+01 0. -1.
         -5    1    3    3    0  502 -0.61076256429E+02 -0.64208348820E+01  0.16989825263E+02  0.63856579790E+02  0.41800000000E+01 0. -1.
        -11    1    1    2    0    0  0.26615256823E+02 -0.24539752605E+02 -0.14468585914E+02  0.38986040219E+02  0.00000000000E+00 0. -1.
         11    1    1    2    0    0  0.25811071130E+02 -0.38709020951E+02  0.80368433328E+02  0.92863796883E+02  0.00000000000E+00 0.  1.
</event>
<event>
 7    1  0.2651429E-009  0.4238986E+03  0.7561462E-02  0.1035805E+00
          2   -1    0    0  501    0  0.00000000000E+00  0.00000000000E+00  0.18537390163E+04  0.18537390163E+04  0.00000000000E+00 0.  1.
         -2   -1    0    0    0  501 -0.00000000000E+00 -0.00000000000E+00 -0.11740150643E+03  0.11740150643E+03  0.00000000000E+00 0. -1.
         25    2    1    2    0    0  0.18952910010E+02 -0.42208564694E+03  0.12230270693E+04  0.12999841193E+04  0.12509193388E+03 0.  0.
          5    1    3    3  502    0  0.19631564332E+02 -0.13485547404E+03  0.24199642656E+03  0.27776094049E+03  0.41800000000E+01 0.  1.
         -5    1    3    3    0  502 -0.67865432212E+00 -0.28723017290E+03  0.98103064278E+03  0.10222231788E+04  0.41800000000E+01 0.  1.
        -11    1    1    2    0    0  0.11089058427E+02  0.16220194236E+03  0.26229228339E+03  0.30859306416E+03  0.00000000000E+00 0.  1.
         11    1    1    2    0    0 -0.30041968437E+02  0.25988370459E+03  0.25101815714E+03  0.36256333928E+03  0.00000000000E+00 0. -1.
</event>
<event>
 7    1  0.2651429E-009  0.9931767E+02  0.7561462E-02  0.1281737E+00
          1   -1    0    0  501    0  0.00000000000E+00  0.00000000000E+00  0.19661870240E+03  0.19661870240E+03  0.00000000000E+00 0. -1.
         -1   -1    0    0    0  501 -0.00000000000E+00 -0.00000000000E+00 -0.67258890094E+02  0.67258890094E+02  0.00000000000E+00 0.  1.
         25    2    1    2    0    0  0.21233182513E+02 -0.16486287492E+02  0.11029747583E+03  0.16892391232E+03  0.12508840580E+03 0.  0.
          5    1    3    3  502    0 -0.23805800360E+02  0.45045505924E+02  0.37323473590E+02  0.63295559208E+02  0.41800000000E+01 0. -1.
         -5    1    3    3    0  502  0.45038982873E+02 -0.61531793416E+02  0.72974002236E+02  0.10562835311E+03  0.41800000000E+01 0. -1.
        -11    1    1    2    0    0  0.18538982296E+02 -0.12125349158E+02  0.36711648692E+02  0.42877302929E+02  0.00000000000E+00 0. -1.
         11    1    1    2    0    0 -0.39772164809E+02  0.28611636650E+02 -0.17649312210E+02  0.52076377244E+02  0.00000000000E+00 0.  1.
</event>
<event>
 7    1  0.2651429E-009  0.1275784E+03  0.7561462E-02  0.1231094E+00
          4   -1    0    0  501    0  0.00000000000E+00  0.00000000000E+00  0.10092083127E+03  0.10092083127E+03  0.00000000000E+00 0. -1.
         -4   -1    0    0    0  501 -0.00000000000E+00 -0.00000000000E+00 -0.18512372615E+03  0.18512372615E+03  0.00000000000E+00 0.  1.
         25    2    1    2    0    0 -0.72622969415E+02  0.82093671808E+01 -0.46211531780E+01  0.14494883780E+03  0.12508925265E+03 0.  0.
          5    1    3    3  502    0  0.31953730520E+02 -0.67415546842E+01  0.16976374214E+02  0.37042666415E+02  0.41800000000E+01 0. -1.
         -5    1    3    3    0  502 -0.10457669994E+03  0.14950921865E+02 -0.21597527392E+02  0.10790617139E+03  0.41800000000E+01 0. -1.
        -11    1    1    2    0    0  0.84542111271E+02  0.19135708936E+02 -0.59316438691E+02  0.10503325109E+03  0.00000000000E+00 0.  1.
         11    1    1    2    0    0 -0.11919141856E+02 -0.27345076117E+02 -0.20265303008E+02  0.36062468530E+02  0.00000000000E+00 0. -1.
</event>
<event>
 7    1  0.2651429E-009  0.1314699E+03  0.7561462E-02  0.1225291E+00
          3   -1    0    0  501    0  0.00000000000E+00  0.00000000000E+00  0.12121207515E+03  0.12121207515E+03  0.00000000000E+00 0. -1.
         -3   -1    0    0    0  501 -0.00000000000E+00 -0.00000000000E+00 -0.16195442930E+03  0.16195442930E+03  0.00000000000E+00 0.  1.
         25    2    1    2    0    0  0.80137602786E+02  0.33265126139E+02 -0.35793950800E+02  0.15638659259E+03  0.12508779089E+03 0.  0.
          5    1    3    3  502    0 -0.24981587193E+02 -0.91297482664E+01 -0.33449362687E+02  0.42939076216E+02  0.41800000000E+01 0. -1.
         -5    1    3    3    0  502  0.10511918998E+03  0.42394874406E+02 -0.23445881132E+01  0.11344751637E+03  0.41800000000E+01 0. -1.
        -11    1    1    2    0    0 -0.81486662806E+02 -0.56602221037E+02  0.88916409567E+01  0.99613999621E+02  0.00000000000E+00 0. -1.
         11    1    1    2    0    0  0.13490600195E+01  0.23337094898E+02 -0.13840044308E+02  0.27165912237E+02  0.00000000000E+00 0.  1.
</event>
<event>
 7    1  0.2651429E-009  0.1346193E+03  0.7561462E-02  0.1220758E+00
          1   -1    0    0  501    0  0.00000000000E+00  0.00000000000E+00  0.41298731275E+03  0.41298731275E+03  0.00000000000E+00 0. -1.
         -1   -1    0    0    0  501 -0.00000000000E+00 -0.00000000000E+00 -0.63369113402E+02  0.63369113402E+02  0.00000000000E+00 0.  1.
         25    2    1    2    0    0 -0.99552359397E+02  0.66276176553E+02  0.19083687155E+03  0.25762121957E+03  0.12508707924E+03 0.  0.
          5    1    3    3  502    0 -0.27153596433E+02  0.28390284351E+02  0.16813034515E+03  0.17270961584E+03  0.41800000000E+01 0. -1.
         -5    1    3    3    0  502 -0.72398762964E+02  0.37885892203E+02  0.22706526396E+02  0.84911603728E+02  0.41800000000E+01 0. -1.
        -11    1    1    2    0    0  0.87723793011E+02 -0.75961547330E+01  0.11364486694E+03  0.14376481213E+03  0.00000000000E+00 0.  1.
         11    1    1    2    0    0  0.11828566387E+02 -0.58680021820E+02  0.45136460863E+02  0.74970394442E+02  0.00000000000E+00 0. -1.
</event>
<event>
 7    1  0.2651429E-009  0.9010380E+02  0.7561462E-02  0.1302601E+00
         -2   -1    0    0    0  501 -0.00000000000E+00  0.00000000000E+00  0.37486929288E+02  0.37486929288E+02  0.00000000000E+00 0.  1.
          2   -1    0    0  501    0  0.00000000000E+00 -0.00000000000E+00 -0.31722748204E+03  0.31722748204E+03  0.00000000000E+00 0. -1.
         25    2    1    2    0    0 -0.19071171191E+02 -0.10234404629E+02 -0.16741356353E+03  0.21011043109E+03  0.12510251551E+03 0.  0.
          5    1    3    3  502    0 -0.34792999388E+02  0.36354055055E+02 -0.14919436723E+03  0.15750746566E+03  0.41800000000E+01 0.  1.
         -5    1    3    3    0  502  0.15721828198E+02 -0.46588459683E+02 -0.18219196303E+02  0.52602965425E+02  0.41800000000E+01 0.  1.
        -11    1    1    2    0    0  0.49123898938E+02  0.10848598244E+02 -0.34032615729E+02  0.60737702163E+02  0.00000000000E+00 0.  1.
         11    1    1    2    0    0 -0.30052727747E+02 -0.61419361534E+00 -0.78294373494E+02  0.83866278084E+02  0.00000000000E+00 0. -1.
</event>
<event>
 7    1  0.2651429E-009  0.1478956E+03  0.7561462E-02  0.1203083E+00
          1   -1    0    0  501    0  0.00000000000E+00  0.00000000000E+00  0.87204779304E+02  0.87204779304E+02  0.00000000000E+00 0. -1.
         -1   -1    0    0    0  501 -0.00000000000E+00 -0.00000000000E+00 -0.35778435571E+03  0.35778435571E+03  0.00000000000E+00 0.  1.
         25    2    1    2    0    0  0.34137234382E+02 -0.10661347658E+03 -0.24638014845E+03  0.29813156999E+03  0.12508985296E+03 0.  0.
          5    1    3    3  502    0  0.11396055093E+01  0.24801151403E+02 -0.13240261130E+02  0.28445961513E+02  0.41800000000E+01 0.  1.
         -5    1    3    3    0  502  0.32997628873E+02 -0.13141462798E+03 -0.23313988732E+03  0.26968560847E+03  0.41800000000E+01 0.  1.
        -11    1    1    2    0    0 -0.45537008353E+01  0.10534684599E+03  0.46079926346E+01  0.10554585614E+03  0.00000000000E+00 0.  1.
         11    1    1    2    0    0 -0.29583533547E+02  0.12666305852E+01 -0.28807420596E+02  0.41311708892E+02  0.00000000000E+00 0. -1.
</event>
<event>
 7    1  0.2651429E-009  0.1024307E+03  0.7561462E-02  0.1275266E+00
         -1   -1    0    0    0  501 -0.00000000000E+00  0.00000000000E+00  0.54145238231E+02  0.54145238231E+02  0.00000000000E+00 0.  1.
          1   -1    0    0  501    0  0.00000000000E+00 -0.00000000000E+00 -0.28025844616E+03  0.28025844616E+03  0.00000000000E+00 0. -1.
         25    2    1    2    0    0 -0.13325366798E+02  0.53663081345E+02 -0.13594849894E+03  0.19283863468E+03  0.12508977962E+03 0.  0.
          5    1    3    3  502    0  0.43755503489E+02 -0.47246115970E+01 -0.86888504758E+02  0.97488208002E+02  0.41800000000E+01 0. -1.
         -5    1    3    3    0  502 -0.57080870287E+02  0.58387692942E+02 -0.49059994177E+02  0.95350426682E+02  0.41800000000E+01 0. -1.
        -11    1    1    2    0    0 -0.21099805885E+02 -0.10165592636E+02 -0.82264402712E+02  0.85533461497E+02  0.00000000000E+00 0. -1.
         11    1    1    2    0    0  0.34425172683E+02 -0.43497488708E+02 -0.79003062826E+01  0.56031588212E+02  0.00000000000E+00 0.  1.
</event>
<event>
 7    1  0.2651429E-009  0.1566481E+03  0.7561462E-02  0.1192534E+00
          1   -1    0    0  501    0  0.00000000000E+00  0.00000000000E+00  0.46033438402E+03  0.46033438402E+03  0.00000000000E+00 0. -1.
         -1   -1    0    0    0  501 -0.00000000000E+00 -0.00000000000E+00 -0.70244154675E+02  0.70244154675E+02  0.00000000000E+00 0.  1.
         25    2    1    2    0    0 -0.80324132173E+01  0.11548216962E+03  0.81675324154E+02  0.18899464083E+03  0.12508982582E+03 0.  0.
          5    1    3    3  502    0  0.55830761783E+02  0.30569060643E+02  0.36229064321E+02  0.73359109397E+02  0.41800000000E+01 0.  1.
         -5    1    3    3    0  502 -0.63863175000E+02  0.84913108972E+02  0.45446259833E+02  0.11563553143E+03  0.41800000000E+01 0.  1.
        -11    1    1    2    0    0  0.26860485444E+02 -0.70942547177E+00  0.32579237224E+02  0.42230269486E+02  0.00000000000E+00 0.  1.
         11    1    1    2    0    0 -0.18828072227E+02 -0.11477274414E+03  0.27583566797E+03  0.29935362838E+03  0.00000000000E+00 0. -1.
</event>
<event>
 7    1  0.2651429E-009  0.9071835E+02  0.7561462E-02  0.1301121E+00
          2   -1    0    0  501    0  0.00000000000E+00  0.00000000000E+00  0.25069136707E+03  0.25069136707E+03  0.00000000000E+00 0. -1.
         -2   -1    0    0    0  501 -0.00000000000E+00 -0.00000000000E+00 -0.52879892369E+02  0.52879892369E+02  0.00000000000E+00 0.  1.
         25    2    1    2    0    0 -0.27517179014E+02  0.23532859205E+02  0.12683500819E+03  0.18178237072E+03  0.12508685142E+03 0.  0.
          5    1    3    3  502    0  0.38556968945E+02 -0.12978322633E+02  0.91570230690E+01  0.41909428343E+02  0.41800000000E+01 0. -1.
         -5    1    3    3    0  502 -0.66074147959E+02  0.36511181838E+02  0.11767798512E+03  0.13987294238E+03  0.41800000000E+01 0. -1.
        -11    1    1    2    0    0  0.52377284284E+01  0.17486515365E+02 -0.15218447731E+02  0.23765798325E+02  0.00000000000E+00 0.  1.
         11    1    1    2    0    0  0.22279450586E+02 -0.41019374571E+02  0.86194914247E+02  0.98023090395E+02  0.00000000000E+00 0. -1.
</event>
<event>
 7    1  0.2651429E-009  0.9654770E+02  0.7561462E-02  0.1287728E+00
         -3   -1    0    0    0  501 -0.00000000000E+00  0.00000000000E+00  0.92497985063E+03  0.92497985063E+03  0.00000000000E+00 0.  1.
          3   -1    0    0  501    0  0.00000000000E+00 -0.00000000000E+00 -0.15871664959E+02  0.15871664959E+02  0.00000000000E+00 0. -1.
         25    2    1    2    0    0  0.49841851556E+02 -0.20703751726E+02  0.51223939707E+03  0.53004681033E+03  0.12509023035E+03 0.  0.
          5    1    3    3  502    0  0.53329488322E+02 -0.47202743316E+02  0.48960199903E+03  0.49477239530E+03  0.41800000000E+01 0. -1.
         -5    1    3    3    0  502 -0.34876367663E+01  0.26498991590E+02  0.22637398042E+02  0.35274415029E+02  0.41800000000E+01 0. -1.
        -11    1    1    2    0    0 -0.69319880563E+02  0.46769378730E+01  0.35647198233E+03  0.36317956134E+03  0.00000000000E+00 0.  1.
         11    1    1    2    0    0  0.19478029007E+02  0.16026813853E+02  0.40396806273E+02  0.47625143919E+02  0.00000000000E+00 0. -1.
</event>
<event>
 7    1  0.2651429E-009  0.6494113E+02  0.7561462E-02  0.1378193E+00
          2   -1    0    0  501    0  0.00000000000E+00  0.00000000000E+00  0.47482494482E+02  0.47482494482E+02  0.00000000000E+00 0. -1.
         -2   -1    0    0    0  501 -0.00000000000E+00 -0.00000000000E+00 -0.44010419881E+03  0.44010419881E+03  0.00000000000E+00 0.  1.
         25    2    1    2    0    0 -0.60526828316E+02 -0.11586477913E+02 -0.33598733421E+03  0.36377562017E+03  0.12508984637E+03 0.  0.
          5    1    3    3  502    0 -0.56172466806E+02 -0.44967681220E+01 -0.34571930772E+03  0.35030683562E+03  0.41800000000E+01 0.  1.
         -5    1    3    3    0  502 -0.43543615107E+01 -0.70897097912E+01  0.97319735067E+01  0.13468784556E+02  0.41800000000E+01 0.  1.
        -11    1    1    2    0    0  0.49347853607E+02  0.16245577641E+02  0.12654188623E+02  0.53472029495E+02  0.00000000000E+00 0. -1.
         11    1    1    2    0    0  0.11178974709E+02 -0.46590997281E+01 -0.69288558743E+02  0.70339043628E+02  0.00000000000E+00 0.  1.
</event>
<event>
 7    1  0.2651429E-009  0.9348172E+02  0.7561462E-02  0.1294633E+00
          1   -1    0    0  501    0  0.00000000000E+00  0.00000000000E+00  0.70362756828E+03  0.70362756828E+03  0.00000000000E+00 0. -1.
         -1   -1    0    0    0  501 -0.00000000000E+00 -0.00000000000E+00 -0.18488920264E+02  0.18488920264E+02  0.00000000000E+00 0.  1.
         25    2    1    2    0    0 -0.35704722862E+02 -0.18161887421E+02  0.53685332593E+03  0.55268849450E+03  0.12509355298E+03 0.  0.
          5    1    3    3  502    0  0.42493604905E+02 -0.28645259393E+02  0.24444984999E+03  0.24979883688E+03  0.41800000000E+01 0. -1.
         -5    1    3    3    0  502 -0.78198327766E+02  0.10483371971E+02  0.29240347594E+03  0.30288965763E+03  0.41800000000E+01 0. -1.
        -11    1    1    2    0    0  0.21487226563E+01  0.22588941041E+02  0.12794091325E+03  0.12993750247E+03  0.00000000000E+00 0. -1.
         11    1    1    2    0    0  0.33556000205E+02 -0.44270536198E+01  0.20344408833E+02  0.39490491568E+02  0.00000000000E+00 0.  1.
</event>
<event>
 7    1  0.2651429E-009  0.7740193E+02  0.7561462E-02  0.1336590E+00
          1   -1    0    0  501    0  0.00000000000E+00  0.00000000000E+00  0.16492896033E+03  0.16492896033E+03  0.00000000000E+00 0. -1.
         -1   -1    0    0    0  501 -0.00000000000E+00 -0.00000000000E+00 -0.96187064715E+02  0.96187064715E+02  0.00000000000E+00 0.  1.
         25    2    1    2    0    0 -0.45082586463E+02 -0.20273455241E+02  0.34578861267E+02  0.13887817447E+03  0.12509195461E+03 0.  0.
          5    1    3    3  502    0 -0.47027718533E+02  0.11755168272E+02  0.73573406933E+02  0.88206059311E+02  0.41800000000E+01 0. -1.
         -5    1    3    3    0  502  0.19451320705E+01 -0.32028623513E+02 -0.38994545665E+02  0.50672115158E+02  0.41800000000E+01 0. -1.
        -11    1    1    2    0    0  0.57429238659E+02  0.11307403929E+02 -0.23138584590E+02  0.62939406840E+02  0.00000000000E+00 0.  1.
         11    1    1    2    0    0 -0.12346652196E+02  0.89660513126E+01  0.57301618938E+02  0.59298443736E+02  0.00000000000E+00 0. -1.
</event>
<event>
 7    1  0.2651429E-009  0.1206527E+03  0.7561462E-02  0.1242024E+00
          2   -1    0    0  501    0  0.00000000000E+00  0.00000000000E+00  0.15637287959E+03  0.15637287959E+03  0.00000000000E+00 0. -1.
         -2   -1    0    0    0  501 -0.00000000000E+00 -0.00000000000E+00 -0.15741839418E+03  0.15741839418E+03  0.00000000000E+00 0.  1.
         25    2    1    2    0    0 -0.45733356043E+02 -0.28759403961E+02 -0.99197141292E+02  0.16853917781E+03  0.12508692356E+03 0.  0.
          5    1    3    3  502    0 -0.55612850004E+02  0.38635659900E+02 -0.53613913217E+02  0.86472119159E+02  0.41800000000E+01 0. -1.
         -5    1    3    3    0  502  0.98794939612E+01 -0.67395063861E+02 -0.45583228075E+02  0.82067058650E+02  0.41800000000E+01 0. -1.
        -11    1    1    2    0    0  0.53494744076E+01 -0.31899291321E+02  0.18362481888E+02  0.37193580149E+02  0.00000000000E+00 0.  1.
         11    1    1    2    0    0  0.40383881635E+02  0.60658695282E+02  0.79789144810E+02  0.10805851581E+03  0.00000000000E+00 0. -1.
</event>
<event>
 7    1  0.2651429E-009  0.8398990E+02  0.7561462E-02  0.1318095E+00
         -3   -1    0    0    0  501 -0.00000000000E+00  0.00000000000E+00  0.20183734416E+03  0.20183734416E+03  0.00000000000E+00 0.  1.
          3   -1    0    0  501    0  0.00000000000E+00 -0.00000000000E+00 -0.75536037856E+02  0.75536037856E+02  0.00000000000E+00 0. -1.
         25    2    1    2    0    0  0.47036542103E+02  0.94307582420E+01  0.32563437286E+02  0.13787609410E+03  0.12509222350E+03 0.  0.
          5    1    3    3  502    0 -0.33058698062E+01  0.12990415159E+02  0.72209469934E+02  0.73561944029E+02  0.41800000000E+01 0.  1.
         -5    1    3    3    0  502  0.50342411909E+02 -0.35596569169E+01 -0.39646032647E+02  0.64314150067E+02  0.41800000000E+01 0.  1.
        -11    1    1    2    0    0  0.34023899643E+00  0.36977011319E+02  0.32584221256E+02  0.49286373406E+02  0.00000000000E+00 0. -1.
         11    1    1    2    0    0 -0.47376781100E+02 -0.46407769561E+02  0.61153647765E+02  0.90210914517E+02  0.00000000000E+00 0.  1.
</event>
<event>
 7    1  0.2651429E-009  0.1130821E+03  0.7561462E-02  0.1254966E+00
          3   -1    0    0  501    0  0.00000000000E+00  0.00000000000E+00  0.23591081686E+03  0.23591081686E+03  0.00000000000E+00 0. -1.
         -3   -1    0    0    0  501 -0.00000000000E+00 -0.00000000000E+00 -0.62895416287E+02  0.62895416287E+02  0.00000000000E+00 0.  1.
         25    2    1    2    0    0 -0.48454591269E+01  0.56287807386E+02  0.77150302762E+02  0.15745086940E+03  0.12508721487E+03 0.  0.
          5    1    3    3  502    0  0.42241136599E+02 -0.13950184546E+02  0.53180660213E+02  0.69459169955E+02  0.41800000000E+01 0.  1.
         -5    1    3    3    0  502 -0.47086595726E+02  0.70237991932E+02  0.23969642548E+02  0.87991699447E+02  0.41800000000E+01 0.  1.
        -11    1    1    2    0    0 -0.92453696950E+01 -0.73780246278E+02  0.48061665284E+02  0.88537705366E+02  0.00000000000E+00 0.  1.
         11    1    1    2    0    0  0.14090828822E+02  0.17492438892E+02  0.47803432525E+02  0.52817658377E+02  0.00000000000E+00 0. -1.
</event>
<event>
 7    1  0.2651429E-009  0.1087891E+03  0.7561462E-02  0.1262829E+00
          2   -1    0    0  501    0  0.00000000000E+00  0.00000000000E+00  0.68676660549E+03  0.68676660549E+03  0.00000000000E+00 0. -1.
         -2   -1    0    0    0  501 -0.00000000000E+00 -0.00000000000E+00 -0.19385230907E+02  0.19385230907E+02  0.00000000000E+00 0.  1.
         25    2    1    2    0    0  0.31928912007E+02  0.46254448774E+01  0.50403157590E+03  0.52032268074E+03  0.12508801872E+03 0.  0.
          5    1    3    3  502    0 -0.47787887899E+02 -0.67770935149E+01  0.19908857831E+03  0.20489837881E+03  0.41800000000E+01 0.  1.
         -5    1    3    3    0  502  0.79716799906E+02  0.11402538392E+02  0.30494299760E+03  0.31542430194E+03  0.41800000000E+01 0.  1.
        -11    1    1    2    0    0 -0.54246602204E+02  0.17568331575E+02  0.10094343630E+03  0.11593497081E+03  0.00000000000E+00 0. -1.
         11    1    1    2    0    0  0.22317690197E+02 -0.22193776452E+02  0.62406362378E+02  0.69894184838E+02  0.00000000000E+00 0.  1.
</event>
<event>
 7    1  0.2651429E-009  0.8482423E+02  0.7561462E-02  0.1315893E+00
          2   -1    0    0  501    0  0.00000000000E+00  0.00000000000E+00  0.37592235677E+02  0.37592235677E+02  0.00000000000E+00 0. -1.
         -2   -1    0    0    0  501 -0.00000000000E+00 -0.00000000000E+00 -0.26697536123E+03  0.26697536123E+03  0.00000000000E+00 0.  1.
         25    2    1    2    0    0  0.29270368269E+01 -0.11486457205E+02 -0.15526520234E+03  0.19973972602E+03  0.12509264106E+03 0.  0.
          5    1    3    3  502    0  0.37528943971E+02 -0.38128266127E+02 -0.14510367316E+03  0.15470854753E+03  0.41800000000E+01 0.  1.
         -5    1    3    3    0  502 -0.34601907144E+02  0.26641808922E+02 -0.10161529179E+02  0.45031178487E+02  0.41800000000E+01 0.  1.
        -11    1    1    2    0    0 -0.35590811766E+02  0.16217742646E+02 -0.52124459784E+02  0.65166558651E+02  0.00000000000E+00 0.  1.
         11    1    1    2    0    0  0.32663774939E+02 -0.47312854409E+01 -0.21993463430E+02  0.39661312243E+02  0.00000000000E+00 0. -1.
</event>
<event>
 7    1  0.2940771E-009  0.1104705E+03  0.7561462E-02  0.1259701E+00
          1   -1    0    0  501    0  0.00000000000E+00  0.00000000000E+00  0.93945085104E+02  0.93945085104E+02  0.00000000000E+00 0. -1.
         -1   -1    0    0    0  501 -0.00000000000E+00 -0.00000000000E+00 -0.15766701197E+03  0.15766701197E+03  0.00000000000E+00 0.  1.
         25    2    1    2    0    0  0.38280258694E+02 -0.12040385737E+02 -0.75102582810E+02  0.15132329795E+03  0.12509194004E+03 0.  0.
          5    1    3    3  502    0 -0.29033778215E+02  0.30947173690E+02 -0.15543276354E+01  0.42668210312E+02  0.41800000000E+01 0. -1.
         -5    1    3    3    0  502  0.67314036909E+02 -0.42987559427E+02 -0.73548255175E+02  0.10865508764E+03  0.41800000000E+01 0. -1.
        -11    1    1    2    0    0 -0.57255244538E+02 -0.20365974351E+02 -0.90812096049E+00  0.60776316292E+02  0.00000000000E+00 0.  1.
         11    1    1    2    0    0  0.18974985843E+02  0.32406360088E+02  0.12288776903E+02  0.39512482834E+02  0.00000000000E+00 0. -1.
</event>
<event>
 7    1  0.4593113E-009  0.1064175E+03  0.7561462E-02  0.1267352E+00
         -1   -1    0    0    0  501 -0.00000000000E+00  0.00000000000E+00  0.55532053274E+02  0.55532053274E+02  0.00000000000E+00 0.  1.
          1   -1    0    0  501    0  0.00000000000E+00 -0.00000000000E+00 -0.29773260354E+03  0.29773260354E+03  0.00000000000E+00 0. -1.
         25    2    1    2    0    0  0.40009629749E+01  0.65671817423E+02 -0.16243672235E+03  0.21532060947E+03  0.12509388789E+03 0.  0.
          5    1    3    3  502    0  0.10800467061E+02 -0.36065847746E+02 -0.31191605808E+02  0.49069177039E+02  0.41800000000E+01 0. -1.
         -5    1    3    3    0  502 -0.67995040863E+01  0.10173766517E+03 -0.13124511654E+03  0.16625143243E+03  0.41800000000E+01 0. -1.
        -11    1    1    2    0    0  0.13526054912E+02 -0.21719811343E+02 -0.86449143237E+02  0.90156301680E+02  0.00000000000E+00 0. -1.
         11    1    1    2    0    0 -0.17527017887E+02 -0.43952006080E+02  0.66853153213E+01  0.47787745662E+02  0.00000000000E+00 0.  1.
</event>
<event>
 7    1  0.2651429E-009  0.8179448E+02  0.7561462E-02  0.1324035E+00
          2   -1    0    0  501    0  0.00000000000E+00  0.00000000000E+00  0.15016136513E+03  0.15016136513E+03  0.00000000000E+00 0.  1.
         -2   -1    0    0    0  501 -0.00000000000E+00 -0.00000000000E+00 -0.89967313479E+02  0.89967313479E+02  0.00000000000E+00 0. -1.
         25    2    1    2    0    0 -0.94172768183E+01  0.40653113193E+02  0.43071502158E+02  0.13872240766E+03  0.12508953343E+03 0.  0.
          5    1    3    3  502    0  0.26096068881E+02  0.70577928255E+01  0.75236208451E+02  0.80054835661E+02  0.41800000000E+01 0.  1.
         -5    1    3    3    0  502 -0.35513345699E+02  0.33595320368E+02 -0.32164706292E+02  0.58667571999E+02  0.41800000000E+01 0.  1.
        -11    1    1    2    0    0 -0.31401596542E+02 -0.33159766508E+02  0.33658710041E+02  0.56732170255E+02  0.00000000000E+00 0.  1.
         11    1    1    2    0    0  0.40818873360E+02 -0.74933466854E+01 -0.16536160551E+02  0.44674100693E+02  0.00000000000E+00 0. -1.
</event>
<event>
 7    1  0.2651429E-009  0.1631396E+03  0.7561462E-02  0.1185197E+00
          4   -1    0    0  501    0  0.00000000000E+00  0.00000000000E+00  0.94609736655E+02  0.94609736655E+02  0.00000000000E+00 0. -1.
         -4   -1    0    0    0  501 -0.00000000000E+00 -0.00000000000E+00 -0.38604308153E+03  0.38604308153E+03  0.00000000000E+00 0.  1.
         25    2    1    2    0    0 -0.13883238226E+03 -0.66628238015E+00 -0.24393404242E+03  0.30728829955E+03  0.12508959866E+03 0.  0.
          5    1    3    3  502    0 -0.14433603695E+03 -0.36691156447E+02 -0.20873062627E+03  0.25644703014E+03  0.41800000000E+01 0. -1.
         -5    1    3    3    0  502  0.55036546929E+01  0.36024874067E+02 -0.35203416146E+02  0.50841269406E+02  0.41800000000E+01 0. -1.
        -11    1    1    2    0    0  0.69029676172E+02  0.11477235349E+02 -0.70250235709E+02  0.99156032297E+02  0.00000000000E+00 0.  1.
         11    1    1    2    0    0  0.69802706087E+02 -0.10810952969E+02  0.22750933252E+02  0.74208486341E+02  0.00000000000E+00 0. -1.
</event>
<event>
 7    1  0.2651429E-009  0.1185476E+03  0.7561462E-02  0.1245512E+00
         -3   -1    0    0    0  501 -0.00000000000E+00  0.00000000000E+00  0.35738068865E+03  0.35738068865E+03  0.00000000000E+00 0.  1.
          3   -1    0    0  501    0  0.00000000000E+00 -0.00000000000E+00 -0.56988677079E+02  0.56988677079E+02  0.00000000000E+00 0. -1.
         25    2    1    2    0    0  0.75675694364E+02  0.37612561155E+02  0.10751416916E+03  0.18533259954E+03  0.12508940966E+03 0.  0.
          5    1    3    3  502    0  0.85714616587E+02 -0.10836734000E+02  0.10440403095E+03  0.13558061948E+03  0.41800000000E+01 0. -1.
         -5    1    3    3    0  502 -0.10038922223E+02  0.48449295155E+02  0.31101382080E+01  0.49751980062E+02  0.41800000000E+01 0. -1.
        -11    1    1    2    0    0 -0.26344084675E+02  0.13758492895E+02  0.13211504231E+03  0.13541673208E+03  0.00000000000E+00 0.  1.
         11    1    1    2    0    0 -0.49331609688E+02 -0.51371054050E+02  0.60762800104E+02  0.93620034101E+02  0.00000000000E+00 0. -1.
</event>
<event>
 7    1  0.2651429E-009  0.2080043E+03  0.7561462E-02  0.1143156E+00
          2   -1    0    0  501    0  0.00000000000E+00  0.00000000000E+00  0.16042188889E+03  0.16042188889E+03  0.00000000000E+00 0. -1.
         -2   -1    0    0    0  501 -0.00000000000E+00 -0.00000000000E+00 -0.31992846525E+03  0.31992846525E+03  0.00000000000E+00 0.  1.
         25    2    1    2    0    0  0.18830065799E+03  0.41441508044E+02 -0.31786922446E+02  0.23201792228E+03  0.12508945372E+03 0.  0.
          5    1    3    3  502    0  0.38654637146E+02  0.59197964641E+02 -0.39449002515E+02  0.81069576229E+02  0.41800000000E+01 0. -1.
         -5    1    3    3    0  502  0.14964602084E+03 -0.17756456597E+02  0.76620800691E+01  0.15094834605E+03  0.41800000000E+01 0. -1.
        -11    1    1    2    0    0 -0.10849927285E+03 -0.36509376111E+02 -0.12331054810E+03  0.16825729709E+03  0.00000000000E+00 0.  1.
         11    1    1    2    0    0 -0.79801385133E+02 -0.49321319324E+01 -0.44091058184E+01  0.80075134771E+02  0.00000000000E+00 0. -1.
</event>
<event>
 7    1  0.2651429E-009  0.9887423E+02  0.7561462E-02  0.1282681E+00
          2   -1    0    0  501    0  0.00000000000E+00  0.00000000000E+00  0.23896476861E+03  0.23896476861E+03  0.00000000000E+00 0. -1.
         -2   -1    0    0    0  501 -0.00000000000E+00 -0.00000000000E+00 -0.52204415036E+02  0.52204415036E+02  0.00000000000E+00 0.  1.
         25    2    1    2    0    0  0.22409967997E+02 -0.22081286104E+02  0.97914237283E+02  0.16194244478E+03  0.12509343587E+03 0.  0.
          5    1    3    3  502    0  0.90325590014E+00 -0.69287204310E+02  0.82175226740E+02  0.10757217504E+03  0.41800000000E+01 0.  1.
         -5    1    3    3    0  502  0.21506712097E+02  0.47205918207E+02  0.15739010543E+02  0.54370269742E+02  0.41800000000E+01 0.  1.
        -11    1    1    2    0    0  0.14886532400E+02 -0.16774796411E+02 -0.31263469205E+01  0.22644573006E+02  0.00000000000E+00 0.  1.
         11    1    1    2    0    0 -0.37296500398E+02  0.38856082515E+02  0.91972463208E+02  0.10658216586E+03  0.00000000000E+00 0. -1.
</event>
<event>
 7    1  0.2651429E-009  0.1136719E+03  0.7561462E-02  0.1253917E+00
          4   -1    0    0  501    0  0.00000000000E+00  0.00000000000E+00  0.59842278767E+02  0.59842278767E+02  0.00000000000E+00 0. -1.
         -4   -1    0    0    0  501 -0.00000000000E+00 -0.00000000000E+00 -0.27749610685E+03  0.27749610685E+03  0.00000000000E+00 0.  1.
         25    2    1    2    0    0 -0.11465654811E+02  0.66372932826E+02 -0.11025238287E+03  0.17983327104E+03  0.12509032734E+03 0.  0.
          5    1    3    3  502    0  0.18886968147E+02  0.87242859598E+02 -0.35049441162E+02  0.95989425680E+02  0.41800000000E+01 0. -1.
         -5    1    3    3    0  502 -0.30352622958E+02 -0.20869926773E+02 -0.75202941704E+02  0.83843845360E+02  0.41800000000E+01 0. -1.
        -11    1    1    2    0    0  0.40557025606E+02 -0.57748770092E+02 -0.34517464444E+02  0.78557291990E+02  0.00000000000E+00 0. -1.
         11    1    1    2    0    0 -0.29091370795E+02 -0.86241627335E+01 -0.72883980775E+02  0.78947822586E+02  0.00000000000E+00 0.  1.
</event>
<event>
 7    1  0.2651429E-009  0.1047540E+03  0.7561462E-02  0.1270605E+00
         -2   -1    0    0    0  501 -0.00000000000E+00  0.00000000000E+00  0.14729844438E+02  0.14729844438E+02  0.00000000000E+00 0.  1.
          2   -1    0    0  501    0  0.00000000000E+00 -0.00000000000E+00 -0.15030001961E+04  0.15030001961E+04  0.00000000000E+00 0. -1.
         25    2    1    2    0    0  0.30079337684E+02  0.68301988543E+02 -0.11555540172E+04  0.11646982772E+04  0.12508821701E+03 0.  0.
          5    1    3    3  502    0  0.78582273507E+01  0.73438210455E+02 -0.11187904326E+04  0.11212334400E+04  0.41800000000E+01 0.  1.
         -5    1    3    3    0  502  0.22221110333E+02 -0.51362219114E+01 -0.36763584615E+02  0.43464837210E+02  0.41800000000E+01 0.  1.
        -11    1    1    2    0    0  0.29522027220E+02 -0.20476116645E+02 -0.61200223973E+02  0.70966815191E+02  0.00000000000E+00 0.  1.
         11    1    1    2    0    0 -0.59601364903E+02 -0.47825871899E+02 -0.27151611045E+03  0.28206494811E+03  0.00000000000E+00 0. -1.
</event>
<event>
 7    1  0.2651429E-009  0.1962791E+03  0.7561462E-02  0.1152917E+00
         -1   -1    0    0    0  501 -0.00000000000E+00  0.00000000000E+00  0.81071880119E+02  0.81071880119E+02  0.00000000000E+00 0.  1.
          1   -1    0    0  501    0  0.00000000000E+00 -0.00000000000E+00 -0.65768694039E+03  0.65768694039E+03  0.00000000000E+00 0. -1.
         25    2    1    2    0    0 -0.18450700931E+02  0.16421035066E+03 -0.48626318837E+03  0.52858721290E+03  0.12508831140E+03 0.  0.
          5    1    3    3  502    0  0.29769363855E+02  0.15116934482E+03 -0.40209295997E+03  0.43062118700E+03  0.41800000000E+01 0. -1.
         -5    1    3    3    0  502 -0.48220064786E+02  0.13041005840E+02 -0.84170228407E+02  0.97966025904E+02  0.41800000000E+01 0. -1.
        -11    1    1    2    0    0 -0.33375384435E+02 -0.10205894839E+03 -0.64298140804E+02  0.12515668637E+03  0.00000000000E+00 0.  1.
         11    1    1    2    0    0  0.51826085366E+02 -0.62151402271E+02 -0.26053731090E+02  0.85014921234E+02  0.00000000000E+00 0. -1.
</event>
<event>
 7    1  0.2651429E-009  0.1245971E+03  0.7561462E-02  0.1235700E+00
          2   -1    0    0  501    0  0.00000000000E+00  0.00000000000E+00  0.24370815412E+03  0.24370815412E+03  0.00000000000E+00 0. -1.
         -2   -1    0    0    0  501 -0.00000000000E+00 -0.00000000000E+00 -0.11004400867E+03  0.11004400867E+03  0.00000000000E+00 0.  1.
         25    2    1    2    0    0  0.25116036790E+02  0.11871550190E+03  0.48612686595E+02  0.18092884380E+03  0.12509143666E+03 0.  0.
          5    1    3    3  502    0  0.22495172752E+00  0.74564741660E+01  0.65098650120E+02  0.65657872777E+02  0.41800000000E+01 0.  1.
         -5    1    3    3    0  502  0.24891085063E+02  0.11125902773E+03 -0.16485963525E+02  0.11527097103E+03  0.41800000000E+01 0.  1.
        -11    1    1    2    0    0 -0.33966664075E+02 -0.81326277759E+02  0.98445362877E+02  0.13213321760E+03  0.00000000000E+00 0. -1.
         11    1    1    2    0    0  0.88506272843E+01 -0.37389224141E+02 -0.13393904027E+02  0.40690101379E+02  0.00000000000E+00 0.  1.
</event>
<event>
 7    1  0.2651429E-009  0.1331714E+03  0.7561462E-02  0.1222824E+00
         -2   -1    0    0    0  501 -0.00000000000E+00  0.00000000000E+00  0.25865230604E+03  0.25865230604E+03  0.00000000000E+00 0.  1.
          2   -1    0    0  501    0  0.00000000000E+00 -0.00000000000E+00 -0.11450040531E+03  0.11450040531E+03  0.00000000000E+00 0. -1.
         25    2    1    2    0    0 -0.65689813581E+02 -0.98811807243E+02  0.17326355744E+02  0.17328319080E+03  0.12509171336E+03 0.  0.
          5    1    3    3  502    0 -0.38011423439E+02 -0.11076074375E+03 -0.26297758524E+02  0.12009102869E+03  0.41800000000E+01 0.  1.
         -5    1    3    3    0  502 -0.27678390141E+02  0.11948936507E+02  0.43624114268E+02  0.53192162112E+02  0.41800000000E+01 0.  1.
        -11    1    1    2    0    0  0.33918291711E+02  0.54843470430E+02  0.28522446150E+01  0.64547595313E+02  0.00000000000E+00 0. -1.
         11    1    1    2    0    0  0.31771521870E+02  0.43968336813E+02  0.12397330038E+03  0.13532192524E+03  0.00000000000E+00 0.  1.
</event>
<event>
 7    1  0.2651429E-009  0.8080436E+02  0.7561462E-02  0.1326784E+00
         -1   -1    0    0    0  501 -0.00000000000E+00  0.00000000000E+00  0.65058501374E+02  0.65058501374E+02  0.00000000000E+00 0.  1.
          1   -1    0    0  501    0  0.00000000000E+00 -0.00000000000E+00 -0.21504642834E+03  0.21504642834E+03  0.00000000000E+00 0. -1.
         25    2    1    2    0    0 -0.21215122810E+02  0.45226514274E+02 -0.78528036137E+02  0.15591585857E+03  0.12509030124E+03 0.  0.
          5    1    3    3  502    0  0.75006381106E+01 -0.53091460697E+01  0.30589493653E+02  0.32212359833E+02  0.41800000000E+01 0.  1.
         -5    1    3    3    0  502 -0.28715760921E+02  0.50535660344E+02 -0.10911752979E+03  0.12370349873E+03  0.41800000000E+01 0.  1.
        -11    1    1    2    0    0  0.20359097123E+02  0.19686228594E+02 -0.93721043582E+00  0.28335821769E+02  0.00000000000E+00 0.  1.
         11    1    1    2    0    0  0.85602568670E+00 -0.64912742868E+02 -0.70522680397E+02  0.95853249381E+02  0.00000000000E+00 0. -1.
</event>
<event>
 7    1  0.2651429E-009  0.8883738E+02  0.7561462E-02  0.1305692E+00
         -1   -1    0    0    0  501 -0.00000000000E+00  0.00000000000E+00  0.19810554281E+03  0.19810554281E+03  0.00000000000E+00 0.  1.
          1   -1    0    0  501    0  0.00000000000E+00 -0.00000000000E+00 -0.64903219725E+02  0.64903219725E+02  0.00000000000E+00 0. -1.
         25    2    1    2    0    0  0.55545285264E+01  0.13897459337E+02  0.10637121268E+03  0.16488269499E+03  0.12508987192E+03 0.  0.
          5    1    3    3  502    0 -0.94107133141E+01  0.46479285655E+02  0.11777036494E+03  0.12702840934E+03  0.41800000000E+01 0. -1.
         -5    1    3    3    0  502  0.14965241841E+02 -0.32581826319E+02 -0.11399152264E+02  0.37854285648E+02  0.41800000000E+01 0. -1.
        -11    1    1    2    0    0  0.98895719738E+01 -0.51961069847E+02  0.10526754303E+02  0.53931150272E+02  0.00000000000E+00 0.  1.
         11    1    1    2    0    0 -0.15444100500E+02  0.38063610511E+02  0.16304356106E+02  0.44194917280E+02  0.00000000000E+00 0. -1.
</event>
<event>
 7    1  0.2651429E-009  0.1104330E+03  0.7561462E-02  0.1259770E+00
          1   -1    0    0  501    0  0.00000000000E+00  0.00000000000E+00  0.70587932732E+02  0.70587932732E+02  0.00000000000E+00 0. -1.
         -1   -1    0    0    0  501 -0.00000000000E+00 -0.00000000000E+00 -0.21300089121E+03  0.21300089121E+03  0.00000000000E+00 0.  1.
         25    2    1    2    0    0  0.36612901681E+02 -0.39590034588E+02 -0.96422598776E+02  0.16689422229E+03  0.12509391861E+03 0.  0.
          5    1    3    3  502    0  0.39985862638E+02  0.27437968300E+02 -0.86041065699E+02  0.98854684775E+02  0.41800000000E+01 0. -1.
         -5    1    3    3    0  502 -0.33729609563E+01 -0.67028002888E+02 -0.10381533077E+02  0.68039537519E+02  0.41800000000E+01 0. -1.
        -11    1    1    2    0    0  0.27259776765E+02  0.29702385698E+02 -0.61848418468E+01  0.40787000552E+02  0.00000000000E+00 0. -1.
         11    1    1    2    0    0 -0.63872678446E+02  0.98876488903E+01 -0.39805517856E+02  0.75907601097E+02  0.00000000000E+00 0.  1.
</event>
<event>
 7    1  0.2651429E-009  0.1038900E+03  0.7561462E-02  0.1272322E+00
         -1   -1    0    0    0  501 -0.00000000000E+00  0.00000000000E+00  0.86982803709E+02  0.86982803709E+02  0.00000000000E+00 0.  1.
          1   -1    0    0  501    0  0.00000000000E+00 -0.00000000000E+00 -0.14401747593E+03  0.14401747593E+03  0.00000000000E+00 0. -1.
         25    2    1    2    0    0  0.43850833876E+01  0.28244317350E+02 -0.45296856043E+02  0.13607331518E+03  0.12508865463E+03 0.  0.
          5    1    3    3  502    0  0.23537427276E+02 -0.41529572065E+02 -0.41677702592E+02  0.63507630502E+02  0.41800000000E+01 0.  1.
         -5    1    3    3    0  502 -0.19152343888E+02  0.69773889414E+02 -0.36191534502E+01  0.72565684673E+02  0.41800000000E+01 0.  1.
        -11    1    1    2    0    0  0.35972686690E+02  0.33556697022E+01  0.12497051250E+02  0.38229190376E+02  0.00000000000E+00 0.  1.
         11    1    1    2    0    0 -0.40357770078E+02 -0.31599987052E+02 -0.24234867434E+02  0.56697774091E+02  0.00000000000E+00 0. -1.
</event>
<event>
 7    1  0.2651429E-009  0.2518584E+03  0.7561462E-02  0.1112136E+00
          2   -1    0    0  501    0  0.00000000000E+00  0.00000000000E+00  0.13307922793E+04  0.13307922793E+04  0.00000000000E+00 0. -1.
         -2   -1    0    0    0  501 -0.00000000000E+00 -0.00000000000E+00 -0.52644426501E+02  0.52644426501E+02  0.00000000000E+00 0.  1.
         25    2    1    2    0    0 -0.51376727620E+02  0.22958788126E+03  0.51597010945E+03  0.58070852239E+03  0.12508825192E+03 0.  0.
          5    1    3    3  502    0  0.32667880664E+02  0.69787442087E+02  0.93349628148E+02  0.12111607233E+03  0.41800000000E+01 0.  1.
         -5    1    3    3    0  502 -0.84044608284E+02  0.15980043918E+03  0.42262048130E+03  0.45959245007E+03  0.41800000000E+01 0.  1.
        -11    1    1    2    0    0  0.36423047659E+02 -0.34122450279E+02  0.94552754532E+02  0.10691680599E+03  0.00000000000E+00 0.  1.
         11    1    1    2    0    0  0.14953679961E+02 -0.19546543098E+03  0.66762498886E+03  0.69581137746E+03  0.00000000000E+00 0. -1.
</event>
<event>
 7    1  0.2651429E-009  0.1029011E+03  0.7561462E-02  0.1274311E+00
          1   -1    0    0  501    0  0.00000000000E+00  0.00000000000E+00  0.25588864875E+03  0.25588864875E+03  0.00000000000E+00 0. -1.
         -1   -1    0    0    0  501 -0.00000000000E+00 -0.00000000000E+00 -0.54522025873E+02  0.54522025873E+02  0.00000000000E+00 0.  1.
         25    2    1    2    0    0 -0.22938412622E+02  0.40028055463E+02  0.64381248803E+02  0.14805382721E+03  0.12508626846E+03 0.  0.
          5    1    3    3  502    0 -0.12827886569E+02  0.78648369900E+02  0.71669804693E+02  0.10725741963E+03  0.41800000000E+01 0.  1.
         -5    1    3    3    0  502 -0.10110526053E+02 -0.38620314437E+02 -0.72885558900E+01  0.40796407577E+02  0.41800000000E+01 0.  1.
        -11    1    1    2    0    0 -0.94890419801E+01 -0.50812772537E+02  0.95651893686E+02  0.10872563882E+03  0.00000000000E+00 0. -1.
         11    1    1    2    0    0  0.32427454603E+02  0.10784717073E+02  0.41333480392E+02  0.53631208598E+02  0.00000000000E+00 0.  1.
</event>
<event>
 7    1  0.2651429E-009  0.2436909E+03  0.7561462E-02  0.1117358E+00
          1   -1    0    0  501    0  0.00000000000E+00  0.00000000000E+00  0.31583628275E+03  0.31583628275E+03  0.00000000000E+00 0. -1.
         -1   -1    0    0    0  501 -0.00000000000E+00 -0.00000000000E+00 -0.24110159922E+03  0.24110159922E+03  0.00000000000E+00 0.  1.
         25    2    1    2    0    0  0.79479597350E+02  0.20339413175E+03  0.16803938091E+03  0.30260280059E+03  0.12508014297E+03 0.  0.
          5    1    3    3  502    0  0.84161027663E+02  0.51259819067E+02  0.77662906568E+02  0.12553743300E+03  0.41800000000E+01 0. -1.
         -5    1    3    3    0  502 -0.46814303131E+01  0.15213431268E+03  0.90376474339E+02  0.17706536759E+03  0.41800000000E+01 0. -1.
        -11    1    1    2    0    0  0.19611323741E+02 -0.19858655592E+02 -0.13609540989E+02  0.31051406196E+02  0.00000000000E+00 0. -1.
         11    1    1    2    0    0 -0.99090921091E+02 -0.18353547616E+03 -0.79695156397E+02  0.22328367518E+03  0.00000000000E+00 0.  1.
</event>
<event>
 7    1  0.2651429E-009  0.1048339E+03  0.7561462E-02  0.1270447E+00
          1   -1    0    0  501    0  0.00000000000E+00  0.00000000000E+00  0.14084017836E+04  0.14084017836E+04  0.00000000000E+00 0. -1.
         -1   -1    0    0    0  501 -0.00000000000E+00 -0.00000000000E+00 -0.12201336726E+02  0.12201336726E+02  0.00000000000E+00 0.  1.
         25    2    1    2    0    0  0.49421957758E+02  0.49393121139E+02  0.77307585462E+03  0.78624186883E+03  0.12509112271E+03 0.  0.
          5    1    3    3  502    0  0.51738670636E+02  0.91507132038E+01  0.70535553456E+03  0.70732208231E+03  0.41800000000E+01 0. -1.
         -5    1    3    3    0  502 -0.23167128786E+01  0.40242407935E+02  0.67720320058E+02  0.78919786516E+02  0.41800000000E+01 0. -1.
        -11    1    1    2    0    0  0.94793964109E+01  0.21955566005E+02  0.83271807889E+02  0.86637750572E+02  0.00000000000E+00 0.  1.
         11    1    1    2    0    0 -0.58901354169E+02 -0.71348687145E+02  0.53985278441E+03  0.54772350097E+03  0.00000000000E+00 0. -1.
</event>
<event>
 7    1  0.2651429E-009  0.1118688E+03  0.7561462E-02  0.1257148E+00
         -1   -1    0    0    0  501 -0.00000000000E+00  0.00000000000E+00  0.59150661097E+02  0.59150661097E+02  0.00000000000E+00 0.  1.
          1   -1    0    0  501    0  0.00000000000E+00 -0.00000000000E+00 -0.43905070531E+03  0.43905070531E+03  0.00000000000E+00 0. -1.
         25    2    1    2    0    0 -0.13711344663E+02  0.57165932742E+02 -0.36411770718E+03  0.38945566860E+03  0.12505226218E+03 0.  0.
          5    1    3    3  502    0 -0.73799544465E+01 -0.34042898701E+02 -0.18513350235E+03  0.18842841817E+03  0.41800000000E+01 0. -1.
         -5    1    3    3    0  502 -0.63313902165E+01  0.91208831443E+02 -0.17898420483E+03  0.20102725043E+03  0.41800000000E+01 0. -1.
        -11    1    1    2    0    0  0.45774036446E+02 -0.27207740646E+02  0.14789575158E+02  0.55265315497E+02  0.00000000000E+00 0.  1.
         11    1    1    2    0    0 -0.32062691783E+02 -0.29958192095E+02 -0.30571912189E+02  0.53480382318E+02  0.00000000000E+00 0. -1.
</event>
<event>
 7    1  0.2651429E-009  0.8190954E+02  0.7561462E-02  0.1323718E+00
          3   -1    0    0  501    0  0.00000000000E+00  0.00000000000E+00  0.82619537407E+02  0.82619537407E+02  0.00000000000E+00 0. -1.
         -3   -1    0    0    0  501 -0.00000000000E+00 -0.00000000000E+00 -0.20261808807E+03  0.20261808807E+03  0.00000000000E+00 0.  1.
         25    2    1    2    0    0 -0.51248666716E+02 -0.18500993964E+02 -0.86015168046E+02  0.16129214833E+03  0.12509130809E+03 0.  0.
          5    1    3    3  502    0 -0.11166065367E+02  0.30295261129E+02  0.19720581367E+02  0.38063862023E+02  0.41800000000E+01 0. -1.
         -5    1    3    3    0  502 -0.40082601349E+02 -0.48796255093E+02 -0.10573574941E+03  0.12322828631E+03  0.41800000000E+01 0. -1.
        -11    1    1    2    0    0  0.29349756861E+02 -0.10906062869E+02  0.34299454181E+02  0.46441393090E+02  0.00000000000E+00 0. -1.
         11    1    1    2    0    0  0.21898909855E+02  0.29407056833E+02 -0.68282836800E+02  0.77504084059E+02  0.00000000000E+00 0.  1.
</event>
<event>
 7    1  0.2651429E-009  0.1207835E+03  0.7561462E-02  0.1241810E+00
         -1   -1    0    0    0  501 -0.00000000000E+00  0.00000000000E+00  0.15879067155E+03  0.15879067155E+03  0.00000000000E+00 0.  1.
          1   -1    0    0  501    0  0.00000000000E+00 -0.00000000000E+00 -0.18116664768E+03  0.18116664768E+03  0.00000000000E+00 0. -1.
         25    2    1    2    0    0 -0.14821862360E+02  0.70875912819E+02  0.96427637895E+02  0.17374050746E+03  0.12507754379E+03 0.  0.
          5    1    3    3  502    0 -0.64894111676E+02  0.15957321272E+02  0.63732883439E+02  0.92440438466E+02  0.41800000000E+01 0.  1.
         -5    1    3    3    0  502  0.50072249316E+02  0.54918591547E+02  0.32694754456E+02  0.81300068992E+02  0.41800000000E+01 0.  1.
        -11    1    1    2    0    0  0.30092719569E+02 -0.25941654177E+01 -0.81517765849E+02  0.86933581626E+02  0.00000000000E+00 0. -1.
         11    1    1    2    0    0 -0.15270857209E+02 -0.68281747401E+02 -0.37285848181E+02  0.79283230148E+02  0.00000000000E+00 0.  1.
</event>
<event>
 7    1  0.2651429E-009  0.1293957E+03  0.7561462E-02  0.1228355E+00
          1   -1    0    0  501    0  0.00000000000E+00  0.00000000000E+00  0.61962004724E+03  0.61962004724E+03  0.00000000000E+00 0. -1.
         -1   -1    0    0    0  501 -0.00000000000E+00 -0.00000000000E+00 -0.35089073757E+02  0.35089073757E+02  0.00000000000E+00 0.  1.
         25    2    1    2    0    0 -0.74724533640E+02 -0.63609662490E+02  0.34575098835E+03  0.38055408845E+03  0.12509085979E+03 0.  0.
          5    1    3    3  502    0 -0.57399268553E+02  0.40092488791E+01  0.49050258912E+02  0.75724173196E+02  0.41800000000E+01 0.  1.
         -5    1    3    3    0  502 -0.17325265087E+02 -0.67618911369E+02  0.29670072944E+03  0.30482991526E+03  0.41800000000E+01 0.  1.
        -11    1    1    2    0    0  0.61156311715E+01  0.62250446347E+02  0.82999808951E+02  0.10393020399E+03  0.00000000000E+00 0. -1.
         11    1    1    2    0    0  0.68608902469E+02  0.13592161429E+01  0.15578017618E+03  0.17022482856E+03  0.00000000000E+00 0.  1.
</event>
<event>
 7    1  0.2651429E-009  0.1081442E+03  0.7561462E-02  0.1264046E+00
         -1   -1    0    0    0  501 -0.00000000000E+00  0.00000000000E+00  0.36143060108E+02  0.36143060108E+02  0.00000000000E+00 0.  1.
          1   -1    0    0  501    0  0.00000000000E+00 -0.00000000000E+00 -0.34316580265E+03  0.34316580265E+03  0.00000000000E+00 0. -1.
         25    2    1    2    0    0 -0.26712353378E+02 -0.62013371459E+01 -0.16226308251E+03  0.20670531160E+03  0.12508305838E+03 0.  0.
          5    1    3    3  502    0  0.21233791994E+02  0.48553577308E+02 -0.86776570086E+02  0.10176428307E+03  0.41800000000E+01 0. -1.
         -5    1    3    3    0  502 -0.47946145372E+02 -0.54754914454E+02 -0.75486512419E+02  0.10494102854E+03  0.41800000000E+01 0. -1.
        -11    1    1    2    0    0 -0.31554037085E+02 -0.66246162300E+00 -0.75521883706E+02  0.81851396019E+02  0.00000000000E+00 0. -1.
         11    1    1    2    0    0  0.58266390463E+02  0.68637987689E+01 -0.69237776331E+02  0.90752155139E+02  0.00000000000E+00 0.  1.
</event>
<event>
 7    1  0.2651429E-009  0.1270141E+03  0.7561462E-02  0.1231955E+00
          1   -1    0    0  501    0  0.00000000000E+00  0.00000000000E+00  0.96254418963E+02  0.96254418963E+02  0.00000000000E+00 0. -1.
         -1   -1    0    0    0  501 -0.00000000000E+00 -0.00000000000E+00 -0.27238520597E+03  0.27238520597E+03  0.00000000000E+00 0.  1.
         25    2    1    2    0    0 -0.89564756285E+02  0.50130825728E+02 -0.23125696100E+02  0.16346743023E+03  0.12510738455E+03 0.  0.
          5    1    3    3  502    0  0.18875223996E+02  0.18380122146E+02  0.28616099721E+02  0.39121049759E+02  0.41800000000E+01 0.  1.
         -5    1    3    3    0  502 -0.10843998028E+03  0.31750703582E+02 -0.51741795821E+02  0.12434638047E+03  0.41800000000E+01 0.  1.
        -11    1    1    2    0    0  0.50312518140E+02  0.37945204150E+00 -0.12611541418E+03  0.13578140947E+03  0.00000000000E+00 0.  1.
         11    1    1    2    0    0  0.39252238145E+02 -0.50510277769E+02 -0.26889676725E+02  0.69390785225E+02  0.00000000000E+00 0. -1.
</event>
<event>
 7    1  0.2651429E-009  0.8118375E+02  0.7561462E-02  0.1325725E+00
          1   -1    0    0  501    0  0.00000000000E+00  0.00000000000E+00  0.29355814480E+03  0.29355814480E+03  0.00000000000E+00 0. -1.
         -1   -1    0    0    0  501 -0.00000000000E+00 -0.00000000000E+00 -0.49403296125E+02  0.49403296125E+02  0.00000000000E+00 0.  1.
         25    2    1    2    0    0  0.12571731663E+02 -0.41031388952E+02  0.17388783344E+03  0.21846506221E+03  0.12509349092E+03 0.  0.
          5    1    3    3  502    0 -0.16184409024E+02 -0.17052248308E+02 -0.13429917448E+02  0.27396155761E+02  0.41800000000E+01 0.  1.
         -5    1    3    3    0  502  0.28756140687E+02 -0.23979140644E+02  0.18731775089E+03  0.19106890645E+03  0.41800000000E+01 0.  1.
        -11    1    1    2    0    0 -0.52102017856E+02  0.18349297706E+02  0.50410225415E+02  0.74783071730E+02  0.00000000000E+00 0. -1.
         11    1    1    2    0    0  0.39530286192E+02  0.22682091246E+02  0.19856789823E+02  0.49713306990E+02  0.00000000000E+00 0.  1.
</event>
<event>
 7    1  0.2651429E-009  0.1031515E+03  0.7561462E-02  0.1273805E+00
          1   -1    0    0  501    0  0.00000000000E+00  0.00000000000E+00  0.20502053673E+03  0.20502053673E+03  0.00000000000E+00 0. -1.
         -1   -1    0    0    0  501 -0.00000000000E+00 -0.00000000000E+00 -0.84205858277E+02  0.84205858277E+02  0.00000000000E+00 0.  1.
         25    2    1    2    0    0 -0.18073526293E+02  0.61964819003E+02  0.10110978919E+03  0.17331379033E+03  0.12509272282E+03 0.  0.
          5    1    3    3  502    0  0.23321152260E+02  0.31077409582E+01 -0.20806696356E+02  0.31684778836E+02  0.41800000000E+01 0. -1.
         -5    1    3    3    0  502 -0.41394678553E+02  0.58857078045E+02  0.12191648555E+03  0.14162901150E+03  0.41800000000E+01 0. -1.
        -11    1    1    2    0    0  0.13633810599E+02  0.22197717954E+02 -0.79091375882E+01  0.27224509751E+02  0.00000000000E+00 0.  1.
         11    1    1    2    0    0  0.44397156939E+01 -0.84162536957E+02  0.27614026848E+02  0.88688094924E+02  0.00000000000E+00 0. -1.
</event>
<event>
 7    1  0.2651429E-009  0.2459931E+03  0.7561462E-02  0.1115864E+00
         -1   -1    0    0    0  501 -0.00000000000E+00  0.00000000000E+00  0.17804605529E+03  0.17804605529E+03  0.00000000000E+00 0.  1.
          1   -1    0    0  501    0  0.00000000000E+00 -0.00000000000E+00 -0.38270043648E+03  0.38270043648E+03  0.00000000000E+00 0. -1.
         25    2    1    2    0    0 -0.21615480997E+03  0.67364306905E+02 -0.28092971648E+02  0.26018647428E+03  0.12508770772E+03 0.  0.
          5    1    3    3  502    0 -0.17976743796E+03  0.98171390413E+02 -0.35550423380E+00  0.20486959860E+03  0.41800000000E+01 0.  1.
         -5    1    3    3    0  502 -0.36387372008E+02 -0.30807083508E+02 -0.27737467414E+02  0.55316875675E+02  0.41800000000E+01 0.  1.
        -11    1    1    2    0    0  0.59773429625E+02 -0.56900171320E+02 -0.36016039686E+02  0.90042476087E+02  0.00000000000E+00 0. -1.
         11    1    1    2    0    0  0.15638138035E+03 -0.10464135586E+02 -0.14054536985E+03  0.21051754141E+03  0.00000000000E+00 0.  1.
</event>
<event>
 7    1  0.2651429E-009  0.1600024E+03  0.7561462E-02  0.1188694E+00
          2   -1    0    0  501    0  0.00000000000E+00  0.00000000000E+00  0.84093029967E+03  0.84093029967E+03  0.00000000000E+00 0. -1.
         -2   -1    0    0    0  501 -0.00000000000E+00 -0.00000000000E+00 -0.32251583682E+02  0.32251583682E+02  0.00000000000E+00 0.  1.
         25    2    1    2    0    0 -0.57607163116E+02 -0.10778202465E+03  0.37718612011E+03  0.41575025387E+03  0.12507339571E+03 0.  0.
          5    1    3    3  502    0  0.88564706491E+01 -0.10377360258E+03  0.27088886423E+03  0.29025100659E+03  0.41800000000E+01 0.  1.
         -5    1    3    3    0  502 -0.66463633765E+02 -0.40084220737E+01  0.10629725588E+03  0.12549924728E+03  0.41800000000E+01 0.  1.
        -11    1    1    2    0    0  0.46913209872E+02  0.12231959954E+03  0.40247141948E+03  0.42325663278E+03  0.00000000000E+00 0. -1.
         11    1    1    2    0    0  0.10693953244E+02 -0.14537574893E+02  0.29021176398E+02  0.34174996697E+02  0.00000000000E+00 0.  1.
</event>
<event>
 7    1  0.2651429E-009  0.1021070E+03  0.7561462E-02  0.1275927E+00
          1   -1    0    0  501    0  0.00000000000E+00  0.00000000000E+00  0.66282704274E+02  0.66282704274E+02  0.00000000000E+00 0. -1.
         -1   -1    0    0    0  501 -0.00000000000E+00 -0.00000000000E+00 -0.26241369027E+03  0.26241369027E+03  0.00000000000E+00 0.  1.
         25    2    1    2    0    0 -0.30498115445E+02 -0.11028783158E+02 -0.19165898252E+03  0.23115227968E+03  0.12508573746E+03 0.  0.
          5    1    3    3  502    0  0.37445785902E+02 -0.34716684741E+02 -0.46975005024E+02  0.69509413594E+02  0.41800000000E+01 0. -1.
         -5    1    3    3    0  502 -0.67943901347E+02  0.23687901583E+02 -0.14468397749E+03  0.16164286608E+03  0.41800000000E+01 0. -1.
        -11    1    1    2    0    0 -0.18985839261E+02 -0.15723550089E+02 -0.27347518718E+02  0.36818187080E+02  0.00000000000E+00 0.  1.
         11    1    1    2    0    0  0.49483954707E+02  0.26752333247E+02  0.22875515243E+02  0.60725927784E+02  0.00000000000E+00 0. -1.
</event>
<event>
 7    1  0.2651429E-009  0.1000815E+03  0.7561462E-02  0.1280125E+00
         -2   -1    0    0    0  501 -0.00000000000E+00  0.00000000000E+00  0.44087928692E+02  0.44087928692E+02  0.00000000000E+00 0.  1.
          2   -1    0    0  501    0  0.00000000000E+00 -0.00000000000E+00 -0.33339069260E+03  0.33339069260E+03  0.00000000000E+00 0. -1.
         25    2    1    2    0    0  0.17591210168E+02 -0.45726265344E+02 -0.13276198448E+03  0.18887115258E+03  0.12508487414E+03 0.  0.
          5    1    3    3  502    0 -0.28757158695E+02  0.30216235482E+02 -0.63286400393E+02  0.75912027621E+02  0.41800000000E+01 0. -1.
         -5    1    3    3    0  502  0.46348368863E+02 -0.75942500826E+02 -0.69475584084E+02  0.11295912496E+03  0.41800000000E+01 0. -1.
        -11    1    1    2    0    0 -0.34633656849E+02  0.27522990258E+02 -0.17867566672E+02  0.47710115471E+02  0.00000000000E+00 0.  1.
         11    1    1    2    0    0  0.17042446682E+02  0.18203275086E+02 -0.13867321276E+03  0.14089735324E+03  0.00000000000E+00 0. -1.
</event>
<event>
 7    1  0.2651429E-009  0.1397440E+03  0.7561462E-02  0.1213674E+00
          1   -1    0    0  501    0  0.00000000000E+00  0.00000000000E+00  0.52676793707E+03  0.52676793707E+03  0.00000000000E+00 0. -1.
         -1   -1    0    0    0  501 -0.00000000000E+00 -0.00000000000E+00 -0.39153901330E+02  0.39153901330E+02  0.00000000000E+00 0.  1.
         25    2    1    2    0    0  0.67463637694E+02 -0.60214107670E+02  0.22495902168E+03  0.27282361646E+03  0.12509629527E+03 0.  0.
          5    1    3    3  502    0  0.48474469825E+01  0.34974402701E+02  0.86114121065E+02  0.93165556046E+02  0.41800000000E+01 0.  1.
         -5    1    3    3    0  502  0.62616190711E+02 -0.95188510371E+02  0.13884490062E+03  0.17965806042E+03  0.41800000000E+01 0.  1.
        -11    1    1    2    0    0  0.98296339931E+01  0.51161825896E+02  0.11236574812E+03  0.12385562355E+03  0.00000000000E+00 0.  1.
         11    1    1    2    0    0 -0.77293271687E+02  0.90522817739E+01  0.15028926594E+03  0.16924259839E+03  0.00000000000E+00 0. -1.
</event>
<event>
 7    1  0.2651429E-009  0.1115266E+03  0.7561462E-02  0.1257769E+00
          2   -1    0    0  501    0  0.00000000000E+00  0.00000000000E+00  0.75439415174E+03  0.75439415174E+03  0.00000000000E+00 0. -1.
         -2   -1    0    0    0  501 -0.00000000000E+00 -0.00000000000E+00 -0.26021357547E+02  0.26021357547E+02  0.00000000000E+00 0.  1.
         25    2    1    2    0    0 -0.35252931955E+02 -0.51748254747E+02  0.22202361598E+03  0.26241574940E+03  0.12508752296E+03 0.  0.
          5    1    3    3  502    0  0.17956630930E+02 -0.58146578146E+02  0.40797427083E+02  0.73385063883E+02  0.41800000000E+01 0. -1.
         -5    1    3    3    0  502 -0.53209562885E+02  0.63983233992E+01  0.18122618890E+03  0.18903068552E+03  0.41800000000E+01 0. -1.
        -11    1    1    2    0    0 -0.86751837815E+01  0.62478880768E+02  0.26064987916E+03  0.26817387804E+03  0.00000000000E+00 0. -1.
         11    1    1    2    0    0  0.43928115737E+02 -0.10730626021E+02  0.24569929904E+03  0.24982588184E+03  0.00000000000E+00 0.  1.
</event>
<event>
 7    1  0.2651429E-009  0.1788728E+03  0.7561462E-02  0.1168898E+00
          2   -1    0    0  501    0  0.00000000000E+00  0.00000000000E+00  0.71625436071E+03  0.71625436071E+03  0.00000000000E+00 0. -1.
         -2   -1    0    0    0  501 -0.00000000000E+00 -0.00000000000E+00 -0.47910709325E+02  0.47910709325E+02  0.00000000000E+00 0.  1.
         25    2    1    2    0    0 -0.36053058532E+02  0.14444091502E+03  0.32324003716E+03  0.37721874222E+03  0.12508739706E+03 0.  0.
          5    1    3    3  502    0 -0.74659095286E+02  0.47543064107E+02  0.12570316673E+03  0.15379558505E+03  0.41800000000E+01 0. -1.
         -5    1    3    3    0  502  0.38606036754E+02  0.96897850910E+02  0.19753687043E+03  0.22342315718E+03  0.41800000000E+01 0. -1.
        -11    1    1    2    0    0  0.20164497170E+02 -0.74905070589E+00  0.11172955908E+02  0.23065189503E+02  0.00000000000E+00 0.  1.
         11    1    1    2    0    0  0.15888561362E+02 -0.14369186431E+03  0.33393065832E+03  0.36388113831E+03  0.00000000000E+00 0. -1.
</event>
<event>
 7    1  0.2651429E-009  0.1262023E+03  0.7561462E-02  0.1233202E+00
         -1   -1    0    0    0  501 -0.00000000000E+00  0.00000000000E+00  0.17973736615E+03  0.17973736615E+03  0.00000000000E+00 0.  1.
          1   -1    0    0  501    0  0.00000000000E+00 -0.00000000000E+00 -0.19160128149E+03  0.19160128149E+03  0.00000000000E+00 0. -1.
         25    2    1    2    0    0  0.91858803161E+02  0.64109195618E+02  0.93654415238E+02  0.19226927009E+03  0.12509314149E+03 0.  0.
          5    1    3    3  502    0  0.48602375893E+02  0.61107070751E+02 -0.10953317127E+02  0.78953863707E+02  0.41800000000E+01 0.  1.
         -5    1    3    3    0  502  0.43256427268E+02  0.30021248675E+01  0.10460773237E+03  0.11331540639E+03  0.41800000000E+01 0.  1.
        -11    1    1    2    0    0  0.10167242369E+02 -0.20013858852E-01  0.84509243449E+01  0.13220867605E+02  0.00000000000E+00 0.  1.
         11    1    1    2    0    0 -0.10202604553E+03 -0.64089181759E+02 -0.11396925492E+03  0.16584850995E+03  0.00000000000E+00 0. -1.
</event>
<event>
 7    1  0.2651429E-009  0.7713902E+02  0.7561462E-02  0.1337372E+00
          1   -1    0    0  501    0  0.00000000000E+00  0.00000000000E+00  0.23142055267E+03  0.23142055267E+03  0.00000000000E+00 0. -1.
         -1   -1    0    0    0  501 -0.00000000000E+00 -0.00000000000E+00 -0.68222513318E+02  0.68222513318E+02  0.00000000000E+00 0.  1.
         25    2    1    2    0    0 -0.39989159062E+02 -0.32880384990E+02  0.45489798713E+02  0.14281744774E+03  0.12508896447E+03 0.  0.
          5    1    3    3  502    0 -0.63834312070E+00 -0.45115550645E+02 -0.31642003691E+02  0.55267614292E+02  0.41800000000E+01 0.  1.
         -5    1    3    3    0  502 -0.39350815942E+02  0.12235165655E+02  0.77131802404E+02  0.87549833443E+02  0.41800000000E+01 0.  1.
        -11    1    1    2    0    0  0.23558966796E+02 -0.68632795786E+01  0.11053451401E+03  0.11322547553E+03  0.00000000000E+00 0. -1.
         11    1    1    2    0    0  0.16430192266E+02  0.39743664569E+02  0.71737266317E+01  0.43600142718E+02  0.00000000000E+00 0.  1.
</event>
<event>
 7    1  0.2651429E-009  0.1396478E+03  0.7561462E-02  0.1213804E+00
         -1   -1    0    0    0  501 -0.00000000000E+00  0.00000000000E+00  0.18662341891E+02  0.18662341891E+02  0.00000000000E+00 0.  1.
          1   -1    0    0  501    0  0.00000000000E+00 -0.00000000000E+00 -0.12666728990E+04  0.12666728990E+04  0.00000000000E+00 0. -1.
         25    2    1    2    0    0 -0.92070106774E+02  0.70088790424E+01 -0.90755689383E+03  0.92077821799E+03  0.12508789804E+03 0.  0.
          5    1    3    3  502    0 -0.12120106429E+03  0.11462125677E+02 -0.79826760727E+03  0.80750834270E+03  0.41800000000E+01 0.  1.
         -5    1    3    3    0  502  0.29130957517E+02 -0.44532466349E+01 -0.10928928656E+03  0.11326987529E+03  0.41800000000E+01 0.  1.
        -11    1    1    2    0    0  0.94343027518E+02  0.23417943416E+02 -0.28691571465E+03  0.30293503302E+03  0.00000000000E+00 0. -1.
         11    1    1    2    0    0 -0.22729207438E+01 -0.30426822459E+02 -0.53537948595E+02  0.61621989853E+02  0.00000000000E+00 0.  1.
</event>
<event>
 7    1  0.2651429E-009  0.1071603E+03  0.7561462E-02  0.1265921E+00
          2   -1    0    0  501    0  0.00000000000E+00  0.00000000000E+00  0.23249235286E+04  0.23249235286E+04  0.00000000000E+00 0. -1.
         -2   -1    0    0    0  501 -0.00000000000E+00 -0.00000000000E+00 -0.13114198156E+02  0.13114198156E+02  0.00000000000E+00 0.  1.
         25    2    1    2    0    0 -0.38588789421E+02 -0.64181612366E+02  0.19984199525E+04  0.20037310085E+04  0.12508906383E+03 0.  0.
          5    1    3    3  502    0 -0.68946646579E+02 -0.64849482342E+02  0.91797885585E+03  0.92285521488E+03  0.41800000000E+01 0. -1.
         -5    1    3    3    0  502  0.30357857158E+02  0.66786997590E+00  0.10804410967E+04  0.10808757936E+04  0.41800000000E+01 0. -1.
        -11    1    1    2    0    0  0.29161457720E+02  0.57323120008E+01  0.22033278982E+02  0.36996153853E+02  0.00000000000E+00 0.  1.
         11    1    1    2    0    0  0.94273317016E+01  0.58449300366E+02  0.29135609896E+03  0.29731056439E+03  0.00000000000E+00 0. -1.
</event>
<event>
 7    1  0.2651429E-009  0.1758778E+03  0.7561462E-02  0.1171853E+00
          1   -1    0    0  501    0  0.00000000000E+00  0.00000000000E+00  0.98139246741E+03  0.98139246741E+03  0.00000000000E+00 0. -1.
         -1   -1    0    0    0  501 -0.00000000000E+00 -0.00000000000E+00 -0.40039419933E+02  0.40039419933E+02  0.00000000000E+00 0.  1.
         25    2    1    2    0    0  0.13643352646E+03 -0.57245654608E+02  0.69314512814E+03  0.71971368043E+03  0.12508573471E+03 0.  0.
          5    1    3    3  502    0  0.68827841283E+02 -0.85981219839E+02  0.52054161664E+03  0.53208184422E+03  0.41800000000E+01 0.  1.
         -5    1    3    3    0  502  0.67605685176E+02  0.28735565232E+02  0.17260351150E+03  0.18763183621E+03  0.41800000000E+01 0.  1.
        -11    1    1    2    0    0  0.15779691546E+01  0.26525659635E+02  0.65553014579E+02  0.70733996961E+02  0.00000000000E+00 0. -1.
         11    1    1    2    0    0 -0.13801149561E+03  0.30719994972E+02  0.18265490476E+03  0.23098420995E+03  0.00000000000E+00 0.  1.
</event>
<event>
 7    1  0.2651429E-009  0.1253933E+03  0.7561462E-02  0.1234456E+00
         -1   -1    0    0    0  501 -0.00000000000E+00  0.00000000000E+00  0.27649575720E+02  0.27649575720E+02  0.00000000000E+00 0.  1.
          1   -1    0    0  501    0  0.00000000000E+00 -0.00000000000E+00 -0.61201004189E+03  0.61201004189E+03  0.00000000000E+00 0. -1.
         25    2    1    2    0    0 -0.64990870871E+02 -0.19814678507E+02 -0.28296963798E+03  0.31675597637E+03  0.12508436260E+03 0.  0.
          5    1    3    3  502    0  0.10304148810E+01  0.46827987923E+02 -0.74291437759E+02  0.87923900801E+02  0.41800000000E+01 0. -1.
         -5    1    3    3    0  502 -0.66021285752E+02 -0.66642666430E+02 -0.20867820022E+03  0.22883207557E+03  0.41800000000E+01 0. -1.
        -11    1    1    2    0    0  0.13565409373E+02  0.48921971500E+02 -0.89167495350E+02  0.10260712380E+03  0.00000000000E+00 0.  1.
         11    1    1    2    0    0  0.51425461498E+02 -0.29107292994E+02 -0.21222333284E+03  0.22029651744E+03  0.00000000000E+00 0. -1.
</event>
<event>
 7    1  0.2651429E-009  0.1566182E+03  0.7561462E-02  0.1192569E+00
         -2   -1    0    0    0  501 -0.00000000000E+00  0.00000000000E+00  0.11811052002E+03  0.11811052002E+03  0.00000000000E+00 0.  1.
          2   -1    0    0  501    0  0.00000000000E+00 -0.00000000000E+00 -0.25397030312E+03  0.25397030312E+03  0.00000000000E+00 0. -1.
         25    2    1    2    0    0  0.13039003556E+03 -0.86570148686E+01 -0.56728761469E+02  0.18958368344E+03  0.12508922963E+03 0.  0.
          5    1    3    3  502    0  0.23572024862E+02 -0.33696959356E+02  0.28824925318E+02  0.50393195429E+02  0.41800000000E+01 0. -1.
         -5    1    3    3    0  502  0.10681801070E+03  0.25039944488E+02 -0.85553686787E+02  0.13919048801E+03  0.41800000000E+01 0. -1.
        -11    1    1    2    0    0 -0.43314633235E+02 -0.42858981195E+02 -0.44897608801E+02  0.75689133946E+02  0.00000000000E+00 0. -1.
         11    1    1    2    0    0 -0.87075402325E+02  0.51515996064E+02 -0.34233412826E+02  0.10680800576E+03  0.00000000000E+00 0.  1.
</event>
<event>
 7    1  0.2651429E-009  0.3599081E+03  0.7561462E-02  0.1058620E+00
         -2   -1    0    0    0  501 -0.00000000000E+00  0.00000000000E+00  0.90745593210E+03  0.90745593210E+03  0.00000000000E+00 0. -1.
          2   -1    0    0  501    0  0.00000000000E+00 -0.00000000000E+00 -0.14932170215E+03  0.14932170215E+03  0.00000000000E+00 0.  1.
         25    2    1    2    0    0  0.24077163773E+03  0.24897929918E+03  0.29665056586E+03  0.47287529115E+03  0.12509120593E+03 0.  0.
          5    1    3    3  502    0  0.20315281277E+01  0.63863928516E+02  0.72158011854E+02  0.96472688087E+02  0.41800000000E+01 0.  1.
         -5    1    3    3    0  502  0.23874010960E+03  0.18511537066E+03  0.22449255400E+03  0.37640260306E+03  0.41800000000E+01 0.  1.
        -11    1    1    2    0    0 -0.12085655898E+03 -0.17526329208E+03  0.31980821313E+03  0.38418852479E+03  0.00000000000E+00 0.  1.
         11    1    1    2    0    0 -0.11991507875E+03 -0.73716007096E+02  0.14167545096E+03  0.19971381830E+03  0.00000000000E+00 0. -1.
</event>
<event>
 7    1  0.2651429E-009  0.8988471E+02  0.7561462E-02  0.1303131E+00
         -3   -1    0    0    0  501 -0.00000000000E+00  0.00000000000E+00  0.13756718825E+03  0.13756718825E+03  0.00000000000E+00 0.  1.
          3   -1    0    0  501    0  0.00000000000E+00 -0.00000000000E+00 -0.11001908143E+03  0.11001908143E+03  0.00000000000E+00 0. -1.
         25    2    1    2    0    0 -0.41734101594E+02 -0.43931843948E+01  0.54830272785E+02  0.14286636455E+03  0.12507359434E+03 0.  0.
          5    1    3    3  502    0 -0.73293521169E+02  0.18133074451E+02  0.68007333434E+02  0.10170161471E+03  0.41800000000E+01 0.  1.
         -5    1    3    3    0  502  0.31559419575E+02 -0.22526258846E+02 -0.13177060649E+02  0.41164749833E+02  0.41800000000E+01 0.  1.
        -11    1    1    2    0    0  0.15960983662E+02  0.26672837838E+02 -0.53402951537E+02  0.61790521204E+02  0.00000000000E+00 0. -1.
         11    1    1    2    0    0  0.25773117932E+02 -0.22279653443E+02  0.26120785580E+02  0.42929383932E+02  0.00000000000E+00 0.  1.
</event>
<event>
 7    1  0.2651429E-009  0.1077989E+03  0.7561462E-02  0.1264701E+00
         -1   -1    0    0    0  501 -0.00000000000E+00  0.00000000000E+00  0.44624474540E+02  0.44624474540E+02  0.00000000000E+00 0.  1.
          1   -1    0    0  501    0  0.00000000000E+00 -0.00000000000E+00 -0.38890238517E+03  0.38890238517E+03  0.00000000000E+00 0. -1.
         25    2    1    2    0    0  0.15489408763E+02  0.69481367470E+02 -0.15700223277E+03  0.21298956105E+03  0.12508904754E+03 0.  0.
          5    1    3    3  502    0 -0.30775068030E+02  0.17265090678E+01  0.48512135139E+01  0.31481618738E+02  0.41800000000E+01 0. -1.
         -5    1    3    3    0  502  0.46264476793E+02  0.67754858402E+02 -0.16185344628E+03  0.18150794232E+03  0.41800000000E+01 0. -1.
        -11    1    1    2    0    0 -0.11149465947E+02  0.14476525849E+02 -0.90582804109E+02  0.92407384942E+02  0.00000000000E+00 0. -1.
         11    1    1    2    0    0 -0.43399428163E+01 -0.83957893319E+02 -0.96692873754E+02  0.12812991372E+03  0.00000000000E+00 0.  1.
</event>
<event>
 7    1  0.2651429E-009  0.1575562E+03  0.7561462E-02  0.1191484E+00
         -1   -1    0    0    0  501 -0.00000000000E+00  0.00000000000E+00  0.41152276350E+03  0.41152276350E+03  0.00000000000E+00 0.  1.
          1   -1    0    0  501    0  0.00000000000E+00 -0.00000000000E+00 -0.96570606772E+02  0.96570606772E+02  0.00000000000E+00 0. -1.
         25    2    1    2    0    0 -0.12303997052E+03 -0.30659063347E+01  0.30784821148E+03  0.35435254531E+03  0.12508785284E+03 0.  0.
          5    1    3    3  502    0  0.41555900805E+01 -0.34383800932E+02  0.12234681425E+03  0.12722315062E+03  0.41800000000E+01 0. -1.
         -5    1    3    3    0  502 -0.12719556060E+03  0.31317894597E+02  0.18550139723E+03  0.22712939469E+03  0.41800000000E+01 0. -1.
        -11    1    1    2    0    0 -0.11926162932E+02  0.75681542939E+01  0.12112065721E+02  0.18606785261E+02  0.00000000000E+00 0.  1.
         11    1    1    2    0    0  0.13496613346E+03 -0.45022479591E+01 -0.50081204680E+01  0.13513403971E+03  0.00000000000E+00 0. -1.
</event>
<event>
 7    1  0.2651429E-009  0.1212476E+03  0.7561462E-02  0.1241053E+00
         -1   -1    0    0    0  501 -0.00000000000E+00  0.00000000000E+00  0.14559164894E+02  0.14559164894E+02  0.00000000000E+00 0.  1.
          1   -1    0    0  501    0  0.00000000000E+00 -0.00000000000E+00 -0.11216657133E+04  0.11216657133E+04  0.00000000000E+00 0. -1.
         25    2    1    2    0    0  0.44562934388E+02  0.51870593774E+02 -0.63079388313E+03  0.64670341981E+03  0.12509187255E+03 0.  0.
          5    1    3    3  502    0 -0.29515630688E+02  0.47306914457E+02 -0.40850843926E+03  0.41231751595E+03  0.41800000000E+01 0.  1.
         -5    1    3    3    0  502  0.74078565075E+02  0.45636793170E+01 -0.22228544387E+03  0.23438590386E+03  0.41800000000E+01 0.  1.
        -11    1    1    2    0    0 -0.71948383438E+02 -0.40736660332E+02 -0.37357839612E+03  0.38261843058E+03  0.00000000000E+00 0.  1.
         11    1    1    2    0    0  0.27385449050E+02 -0.11133933442E+02 -0.10273426911E+03  0.10690302776E+03  0.00000000000E+00 0. -1.
</event>
<event>
 7    1  0.2651429E-009  0.2042214E+03  0.7561462E-02  0.1146226E+00
          1   -1    0    0  501    0  0.00000000000E+00  0.00000000000E+00  0.72598240926E+03  0.72598240926E+03  0.00000000000E+00 0. -1.
         -1   -1    0    0    0  501 -0.00000000000E+00 -0.00000000000E+00 -0.82737228490E+02  0.82737228490E+02  0.00000000000E+00 0.  1.
         25    2    1    2    0    0 -0.19664340411E+03  0.19223564525E+02  0.17385609203E+03  0.29139523294E+03  0.12508823778E+03 0.  0.
          5    1    3    3  502    0 -0.35823037654E+01  0.38663405975E+01 -0.17716579955E+02  0.18950754476E+02  0.41800000000E+01 0. -1.
         -5    1    3    3    0  502 -0.19306110034E+03  0.15357223928E+02  0.19157267199E+03  0.27244447846E+03  0.41800000000E+01 0. -1.
        -11    1    1    2    0    0  0.87014471052E+01  0.14640466980E+02  0.10052485931E+03  0.10195737244E+03  0.00000000000E+00 0. -1.
         11    1    1    2    0    0  0.18794195700E+03 -0.33864031505E+02  0.36886422942E+03  0.41536703237E+03  0.00000000000E+00 0.  1.
</event>
<event>
 7    1  0.3305032E-009  0.1242677E+03  0.7561462E-02  0.1236218E+00
         -2   -1    0    0    0  501 -0.00000000000E+00  0.00000000000E+00  0.35630283652E+02  0.35630283652E+02  0.00000000000E+00 0.  1.
          2   -1    0    0  501    0  0.00000000000E+00 -0.00000000000E+00 -0.55090948309E+03  0.55090948309E+03  0.00000000000E+00 0. -1.
         25    2    1    2    0    0 -0.60105890186E+02  0.61995564384E+02 -0.23767871266E+03  0.28212568847E+03  0.12509022986E+03 0.  0.
          5    1    3    3  502    0  0.33471126092E+02  0.41500746357E+02 -0.61154392034E+02  0.81240139680E+02  0.41800000000E+01 0. -1.
         -5    1    3    3    0  502 -0.93577016278E+02  0.20494818028E+02 -0.17652432063E+03  0.20088554879E+03  0.41800000000E+01 0. -1.
        -11    1    1    2    0    0  0.88002819677E+01 -0.43888665005E+02 -0.22257830884E+03  0.22703471858E+03  0.00000000000E+00 0. -1.
         11    1    1    2    0    0  0.51305608218E+02 -0.18106899379E+02 -0.55022177942E+02  0.77379359685E+02  0.00000000000E+00 0.  1.
</event>
<event>
 7    1  0.2651429E-009  0.1192840E+03  0.7561462E-02  0.1244283E+00
         -2   -1    0    0    0  501 -0.00000000000E+00  0.00000000000E+00  0.29936332780E+02  0.29936332780E+02  0.00000000000E+00 0.  1.
          2   -1    0    0  501    0  0.00000000000E+00 -0.00000000000E+00 -0.58162811896E+03  0.58162811896E+03  0.00000000000E+00 0. -1.
         25    2    1    2    0    0  0.72114590259E+02 -0.74069628879E+01 -0.33188243122E+03  0.36200671779E+03  0.12509012090E+03 0.  0.
          5    1    3    3  502    0  0.99484868569E+02  0.16469802642E+02 -0.28633131573E+03  0.30359774083E+03  0.41800000000E+01 0.  1.
         -5    1    3    3    0  502 -0.27370278309E+02 -0.23876765529E+02 -0.45551115491E+02  0.58408976958E+02  0.41800000000E+01 0.  1.
        -11    1    1    2    0    0 -0.35342543463E+02 -0.31646481434E+02 -0.40434640142E+02  0.62334222454E+02  0.00000000000E+00 0.  1.
         11    1    1    2    0    0 -0.36772046797E+02  0.39053444322E+02 -0.17937471482E+03  0.18722351150E+03  0.00000000000E+00 0. -1.
</event>
<event>
 7    1  0.4346515E-009  0.1381760E+03  0.7561462E-02  0.1215805E+00
         -1   -1    0    0    0  501 -0.00000000000E+00  0.00000000000E+00  0.17409382211E+02  0.17409382211E+02  0.00000000000E+00 0.  1.
          1   -1    0    0  501    0  0.00000000000E+00 -0.00000000000E+00 -0.12401002255E+04  0.12401002255E+04  0.00000000000E+00 0. -1.
         25    2    1    2    0    0  0.78830961671E+02  0.51571544406E+02 -0.79018054343E+03  0.80554661571E+03  0.12508442812E+03 0.  0.
          5    1    3    3  502    0  0.15120294902E+02 -0.39511982906E+02 -0.15618938230E+03  0.16187160237E+03  0.41800000000E+01 0. -1.
         -5    1    3    3    0  502  0.63710666769E+02  0.91083527312E+02 -0.63399116114E+03  0.64367501335E+03  0.41800000000E+01 0. -1.
        -11    1    1    2    0    0 -0.40580948190E+02  0.17071964714E+02 -0.85531326537E+02  0.96197053772E+02  0.00000000000E+00 0.  1.
         11    1    1    2    0    0 -0.38250013481E+02 -0.68643509119E+02 -0.34697897336E+03  0.35576593827E+03  0.00000000000E+00 0. -1.
</event>
<event>
 7    1  0.2651429E-009  0.9866023E+02  0.7561462E-02  0.1283139E+00
          1   -1    0    0  501    0  0.00000000000E+00  0.00000000000E+00  0.75030347137E+02  0.75030347137E+02  0.00000000000E+00 0. -1.
         -1   -1    0    0    0  501 -0.00000000000E+00 -0.00000000000E+00 -0.15665614581E+03  0.15665614581E+03  0.00000000000E+00 0.  1.
         25    2    1    2    0    0  0.10037131285E+01  0.31077808126E+01 -0.61322232586E+02  0.13935165996E+03  0.12509117948E+03 0.  0.
          5    1    3    3  502    0  0.53915471000E+02  0.25699756596E+02 -0.55036435077E+02  0.81325500848E+02  0.41800000000E+01 0.  1.
         -5    1    3    3    0  502 -0.52911757872E+02 -0.22591975783E+02 -0.62857975093E+01  0.58026159111E+02  0.41800000000E+01 0.  1.
        -11    1    1    2    0    0 -0.35273705103E+02 -0.21052429086E+02 -0.31833390904E+02  0.51969258399E+02  0.00000000000E+00 0.  1.
         11    1    1    2    0    0  0.34269991975E+02  0.17944648273E+02  0.11529824816E+02  0.40365574589E+02  0.00000000000E+00 0. -1.
</event>
<event>
 7    1  0.2651429E-009  0.9208418E+02  0.7561462E-02  0.1297882E+00
          3   -1    0    0  501    0  0.00000000000E+00  0.00000000000E+00  0.33500142963E+02  0.33500142963E+02  0.00000000000E+00 0. -1.
         -3   -1    0    0    0  501 -0.00000000000E+00 -0.00000000000E+00 -0.42877060045E+03  0.42877060045E+03  0.00000000000E+00 0.  1.
         25    2    1    2    0    0  0.10602906921E+02  0.27996544503E+02 -0.30030170958E+03  0.32668555176E+03  0.12508439075E+03 0.  0.
          5    1    3    3  502    0  0.44221345913E+02 -0.34550955714E+02 -0.15517324319E+03  0.16506212097E+03  0.41800000000E+01 0.  1.
         -5    1    3    3    0  502 -0.33618438992E+02  0.62547500216E+02 -0.14512846639E+03  0.16162343079E+03  0.41800000000E+01 0.  1.
        -11    1    1    2    0    0  0.17861412557E+02 -0.20770810338E+02 -0.10181046241E+03  0.10543162181E+03  0.00000000000E+00 0.  1.
         11    1    1    2    0    0 -0.28464319478E+02 -0.72257341643E+01  0.68417145031E+01  0.30153569853E+02  0.00000000000E+00 0. -1.
</event>
<event>
 7    1  0.2651429E-009  0.3133475E+03  0.7561462E-02  0.1078752E+00
         -1   -1    0    0    0  501 -0.00000000000E+00  0.00000000000E+00  0.53163266554E+03  0.53163266554E+03  0.00000000000E+00 0.  1.
          1   -1    0    0  501    0  0.00000000000E+00 -0.00000000000E+00 -0.20151579529E+03  0.20151579529E+03  0.00000000000E+00 0. -1.
         25    2    1    2    0    0 -0.18834362630E+03  0.22876963102E+03  0.26424815159E+03  0.41627170133E+03  0.12508468357E+03 0.  0.
          5    1    3    3  502    0 -0.67559104723E+02  0.17460290248E+03  0.13201794804E+03  0.22912140273E+03  0.41800000000E+01 0. -1.
         -5    1    3    3    0  502 -0.12078452158E+03  0.54166728537E+02  0.13223020355E+03  0.18715029860E+03  0.41800000000E+01 0. -1.
        -11    1    1    2    0    0  0.16519083390E+03 -0.14409015575E+03  0.66562713043E+02  0.22908640151E+03  0.00000000000E+00 0. -1.
         11    1    1    2    0    0  0.23152792404E+02 -0.84679475271E+02 -0.69399438584E+00  0.87790357992E+02  0.00000000000E+00 0.  1.
</event>
<event>
 7    1  0.2651429E-009  0.9175639E+02  0.7561462E-02  0.1298653E+00
         -2   -1    0    0    0  501 -0.00000000000E+00  0.00000000000E+00  0.16682122721E+02  0.16682122721E+02  0.00000000000E+00 0.  1.
          2   -1    0    0  501    0  0.00000000000E+00 -0.00000000000E+00 -0.96667322680E+03  0.96667322680E+03  0.00000000000E+00 0. -1.
         25    2    1    2    0    0  0.14017796510E+02  0.10361609853E+02 -0.76924703313E+03  0.77954599672E+03  0.12508837451E+03 0.  0.
          5    1    3    3  502    0  0.42709575045E+02  0.31690864476E+02 -0.14911794717E+03  0.15837314564E+03  0.41800000000E+01 0. -1.
         -5    1    3    3    0  502 -0.28691778536E+02 -0.21329254622E+02 -0.62012908596E+03  0.62117285107E+03  0.41800000000E+01 0. -1.
        -11    1    1    2    0    0 -0.52973004212E+02 -0.14700531547E+02 -0.10414272403E+03  0.11776226803E+03  0.00000000000E+00 0.  1.
         11    1    1    2    0    0  0.38955207703E+02  0.43389216941E+01 -0.76601346918E+02  0.86047084775E+02  0.00000000000E+00 0. -1.
</event>
<event>
 7    1  0.2651429E-009  0.8137087E+02  0.7561462E-02  0.1325206E+00
         -1   -1    0    0    0  501 -0.00000000000E+00  0.00000000000E+00  0.31634449154E+03  0.31634449154E+03  0.00000000000E+00 0.  1.
          1   -1    0    0  501    0  0.00000000000E+00 -0.00000000000E+00 -0.45512636216E+02  0.45512636216E+02  0.00000000000E+00 0. -1.
         25    2    1    2    0    0 -0.21167961146E+02  0.45644385727E+02  0.13903154152E+03  0.19367168775E+03  0.12508981002E+03 0.  0.
          5    1    3    3  502    0 -0.59220648122E+01 -0.25772217873E+02 -0.92545175287E+01  0.28326605169E+02  0.41800000000E+01 0. -1.
         -5    1    3    3    0  502 -0.15245896334E+02  0.71416603600E+02  0.14828605905E+03  0.16534508258E+03  0.41800000000E+01 0. -1.
        -11    1    1    2    0    0  0.21199352959E+01 -0.43617116030E+02  0.14051242093E+03  0.14714172547E+03  0.00000000000E+00 0.  1.
         11    1    1    2    0    0  0.19048025851E+02 -0.20272696968E+01 -0.87121071271E+01  0.21043714544E+02  0.00000000000E+00 0. -1.
</event>
<event>
 7    1  0.2651429E-009  0.9364242E+02  0.7561462E-02  0.1294263E+00
         -1   -1    0    0    0  501 -0.00000000000E+00  0.00000000000E+00  0.29727351218E+02  0.29727351218E+02  0.00000000000E+00 0.  1.
          1   -1    0    0  501    0  0.00000000000E+00 -0.00000000000E+00 -0.56593736081E+03  0.56593736081E+03  0.00000000000E+00 0. -1.
         25    2    1    2    0    0 -0.20510222944E+02  0.66106205181E+02 -0.33433524129E+03  0.36361839549E+03  0.12509030481E+03 0.  0.
          5    1    3    3  502    0  0.26033507079E+02  0.22826836343E+02 -0.27291681971E+03  0.27513609510E+03  0.41800000000E+01 0.  1.
         -5    1    3    3    0  502 -0.46543730023E+02  0.43279368838E+02 -0.61418421583E+02  0.88482300384E+02  0.41800000000E+01 0.  1.
        -11    1    1    2    0    0 -0.12673766859E+02 -0.50461825463E+02 -0.38820371180E+02  0.64915648453E+02  0.00000000000E+00 0.  1.
         11    1    1    2    0    0  0.33183989803E+02 -0.15644379718E+02 -0.16305439712E+03  0.16713066809E+03  0.00000000000E+00 0. -1.
</event>
<event>
 7    1  0.2651429E-009  0.1134170E+03  0.7561462E-02  0.1254370E+00
         -1   -1    0    0    0  501 -0.00000000000E+00  0.00000000000E+00  0.13343679010E+02  0.13343679010E+02  0.00000000000E+00 0.  1.
          1   -1    0    0  501    0  0.00000000000E+00 -0.00000000000E+00 -0.15926484147E+04  0.15926484147E+04  0.00000000000E+00 0. -1.
         25    2    1    2    0    0  0.54084505407E+02  0.78716425394E+02 -0.98483757626E+03  0.99732684059E+03  0.12503745838E+03 0.  0.
          5    1    3    3  502    0  0.31072892842E+02  0.34680380107E+02 -0.87994684557E+03  0.88118793505E+03  0.41800000000E+01 0. -1.
         -5    1    3    3    0  502  0.23011612566E+02  0.44036045287E+02 -0.10489073069E+03  0.11613890555E+03  0.41800000000E+01 0. -1.
        -11    1    1    2    0    0 -0.77578240715E+02 -0.46840974625E+02 -0.38890200482E+03  0.39932096075E+03  0.00000000000E+00 0. -1.
         11    1    1    2    0    0  0.23493735308E+02 -0.31875450770E+02 -0.20556515457E+03  0.20934429234E+03  0.00000000000E+00 0.  1.
</event>
<event>
 7    1  0.2651429E-009  0.1760748E+03  0.7561462E-02  0.1171657E+00
         -1   -1    0    0    0  501 -0.00000000000E+00  0.00000000000E+00  0.16130683705E+03  0.16130683705E+03  0.00000000000E+00 0. -1.
          1   -1    0    0  501    0  0.00000000000E+00 -0.00000000000E+00 -0.29378042575E+03  0.29378042575E+03  0.00000000000E+00 0.  1.
         25    2    1    2    0    0 -0.12453833257E+03 -0.85066423627E+02  0.49462713658E+02  0.20209351428E+03  0.12509650580E+03 0.  0.
          5    1    3    3  502    0 -0.14941907631E+03 -0.79669262950E+02  0.36719395264E+02  0.17331773773E+03  0.41800000000E+01 0.  1.
         -5    1    3    3    0  502  0.24880743738E+02 -0.53971606768E+01  0.12743318394E+02  0.28775776549E+02  0.41800000000E+01 0.  1.
        -11    1    1    2    0    0  0.56958192564E+02  0.65095968725E+02 -0.15509803197E+03  0.17758693749E+03  0.00000000000E+00 0.  1.
         11    1    1    2    0    0  0.67580140009E+02  0.19970454902E+02 -0.26838270391E+02  0.75406811034E+02  0.00000000000E+00 0. -1.
</event>
<event>
 7    1  0.2651429E-009  0.1035705E+03  0.7561462E-02  0.1272962E+00
          1   -1    0    0  501    0  0.00000000000E+00  0.00000000000E+00  0.18142208646E+03  0.18142208646E+03  0.00000000000E+00 0. -1.
         -1   -1    0    0    0  501 -0.00000000000E+00 -0.00000000000E+00 -0.71135691044E+02  0.71135691044E+02  0.00000000000E+00 0.  1.
         25    2    1    2    0    0 -0.15234612687E+01  0.12105407031E+02  0.28789239065E+02  0.12894487036E+03  0.12509635284E+03 0.  0.
          5    1    3    3  502    0 -0.17891048524E+02  0.63168147871E+02 -0.40793453336E+01  0.65912199031E+02  0.41800000000E+01 0.  1.
         -5    1    3    3    0  502  0.16367587255E+02 -0.51062740841E+02  0.32868584398E+02  0.63032671330E+02  0.41800000000E+01 0.  1.
        -11    1    1    2    0    0 -0.33199600542E+02  0.21253393982E+02  0.16525000388E+02  0.42743372231E+02  0.00000000000E+00 0.  1.
         11    1    1    2    0    0  0.34723061810E+02 -0.33358801012E+02  0.64972155968E+02  0.80869534917E+02  0.00000000000E+00 0. -1.
</event>
<event>
 7    1  0.2651429E-009  0.8058851E+02  0.7561462E-02  0.1327390E+00
          2   -1    0    0  501    0  0.00000000000E+00  0.00000000000E+00  0.75350510438E+03  0.75350510438E+03  0.00000000000E+00 0. -1.
         -2   -1    0    0    0  501 -0.00000000000E+00 -0.00000000000E+00 -0.17531411176E+02  0.17531411176E+02  0.00000000000E+00 0.  1.
         25    2    1    2    0    0  0.37544411337E+02  0.19949730155E+02  0.49086096374E+03  0.50833136270E+03  0.12509482013E+03 0.  0.
          5    1    3    3  502    0 -0.25704700855E+02 -0.69681394788E+01  0.23021774430E+02  0.35450826672E+02  0.41800000000E+01 0.  1.
         -5    1    3    3    0  502  0.63249112192E+02  0.26917869633E+02  0.46783918931E+03  0.47288053603E+03  0.41800000000E+01 0.  1.
        -11    1    1    2    0    0 -0.67469081571E+00  0.14724382849E+02  0.26002342764E+01  0.14967427176E+02  0.00000000000E+00 0.  1.
         11    1    1    2    0    0 -0.36869720521E+02 -0.34674113003E+02  0.24251249518E+03  0.24773772567E+03  0.00000000000E+00 0. -1.
</event>
<event>
 7    1  0.2651429E-009  0.1013797E+03  0.7561462E-02  0.1277421E+00
          1   -1    0    0  501    0  0.00000000000E+00  0.00000000000E+00  0.10266931150E+04  0.10266931150E+04  0.00000000000E+00 0. -1.
         -1   -1    0    0    0  501 -0.00000000000E+00 -0.00000000000E+00 -0.17159376246E+02  0.17159376246E+02  0.00000000000E+00 0.  1.
         25    2    1    2    0    0 -0.57611019751E+02  0.26765441644E+02  0.72561285843E+03  0.73905112235E+03  0.12508845935E+03 0.  0.
          5    1    3    3  502    0 -0.41036904187E+02 -0.28319505882E+02  0.58405783592E+03  0.58619710850E+03  0.41800000000E+01 0. -1.
         -5    1    3    3    0  502 -0.16574115564E+02  0.55084947526E+02  0.14155502252E+03  0.15285401385E+03  0.41800000000E+01 0. -1.
        -11    1    1    2    0    0  0.40522889640E+02  0.20049986860E+02  0.21528099301E+03  0.21997729998E+03  0.00000000000E+00 0.  1.
         11    1    1    2    0    0  0.17088130111E+02 -0.46815428504E+02  0.68639887326E+02  0.84824068924E+02  0.00000000000E+00 0. -1.
</event>
<event>
 7    1  0.2651429E-009  0.1017016E+03  0.7561462E-02  0.1276758E+00
         -1   -1    0    0    0  501 -0.00000000000E+00  0.00000000000E+00  0.22624573705E+03  0.22624573705E+03  0.00000000000E+00 0.  1.
          1   -1    0    0  501    0  0.00000000000E+00 -0.00000000000E+00 -0.78752734169E+02  0.78752734169E+02  0.00000000000E+00 0. -1.
         25    2    1    2    0    0  0.41529726755E+01  0.77262625943E+02  0.69890290032E+02  0.16284761595E+03  0.12509169769E+03 0.  0.
          5    1    3    3  502    0  0.23206329963E+02  0.35683192765E+02  0.99431157816E+02  0.10823978724E+03  0.41800000000E+01 0.  1.
         -5    1    3    3    0  502 -0.19053357287E+02  0.41579433178E+02 -0.29540867785E+02  0.54607828714E+02  0.41800000000E+01 0.  1.
        -11    1    1    2    0    0  0.35975782028E+02 -0.11688573228E+02  0.44619059697E+02  0.58495641931E+02  0.00000000000E+00 0. -1.
         11    1    1    2    0    0 -0.40128754704E+02 -0.65574052715E+02  0.32983653155E+02  0.83655213340E+02  0.00000000000E+00 0.  1.
</event>
<event>
 7    1  0.2651429E-009  0.1925402E+03  0.7561462E-02  0.1156190E+00
          2   -1    0    0  501    0  0.00000000000E+00  0.00000000000E+00  0.76507067539E+03  0.76507067539E+03  0.00000000000E+00 0. -1.
         -2   -1    0    0    0  501 -0.00000000000E+00 -0.00000000000E+00 -0.60581029802E+02  0.60581029802E+02  0.00000000000E+00 0.  1.
         25    2    1    2    0    0  0.84423734504E+02  0.15509516472E+03  0.25537730384E+03  0.33473426598E+03  0.12509030514E+03 0.  0.
          5    1    3    3  502    0  0.47616531982E+02  0.23037927000E+02  0.10540553796E+02  0.54098575516E+02  0.41800000000E+01 0. -1.
         -5    1    3    3    0  502  0.36807202522E+02  0.13205723772E+03  0.24483675005E+03  0.28063569047E+03  0.41800000000E+01 0. -1.
        -11    1    1    2    0    0 -0.57546857118E+02 -0.26259870288E+02  0.10612149560E+03  0.12354348781E+03  0.00000000000E+00 0.  1.
         11    1    1    2    0    0 -0.26876877387E+02 -0.12883529443E+03  0.34299084614E+03  0.36737395140E+03  0.00000000000E+00 0. -1.
</event>
<event>
 7    1  0.2651429E-009  0.1983761E+03  0.7561462E-02  0.1151116E+00
          2   -1    0    0  501    0  0.00000000000E+00  0.00000000000E+00  0.30046295204E+03  0.30046295204E+03  0.00000000000E+00 0. -1.
         -2   -1    0    0    0  501 -0.00000000000E+00 -0.00000000000E+00 -0.23977424517E+03  0.23977424517E+03  0.00000000000E+00 0.  1.
         25    2    1    2    0    0 -0.14630109023E+03  0.10991915939E+03  0.19591542499E+03  0.29583332054E+03  0.12509304214E+03 0.  0.
          5    1    3    3  502    0  0.15621263627E+02  0.27737866495E+02  0.53066219692E+01  0.32542983141E+02  0.41800000000E+01 0. -1.
         -5    1    3    3    0  502 -0.16192235385E+03  0.82181292897E+02  0.19060880302E+03  0.26329033740E+03  0.41800000000E+01 0. -1.
        -11    1    1    2    0    0  0.27414333246E+02 -0.21951546046E+02 -0.78512067388E+02  0.86009073746E+02  0.00000000000E+00 0.  1.
         11    1    1    2    0    0  0.11888675698E+03 -0.87967613346E+02 -0.56714650741E+02  0.15839480292E+03  0.00000000000E+00 0. -1.
</event>
<event>
 7    1  0.2651429E-009  0.1993878E+03  0.7561462E-02  0.1150257E+00
         -2   -1    0    0    0  501 -0.00000000000E+00  0.00000000000E+00  0.15249343703E+03  0.15249343703E+03  0.00000000000E+00 0.  1.
          2   -1    0    0  501    0  0.00000000000E+00 -0.00000000000E+00 -0.32881739887E+03  0.32881739887E+03  0.00000000000E+00 0. -1.
         25    2    1    2    0    0  0.12369170107E+03  0.11353933604E+03 -0.19352249651E+03  0.28511439858E+03  0.12509374838E+03 0.  0.
          5    1    3    3  502    0 -0.25751123534E+02  0.16416910888E+02 -0.33896553595E+02  0.45815762266E+02  0.41800000000E+01 0. -1.
         -5    1    3    3    0  502  0.14944282461E+03  0.97122425148E+02 -0.15962594291E+03  0.23929863632E+03  0.41800000000E+01 0. -1.
        -11    1    1    2    0    0  0.22192417096E+01 -0.47392088745E+02  0.25240893855E+02  0.53740467359E+02  0.00000000000E+00 0.  1.
         11    1    1    2    0    0 -0.12591094278E+03 -0.66147247291E+02 -0.80423591886E+01  0.14245596996E+03  0.00000000000E+00 0. -1.
</event>
<event>
 7    1  0.2651429E-009  0.1061030E+03  0.7561462E-02  0.1267961E+00
          1   -1    0    0  501    0  0.00000000000E+00  0.00000000000E+00  0.60015508455E+02  0.60015508455E+02  0.00000000000E+00 0. -1.
         -1   -1    0    0    0  501 -0.00000000000E+00 -0.00000000000E+00 -0.21109793427E+03  0.21109793427E+03  0.00000000000E+00 0.  1.
         25    2    1    2    0    0  0.20020302322E+02  0.87392604654E+01 -0.59428646742E+02  0.14020084970E+03  0.12508927622E+03 0.  0.
          5    1    3    3  502    0  0.81719974535E+01  0.63067136988E+02 -0.55140418935E+02  0.84274453488E+02  0.41800000000E+01 0. -1.
         -5    1    3    3    0  502  0.11848304869E+02 -0.54327876523E+02 -0.42882278072E+01  0.55926396214E+02  0.41800000000E+01 0. -1.
        -11    1    1    2    0    0 -0.40426853254E+02  0.29038895459E+02 -0.57475209237E+02  0.76032806014E+02  0.00000000000E+00 0. -1.
         11    1    1    2    0    0  0.20406550932E+02 -0.37778155924E+02 -0.34178569831E+02  0.54879787005E+02  0.00000000000E+00 0.  1.
</event>
<event>
 7    1  0.2651429E-009  0.2119442E+03  0.7561462E-02  0.1140036E+00
          2   -1    0    0  501    0  0.00000000000E+00  0.00000000000E+00  0.68979738624E+03  0.68979738624E+03  0.00000000000E+00 0. -1.
         -2   -1    0    0    0  501 -0.00000000000E+00 -0.00000000000E+00 -0.71045881090E+02  0.71045881090E+02  0.00000000000E+00 0.  1.
         25    2    1    2    0    0  0.15906132968E+03 -0.10978851122E+03  0.41891325001E+03  0.47800683531E+03  0.12509276468E+03 0.  0.
          5    1    3    3  502    0  0.46221366204E+02 -0.10281684303E+03  0.25505625056E+03  0.27888865387E+03  0.41800000000E+01 0. -1.
         -5    1    3    3    0  502  0.11283996347E+03 -0.69716681900E+01  0.16385699945E+03  0.19911818144E+03  0.41800000000E+01 0. -1.
        -11    1    1    2    0    0 -0.10744350334E+03  0.48675503442E+02  0.13920347874E+03  0.18245826794E+03  0.00000000000E+00 0.  1.
         11    1    1    2    0    0 -0.51617826332E+02  0.61113007779E+02  0.60634776399E+02  0.10037816408E+03  0.00000000000E+00 0. -1.
</event>
<event>
 7    1  0.2651429E-009  0.1313126E+03  0.7561462E-02  0.1225521E+00
         -2   -1    0    0    0  501 -0.00000000000E+00  0.00000000000E+00  0.11948524286E+03  0.11948524286E+03  0.00000000000E+00 0.  1.
          2   -1    0    0  501    0  0.00000000000E+00 -0.00000000000E+00 -0.27514947527E+03  0.27514947527E+03  0.00000000000E+00 0. -1.
         25    2    1    2    0    0  0.17737432014E+02 -0.10025607212E+03 -0.19664086005E+03  0.25432418861E+03  0.12508904260E+03 0.  0.
          5    1    3    3  502    0 -0.23780853345E+02  0.12719631172E+02 -0.46485034349E+01  0.27683912064E+02  0.41800000000E+01 0. -1.
         -5    1    3    3    0  502  0.41518285360E+02 -0.11297570329E+03 -0.19199235662E+03  0.22664027655E+03  0.41800000000E+01 0. -1.
        -11    1    1    2    0    0 -0.23877786492E+02  0.12544516485E+02  0.44809172791E+02  0.52300817851E+02  0.00000000000E+00 0.  1.
         11    1    1    2    0    0  0.61403544776E+01  0.87711555638E+02 -0.38325451577E+01  0.88009711668E+02  0.00000000000E+00 0. -1.
</event>
<event>
 7    1  0.2651429E-009  0.1644660E+03  0.7561462E-02  0.1183745E+00
         -2   -1    0    0    0  501 -0.00000000000E+00  0.00000000000E+00  0.28490904831E+02  0.28490904831E+02  0.00000000000E+00 0.  1.
          2   -1    0    0  501    0  0.00000000000E+00 -0.00000000000E+00 -0.12850420296E+04  0.12850420296E+04  0.00000000000E+00 0. -1.
         25    2    1    2    0    0 -0.11020197487E+03  0.75172105123E+02 -0.93710165884E+03  0.95477843668E+03  0.12508806297E+03 0.  0.
          5    1    3    3  502    0 -0.10270231925E+01 -0.27432281613E+02 -0.80284949187E+02  0.84951340878E+02  0.41800000000E+01 0. -1.
         -5    1    3    3    0  502 -0.10917495168E+03  0.10260438674E+03 -0.85681670965E+03  0.86982709580E+03  0.41800000000E+01 0. -1.
        -11    1    1    2    0    0  0.10864762283E+03 -0.39542471301E+02 -0.29101978145E+03  0.31314601415E+03  0.00000000000E+00 0. -1.
         11    1    1    2    0    0  0.15543520433E+01 -0.35629633822E+02 -0.28429684475E+02  0.45608483596E+02  0.00000000000E+00 0.  1.
</event>
<event>
 7    1  0.2651429E-009  0.1365737E+03  0.7561462E-02  0.1218015E+00
         -2   -1    0    0    0  501 -0.00000000000E+00  0.00000000000E+00  0.28030903878E+03  0.28030903878E+03  0.00000000000E+00 0.  1.
          2   -1    0    0  501    0  0.00000000000E+00 -0.00000000000E+00 -0.97903512394E+02  0.97903512394E+02  0.00000000000E+00 0. -1.
         25    2    1    2    0    0  0.67978069453E+02 -0.10305693519E+03  0.69230300177E+02  0.18889695751E+03  0.12508987280E+03 0.  0.
          5    1    3    3  502    0  0.67463629658E+01 -0.47352824653E+02  0.91273760850E+02  0.10313183425E+03  0.41800000000E+01 0.  1.
         -5    1    3    3    0  502  0.61231706488E+02 -0.55704110539E+02 -0.22043460673E+02  0.85765123266E+02  0.41800000000E+01 0.  1.
        -11    1    1    2    0    0 -0.80937728838E+02  0.70974025234E+02  0.11102999794E+03  0.15464762736E+03  0.00000000000E+00 0.  1.
         11    1    1    2    0    0  0.12959659385E+02  0.32082909959E+02  0.21452282728E+01  0.34667966297E+02  0.00000000000E+00 0. -1.
</event>
<event>
 7    1  0.2651429E-009  0.1415940E+03  0.7561462E-02  0.1211200E+00
          1   -1    0    0  501    0  0.00000000000E+00  0.00000000000E+00  0.19111158274E+03  0.19111158274E+03  0.00000000000E+00 0.  1.
         -1   -1    0    0    0  501 -0.00000000000E+00 -0.00000000000E+00 -0.13576126799E+03  0.13576126799E+03  0.00000000000E+00 0. -1.
         25    2    1    2    0    0 -0.38476337897E+02 -0.90004672904E+02  0.94569924651E+02  0.18485768008E+03  0.12509045333E+03 0.  0.
          5    1    3    3  502    0  0.43955565698E+02 -0.50367109831E+02  0.34434529646E+02  0.75313655737E+02  0.41800000000E+01 0. -1.
         -5    1    3    3    0  502 -0.82431903595E+02 -0.39637563073E+02  0.60135395004E+02  0.10954402434E+03  0.41800000000E+01 0. -1.
        -11    1    1    2    0    0  0.11057777563E+02  0.95953540627E+02 -0.53625389379E+02  0.11047641735E+03  0.00000000000E+00 0. -1.
         11    1    1    2    0    0  0.27418560334E+02 -0.59488677229E+01  0.14405779473E+02  0.31538753308E+02  0.00000000000E+00 0.  1.
</event>
<event>
 7    1  0.2651429E-009  0.2747218E+03  0.7561462E-02  0.1098607E+00
          2   -1    0    0  501    0  0.00000000000E+00  0.00000000000E+00  0.18849951146E+04  0.18849951146E+04  0.00000000000E+00 0.  1.
         -2   -1    0    0    0  501 -0.00000000000E+00 -0.00000000000E+00 -0.46258916300E+02  0.46258916300E+02  0.00000000000E+00 0. -1.
         25    2    1    2    0    0  0.25760139469E+03 -0.39249797293E+02  0.12200850025E+04  0.12538557413E+04  0.12509109324E+03 0.  0.
          5    1    3    3  502    0  0.12268638621E+03  0.43783316864E+02  0.52534423319E+03  0.54126977002E+03  0.41800000000E+01 0. -1.
         -5    1    3    3    0  502  0.13491500849E+03 -0.83033114156E+02  0.69474076929E+03  0.71258597128E+03  0.41800000000E+01 0. -1.
        -11    1    1    2    0    0 -0.14756260465E+03  0.25354114760E+02  0.46051794079E+03  0.48424614321E+03  0.00000000000E+00 0.  1.
         11    1    1    2    0    0 -0.11003879004E+03  0.13895682533E+02  0.15813325508E+03  0.19315214642E+03  0.00000000000E+00 0. -1.
</event>
<event>
 7    1  0.2651429E-009  0.1454579E+03  0.7561462E-02  0.1206168E+00
          1   -1    0    0  501    0  0.00000000000E+00  0.00000000000E+00  0.36274250417E+03  0.36274250417E+03  0.00000000000E+00 0. -1.
         -1   -1    0    0    0  501 -0.00000000000E+00 -0.00000000000E+00 -0.78402337802E+02  0.78402337802E+02  0.00000000000E+00 0.  1.
         25    2    1    2    0    0 -0.60893437817E+02  0.10388621538E+03  0.89905559834E+02  0.19552751803E+03  0.12509054362E+03 0.  0.
          5    1    3    3  502    0  0.34286069217E+02  0.11447594175E+02  0.39044019247E+02  0.53371245008E+02  0.41800000000E+01 0.  1.
         -5    1    3    3    0  502 -0.95179507034E+02  0.92438621206E+02  0.50861540586E+02  0.14215627303E+03  0.41800000000E+01 0.  1.
        -11    1    1    2    0    0  0.26761833243E+02 -0.28868755960E+02  0.14333979301E+03  0.14864688711E+03  0.00000000000E+00 0. -1.
         11    1    1    2    0    0  0.34131604574E+02 -0.75017459421E+02  0.51094813531E+02  0.96970436828E+02  0.00000000000E+00 0.  1.
</event>
<event>
 7    1  0.2651429E-009  0.1247724E+03  0.7561462E-02  0.1235425E+00
          2   -1    0    0  501    0  0.00000000000E+00  0.00000000000E+00  0.13957846487E+03  0.13957846487E+03  0.00000000000E+00 0. -1.
         -2   -1    0    0    0  501 -0.00000000000E+00 -0.00000000000E+00 -0.15272553757E+03  0.15272553757E+03  0.00000000000E+00 0.  1.
         25    2    1    2    0    0 -0.67227578306E+02 -0.72671165715E+02 -0.44327952664E+01  0.15958909868E+03  0.12509350556E+03 0.  0.
          5    1    3    3  502    0 -0.12540727943E+02  0.22852389033E+02  0.33893787765E+02  0.42962341544E+02  0.41800000000E+01 0. -1.
         -5    1    3    3    0  502 -0.54686850364E+02 -0.95523554748E+02 -0.38326583032E+02  0.11662675714E+03  0.41800000000E+01 0. -1.
        -11    1    1    2    0    0  0.20484144421E+00  0.37132639180E+02  0.29822323613E+02  0.47626104588E+02  0.00000000000E+00 0. -1.
         11    1    1    2    0    0  0.67022736862E+02  0.35538526535E+02 -0.38536601045E+02  0.85088799174E+02  0.00000000000E+00 0.  1.
</event>
<event>
 7    1  0.3931211E-009  0.6052065E+02  0.7561462E-02  0.1395660E+00
         -1   -1    0    0    0  501 -0.00000000000E+00  0.00000000000E+00  0.48174336498E+02  0.48174336498E+02  0.00000000000E+00 0.  1.
          1   -1    0    0  501    0  0.00000000000E+00 -0.00000000000E+00 -0.25927017659E+03  0.25927017659E+03  0.00000000000E+00 0. -1.
         25    2    1    2    0    0 -0.83286910103E+01  0.59209386112E+01 -0.15628698716E+03  0.20044374937E+03  0.12509056599E+03 0.  0.
          5    1    3    3  502    0 -0.12284697692E+02 -0.25868593303E+02 -0.16456770063E+03  0.16709308306E+03  0.41800000000E+01 0.  1.
         -5    1    3    3    0  502  0.39560066822E+01  0.31789531914E+02  0.82807134645E+01  0.33350666315E+02  0.41800000000E+01 0.  1.
        -11    1    1    2    0    0 -0.13448986878E+02 -0.26572211289E+02 -0.67986025643E+02  0.74223024349E+02  0.00000000000E+00 0. -1.
         11    1    1    2    0    0  0.21777677889E+02  0.20651272678E+02  0.13177172709E+02  0.32777739368E+02  0.00000000000E+00 0.  1.
</event>
<event>
 7    1  0.2651429E-009  0.4344002E+03  0.7561462E-02  0.1032479E+00
          2   -1    0    0  501    0  0.00000000000E+00  0.00000000000E+00  0.21876616849E+04  0.21876616849E+04  0.00000000000E+00 0. -1.
         -2   -1    0    0    0  501 -0.00000000000E+00 -0.00000000000E+00 -0.89564069297E+02  0.89564069297E+02  0.00000000000E+00 0.  1.
         25    2    1    2    0    0  0.26982946805E+03  0.32889286237E+03  0.92267882046E+03  0.10236994379E+04  0.12508347901E+03 0.  0.
          5    1    3    3  502    0  0.38136252290E+02  0.45014611118E+01  0.42408537989E+02  0.57363693964E+02  0.41800000000E+01 0.  1.
         -5    1    3    3    0  502  0.23169321576E+03  0.32439140125E+03  0.88027028247E+03  0.96633574395E+03  0.41800000000E+01 0.  1.
        -11    1    1    2    0    0 -0.15335011191E+03 -0.24075674178E+03  0.69319998019E+03  0.74967077979E+03  0.00000000000E+00 0.  1.
         11    1    1    2    0    0 -0.11647935613E+03 -0.88136120581E+02  0.48221881494E+03  0.50385553647E+03  0.00000000000E+00 0. -1.
</event>
<event>
 7    1  0.2651429E-009  0.1761515E+03  0.7561462E-02  0.1171580E+00
         -2   -1    0    0    0  501 -0.00000000000E+00  0.00000000000E+00  0.37014013301E+02  0.37014013301E+02  0.00000000000E+00 0.  1.
          2   -1    0    0  501    0  0.00000000000E+00 -0.00000000000E+00 -0.11013483657E+04  0.11013483657E+04  0.00000000000E+00 0. -1.
         25    2    1    2    0    0  0.11850565791E+02  0.13955277461E+03 -0.28632006424E+03  0.34240609517E+03  0.12508933611E+03 0.  0.
          5    1    3    3  502    0 -0.55838797479E+02  0.58758170904E+02 -0.10611610316E+03  0.13359862911E+03  0.41800000000E+01 0.  1.
         -5    1    3    3    0  502  0.67689363270E+02  0.80794603711E+02 -0.18020396108E+03  0.20880746605E+03  0.41800000000E+01 0.  1.
        -11    1    1    2    0    0  0.10940393331E+02 -0.14227833859E+03 -0.70923386554E+03  0.72344695304E+03  0.00000000000E+00 0. -1.
         11    1    1    2    0    0 -0.22790959122E+02  0.27255639721E+01 -0.68780422633E+02  0.72509330808E+02  0.00000000000E+00 0.  1.
</event>
<event>
 7    1  0.2651429E-009  0.9117274E+02  0.7561462E-02  0.1300036E+00
         -1   -1    0    0    0  501 -0.00000000000E+00  0.00000000000E+00  0.19309120636E+02  0.19309120636E+02  0.00000000000E+00 0.  1.
          1   -1    0    0  501    0  0.00000000000E+00 -0.00000000000E+00 -0.67023358793E+03  0.67023358793E+03  0.00000000000E+00 0. -1.
         25    2    1    2    0    0  0.37869432859E+01 -0.18343861468E+02 -0.46021432201E+03  0.47727911925E+03  0.12508915737E+03 0.  0.
          5    1    3    3  502    0  0.47127455819E+02 -0.62023540117E+01 -0.71593160404E+02  0.86037894581E+02  0.41800000000E+01 0.  1.
         -5    1    3    3    0  502 -0.43340512533E+02 -0.12141507457E+02 -0.38862116161E+03  0.39124122466E+03  0.41800000000E+01 0.  1.
        -11    1    1    2    0    0 -0.40183219092E+02 -0.12110544402E+02 -0.60135821674E+02  0.73332621872E+02  0.00000000000E+00 0.  1.
         11    1    1    2    0    0  0.36396275806E+02  0.30454405870E+02 -0.13057432362E+03  0.13893096745E+03  0.00000000000E+00 0. -1.
</event>
<event>
 7    1  0.2651429E-009  0.1074404E+03  0.7561462E-02  0.1265385E+00
         -1   -1    0    0    0  501 -0.00000000000E+00  0.00000000000E+00  0.32557938478E+02  0.32557938478E+02  0.00000000000E+00 0.  1.
          1   -1    0    0  501    0  0.00000000000E+00 -0.00000000000E+00 -0.46620091778E+03  0.46620091778E+03  0.00000000000E+00 0. -1.
         25    2    1    2    0    0 -0.53830976689E+02 -0.75701437244E-01 -0.23320820516E+03  0.27005726228E+03  0.12508828151E+03 0.  0.
          5    1    3    3  502    0 -0.69371708021E+02  0.25950849702E+02 -0.63614084708E+02  0.97724636849E+02  0.41800000000E+01 0.  1.
         -5    1    3    3    0  502  0.15540731332E+02 -0.26026551140E+02 -0.16959412046E+03  0.17233262543E+03  0.41800000000E+01 0.  1.
        -11    1    1    2    0    0  0.31751218419E+02  0.47873049060E+02 -0.10143795934E+03  0.11657456109E+03  0.00000000000E+00 0.  1.
         11    1    1    2    0    0  0.22079758270E+02 -0.47797347623E+02 -0.98996814803E+02  0.11212703290E+03  0.00000000000E+00 0. -1.
</event>
<event>
 7    1  0.2651429E-009  0.6676015E+02  0.7561462E-02  0.1371470E+00
          1   -1    0    0  501    0  0.00000000000E+00  0.00000000000E+00  0.48797159940E+02  0.48797159940E+02  0.00000000000E+00 0. -1.
         -1   -1    0    0    0  501 -0.00000000000E+00 -0.00000000000E+00 -0.87099371687E+03  0.87099371687E+03  0.00000000000E+00 0.  1.
         25    2    1    2    0    0  0.15957353887E+02  0.90124789553E+01 -0.81803069973E+03  0.82774213245E+03  0.12508777004E+03 0.  0.
          5    1    3    3  502    0 -0.94213686468E+00 -0.39249934352E+02 -0.94795070718E+02  0.10268896144E+03  0.41800000000E+01 0. -1.
         -5    1    3    3    0  502  0.16899490752E+02  0.48262413307E+02 -0.72323562902E+03  0.72505317102E+03  0.41800000000E+01 0. -1.
        -11    1    1    2    0    0 -0.77430025762E+01 -0.24230454850E+02 -0.42761687835E+02  0.49755713015E+02  0.00000000000E+00 0.  1.
         11    1    1    2    0    0 -0.82143513112E+01  0.15217975894E+02  0.38595830635E+02  0.42293031343E+02  0.00000000000E+00 0. -1.
</event>
<event>
 7    1  0.2651429E-009  0.7045871E+02  0.7561462E-02  0.1358540E+00
         -2   -1    0    0    0  501 -0.00000000000E+00  0.00000000000E+00  0.36652421395E+02  0.36652421395E+02  0.00000000000E+00 0.  1.
          2   -1    0    0  501    0  0.00000000000E+00 -0.00000000000E+00 -0.47827995601E+03  0.47827995601E+03  0.00000000000E+00 0. -1.
         25    2    1    2    0    0  0.29949607570E+02 -0.53176580650E+02 -0.33403169696E+03  0.36186954077E+03  0.12509061611E+03 0.  0.
          5    1    3    3  502    0  0.26020544960E+02 -0.30062828304E+02 -0.16183276007E+02  0.43130189287E+02  0.41800000000E+01 0. -1.
         -5    1    3    3    0  502  0.39290626101E+01 -0.23113752346E+02 -0.31784842096E+03  0.31873935149E+03  0.41800000000E+01 0. -1.
        -11    1    1    2    0    0 -0.28340330266E+02  0.48286341379E+01  0.62017645958E+01  0.29410064797E+02  0.00000000000E+00 0.  1.
         11    1    1    2    0    0 -0.16092773035E+01  0.48347946513E+02 -0.11379760225E+03  0.12365277184E+03  0.00000000000E+00 0. -1.
</event>
<event>
 6    1  0.2651429E-009  0.1764545E+03  0.7561462E-02  0.1171279E+00
          1   -1    0    0  501    0  0.00000000000E+00  0.00000000000E+00  0.11115824854E+04  0.11115824854E+04  0.00000000000E+00 0. -1.
         -1   -1    0    0    0  501 -0.00000000000E+00 -0.00000000000E+00 -0.67952260794E+02  0.67952260794E+02  0.00000000000E+00 0.  1.
          5    1    1    2  502    0  0.38468962203E+02  0.66139621187E+01  0.10539373139E+03  0.11246740223E+03  0.41800000000E+01 0. -1.
         -5    1    1    2    0  502  0.15299416630E+02 -0.14316459464E+03  0.86800903745E+03  0.87987915920E+03  0.41800000000E+01 0. -1.
        -11    1    1    2    0    0 -0.44029700860E+02  0.13324512183E+02  0.37416918820E+02  0.59297411383E+02  0.00000000000E+00 0. -1.
         11    1    1    2    0    0 -0.97386779730E+01  0.12322612033E+03  0.32810536948E+02  0.12789077338E+03  0.00000000000E+00 0.  1.
</event>
<event>
 7    1  0.2651429E-009  0.1163452E+03  0.7561462E-02  0.1249251E+00
          1   -1    0    0  501    0  0.00000000000E+00  0.00000000000E+00  0.86492613537E+02  0.86492613537E+02  0.00000000000E+00 0. -1.
         -1   -1    0    0    0  501 -0.00000000000E+00 -0.00000000000E+00 -0.18315512672E+03  0.18315512672E+03  0.00000000000E+00 0.  1.
         25    2    1    2    0    0  0.54818259961E+02 -0.23662133064E+02 -0.66952054323E+02  0.15393086507E+03  0.12508875040E+03 0.  0.
          5    1    3    3  502    0 -0.29040815970E+02 -0.26293296676E+02 -0.57068688101E+02  0.69347054760E+02  0.41800000000E+01 0.  1.
         -5    1    3    3    0  502  0.83859075931E+02  0.26311636122E+01 -0.98833662220E+01  0.84583810306E+02  0.41800000000E+01 0.  1.
        -11    1    1    2    0    0  0.25814078463E+02  0.25622388624E+01 -0.17945719916E+02  0.31543312733E+02  0.00000000000E+00 0.  1.
         11    1    1    2    0    0 -0.80632338424E+02  0.21099894202E+02 -0.11764738947E+02  0.84173562462E+02  0.00000000000E+00 0. -1.
</event>
<event>
 7    1  0.2651429E-009  0.1055986E+03  0.7561462E-02  0.1268945E+00
         -2   -1    0    0    0  501 -0.00000000000E+00  0.00000000000E+00  0.45185991865E+02  0.45185991865E+02  0.00000000000E+00 0. -1.
          2   -1    0    0  501    0  0.00000000000E+00 -0.00000000000E+00 -0.31825861705E+03  0.31825861705E+03  0.00000000000E+00 0.  1.
         25    2    1    2    0    0 -0.22902333874E+02 -0.35090678019E+02 -0.19822933808E+03  0.23811028037E+03  0.12508302269E+03 0.  0.
          5    1    3    3  502    0 -0.49532019341E+02  0.30458471721E+02 -0.11390048484E+03  0.12795285181E+03  0.41800000000E+01 0.  1.
         -5    1    3    3    0  502  0.26629685467E+02 -0.65549149740E+02 -0.84328853232E+02  0.11015742856E+03  0.41800000000E+01 0.  1.
        -11    1    1    2    0    0 -0.15988509176E+02  0.39759822313E+02 -0.74751426458E+02  0.86164097242E+02  0.00000000000E+00 0.  1.
         11    1    1    2    0    0  0.38890843050E+02 -0.46691442946E+01 -0.91860651039E-01  0.39170231299E+02  0.00000000000E+00 0. -1.
</event>
<event>
 7    1  0.2651429E-009  0.1057374E+03  0.7561462E-02  0.1268673E+00
          2   -1    0    0  501    0  0.00000000000E+00  0.00000000000E+00  0.57548268741E+03  0.57548268741E+03  0.00000000000E+00 0. -1.
         -2   -1    0    0    0  501 -0.00000000000E+00 -0.00000000000E+00 -0.24760528620E+02  0.24760528620E+02  0.00000000000E+00 0.  1.
         25    2    1    2    0    0 -0.16730109375E+02  0.41801694904E+02  0.28695969196E+03  0.31626268195E+03  0.12509572706E+03 0.  0.
          5    1    3    3  502    0  0.15747503036E+02  0.66789100035E+02  0.81077574360E+02  0.10630057949E+03  0.41800000000E+01 0. -1.
         -5    1    3    3    0  502 -0.32477612411E+02 -0.24987405131E+02  0.20588211760E+03  0.20996210246E+03  0.41800000000E+01 0. -1.
        -11    1    1    2    0    0 -0.36171966487E+02 -0.30787725954E+02  0.86741777537E+02  0.98896062607E+02  0.00000000000E+00 0.  1.
         11    1    1    2    0    0  0.52902075863E+02 -0.11013968950E+02  0.17702068930E+03  0.18508447148E+03  0.00000000000E+00 0. -1.
</event>
<event>
 7    1  0.2651429E-009  0.1189983E+03  0.7561462E-02  0.1244759E+00
          2   -1    0    0  501    0  0.00000000000E+00  0.00000000000E+00  0.78605148883E+02  0.78605148883E+02  0.00000000000E+00 0. -1.
         -2   -1    0    0    0  501 -0.00000000000E+00 -0.00000000000E+00 -0.23348688125E+03  0.23348688125E+03  0.00000000000E+00 0.  1.
         25    2    1    2    0    0  0.48082090609E+02 -0.68827788365E+02 -0.90147345942E+02  0.17556208370E+03  0.12508536831E+03 0.  0.
          5    1    3    3  502    0  0.63868281373E+02 -0.19374195645E+02  0.50360106243E+01  0.67062289146E+02  0.41800000000E+01 0. -1.
         -5    1    3    3    0  502 -0.15786190765E+02 -0.49453592720E+02 -0.95183356566E+02  0.10849979456E+03  0.41800000000E+01 0. -1.
        -11    1    1    2    0    0 -0.71750699191E+02  0.60811831584E+02 -0.58540436136E+02  0.11078458538E+03  0.00000000000E+00 0.  1.
         11    1    1    2    0    0  0.23668608582E+02  0.80159567808E+01 -0.61939502876E+01  0.25745361048E+02  0.00000000000E+00 0. -1.
</event>
<event>
 7    1  0.2651429E-009  0.1053539E+03  0.7561462E-02  0.1269424E+00
         -2   -1    0    0    0  501 -0.00000000000E+00  0.00000000000E+00  0.44616560089E+02  0.44616560089E+02  0.00000000000E+00 0.  1.
          2   -1    0    0  501    0  0.00000000000E+00 -0.00000000000E+00 -0.31185419969E+03  0.31185419969E+03  0.00000000000E+00 0. -1.
         25    2    1    2    0    0 -0.17795153511E+02  0.28670611061E+02 -0.98260232362E+02  0.16260764481E+03  0.12508997346E+03 0.  0.
          5    1    3    3  502    0 -0.40144143460E+02  0.63219454211E+02 -0.95113171939E+02  0.12112902014E+03  0.41800000000E+01 0. -1.
         -5    1    3    3    0  502  0.22348989949E+02 -0.34548843150E+02 -0.31470604231E+01  0.41478624665E+02  0.41800000000E+01 0. -1.
        -11    1    1    2    0    0  0.52545785913E+02 -0.28102322183E+02 -0.11758429966E+03  0.13182134750E+03  0.00000000000E+00 0. -1.
         11    1    1    2    0    0 -0.34750632401E+02 -0.56828887729E+00 -0.51393107575E+02  0.62041767470E+02  0.00000000000E+00 0.  1.
</event>
<event>
 7    1  0.2651429E-009  0.1707532E+03  0.7561462E-02  0.1177065E+00
          2   -1    0    0  501    0  0.00000000000E+00  0.00000000000E+00  0.93001334937E+03  0.93001334937E+03  0.00000000000E+00 0. -1.
         -2   -1    0    0    0  501 -0.00000000000E+00 -0.00000000000E+00 -0.41032582727E+02  0.41032582727E+02  0.00000000000E+00 0.  1.
         25    2    1    2    0    0 -0.13227687585E+03  0.52185716233E+02  0.65992468886E+03  0.68656311003E+03  0.12509111966E+03 0.  0.
          5    1    3    3  502    0 -0.15488769790E+03  0.42465702373E+02  0.60919890622E+03  0.63002723320E+03  0.41800000000E+01 0. -1.
         -5    1    3    3    0  502  0.22610822056E+02  0.97200138592E+01  0.50725782647E+02  0.56535876828E+02  0.41800000000E+01 0. -1.
        -11    1    1    2    0    0  0.22504849764E+02  0.15128115008E+02  0.73503761709E+01  0.28095482848E+02  0.00000000000E+00 0.  1.
         11    1    1    2    0    0  0.10977202608E+03 -0.67313831240E+02  0.22170570161E+03  0.25638733922E+03  0.00000000000E+00 0. -1.
</event>
<event>
 7    1  0.2651429E-009  0.9986001E+02  0.7561462E-02  0.1280591E+00
         -1   -1    0    0    0  501 -0.00000000000E+00  0.00000000000E+00  0.21580266024E+03  0.21580266024E+03  0.00000000000E+00 0.  1.
          1   -1    0    0  501    0  0.00000000000E+00 -0.00000000000E+00 -0.85790768472E+02  0.85790768472E+02  0.00000000000E+00 0. -1.
         25    2    1    2    0    0  0.74589744682E+02  0.26433808904E+02  0.46544643848E+02  0.15516959125E+03  0.12509525136E+03 0.  0.
          5    1    3    3  502    0  0.71009099487E+02  0.11001996005E+02 -0.29198491212E+02  0.77674708980E+02  0.41800000000E+01 0.  1.
         -5    1    3    3    0  502  0.35806451954E+01  0.15431812899E+02  0.75743135060E+02  0.77494882271E+02  0.41800000000E+01 0.  1.
        -11    1    1    2    0    0 -0.90989020036E+02 -0.17408327757E+02  0.43612149784E+02  0.10239175382E+03  0.00000000000E+00 0.  1.
         11    1    1    2    0    0  0.16399275354E+02 -0.90254811471E+01  0.39855098138E+02  0.44032083640E+02  0.00000000000E+00 0. -1.
</event>
<event>
 7    1  0.2651429E-009  0.7655855E+02  0.7561462E-02  0.1339112E+00
         -2   -1    0    0    0  501 -0.00000000000E+00  0.00000000000E+00  0.71174623569E+02  0.71174623569E+02  0.00000000000E+00 0.  1.
          2   -1    0    0  501    0  0.00000000000E+00 -0.00000000000E+00 -0.19550404637E+03  0.19550404637E+03  0.00000000000E+00 0. -1.
         25    2    1    2    0    0 -0.40964065411E+02  0.19818474553E+02 -0.84147869111E+02  0.15747593360E+03  0.12508788590E+03 0.  0.
          5    1    3    3  502    0 -0.50372093811E+02  0.44286316711E+01 -0.11261472606E+03  0.12351724389E+03  0.41800000000E+01 0.  1.
         -5    1    3    3    0  502  0.94080284007E+01  0.15389842882E+02  0.28466856945E+02  0.33958689708E+02  0.41800000000E+01 0.  1.
        -11    1    1    2    0    0  0.53617819471E+02 -0.35052290690E+02 -0.55030412538E+02  0.84450458563E+02  0.00000000000E+00 0. -1.
         11    1    1    2    0    0 -0.12653754060E+02  0.15233816136E+02  0.14848858851E+02  0.24752277775E+02  0.00000000000E+00 0.  1.
</event>
<event>
 7    1  0.2651429E-009  0.1302356E+03  0.7561462E-02  0.1227107E+00
         -2   -1    0    0    0  501 -0.00000000000E+00  0.00000000000E+00  0.28698246770E+02  0.28698246770E+02  0.00000000000E+00 0.  1.
          2   -1    0    0  501    0  0.00000000000E+00 -0.00000000000E+00 -0.88585605508E+03  0.88585605508E+03  0.00000000000E+00 0. -1.
         25    2    1    2    0    0 -0.62623898265E+02 -0.81942748767E+02 -0.61827698137E+03  0.63918305817E+03  0.12510871051E+03 0.  0.
          5    1    3    3  502    0  0.11123235773E+02 -0.32924859435E+02 -0.36057697767E+02  0.50253385071E+02  0.41800000000E+01 0.  1.
         -5    1    3    3    0  502 -0.73747134038E+02 -0.49017889332E+02 -0.58221928361E+03  0.58892967310E+03  0.41800000000E+01 0.  1.
        -11    1    1    2    0    0 -0.10633696804E+02  0.59146839959E+02 -0.98177029553E+02  0.11510931030E+03  0.00000000000E+00 0. -1.
         11    1    1    2    0    0  0.73257595069E+02  0.22795908808E+02 -0.14070379738E+03  0.16026193338E+03  0.00000000000E+00 0.  1.
</event>
<event>
 7    1  0.2651429E-009  0.1266525E+03  0.7561462E-02  0.1232509E+00
          1   -1    0    0  501    0  0.00000000000E+00  0.00000000000E+00  0.45495976713E+02  0.45495976713E+02  0.00000000000E+00 0. -1.
         -1   -1    0    0    0  501 -0.00000000000E+00 -0.00000000000E+00 -0.45743273717E+03  0.45743273717E+03  0.00000000000E+00 0.  1.
         25    2    1    2    0    0  0.20695886592E+02 -0.93109127659E+02 -0.23094883145E+03  0.27943593020E+03  0.12509774965E+03 0.  0.
          5    1    3    3  502    0  0.57579290475E+02 -0.72805146741E+00 -0.86756420941E+02  0.10421158153E+03  0.41800000000E+01 0. -1.
         -5    1    3    3    0  502 -0.36883403883E+02 -0.92381076191E+02 -0.14419241051E+03  0.17522434867E+03  0.41800000000E+01 0. -1.
        -11    1    1    2    0    0 -0.25350005620E+01  0.35856859330E+02 -0.15311319781E+03  0.15727616454E+03  0.00000000000E+00 0.  1.
         11    1    1    2    0    0 -0.18160886030E+02  0.57252268329E+02 -0.27874731192E+02  0.66216619132E+02  0.00000000000E+00 0. -1.
</event>
<event>
 7    1  0.2651429E-009  0.1306690E+03  0.7561462E-02  0.1226466E+00
          1   -1    0    0  501    0  0.00000000000E+00  0.00000000000E+00  0.24463668984E+02  0.24463668984E+02  0.00000000000E+00 0. -1.
         -1   -1    0    0    0  501 -0.00000000000E+00 -0.00000000000E+00 -0.95013183937E+03  0.95013183937E+03  0.00000000000E+00 0.  1.
         25    2    1    2    0    0 -0.10641573032E+03 -0.86475379312E+00 -0.51165549712E+03  0.53736825314E+03  0.12509291062E+03 0.  0.
          5    1    3    3  502    0 -0.11783128758E+03  0.50184582024E+01 -0.51033063668E+03  0.52379788888E+03  0.41800000000E+01 0.  1.
         -5    1    3    3    0  502  0.11415557261E+02 -0.58832119956E+01 -0.13248604377E+01  0.13570364260E+02  0.41800000000E+01 0.  1.
        -11    1    1    2    0    0  0.46613479546E+02  0.37380880669E+02 -0.10933887342E+03  0.12459990352E+03  0.00000000000E+00 0. -1.
         11    1    1    2    0    0  0.59802250778E+02 -0.36516126876E+02 -0.30467379984E+03  0.31262735170E+03  0.00000000000E+00 0.  1.
</event>
<event>
 7    1  0.2651429E-009  0.1412826E+03  0.7561462E-02  0.1211613E+00
         -1   -1    0    0    0  501 -0.00000000000E+00  0.00000000000E+00  0.92158120118E+02  0.92158120118E+02  0.00000000000E+00 0.  1.
          1   -1    0    0  501    0  0.00000000000E+00 -0.00000000000E+00 -0.39176652348E+03  0.39176652348E+03  0.00000000000E+00 0. -1.
         25    2    1    2    0    0 -0.10722612349E+03 -0.63296510731E+02 -0.39256676557E+02  0.18081333138E+03  0.12509390202E+03 0.  0.
          5    1    3    3  502    0 -0.79844523622E+02 -0.88235730679E+02  0.94906608061E+01  0.11944972651E+03  0.41800000000E+01 0. -1.
         -5    1    3    3    0  502 -0.27381599864E+02  0.24939219949E+02 -0.48747337363E+02  0.61363604871E+02  0.41800000000E+01 0. -1.
        -11    1    1    2    0    0  0.86371303804E+02  0.40727477564E+02 -0.94177923044E+02  0.13412013547E+03  0.00000000000E+00 0.  1.
         11    1    1    2    0    0  0.20854819682E+02  0.22569033167E+02 -0.16617380376E+03  0.16899117675E+03  0.00000000000E+00 0. -1.
</event>
<event>
 7    1  0.2651429E-009  0.1407269E+03  0.7561462E-02  0.1212354E+00
          2   -1    0    0  501    0  0.00000000000E+00  0.00000000000E+00  0.40042047510E+03  0.40042047510E+03  0.00000000000E+00 0. -1.
         -2   -1    0    0    0  501 -0.00000000000E+00 -0.00000000000E+00 -0.84278344479E+02  0.84278344479E+02  0.00000000000E+00 0.  1.
         25    2    1    2    0    0 -0.72490905174E+02  0.71131015365E+02  0.31259663433E+03  0.35167788514E+03  0.12508447714E+03 0.  0.
          5    1    3    3  502    0 -0.99717057129E+02  0.21566799637E+02  0.22818287631E+03  0.24998703121E+03  0.41800000000E+01 0. -1.
         -5    1    3    3    0  502  0.27226151955E+02  0.49564215728E+02  0.84413758018E+02  0.10169085393E+03  0.41800000000E+01 0. -1.
        -11    1    1    2    0    0  0.82599587132E+02 -0.43785087841E+02 -0.19932464837E+02  0.95588330177E+02  0.00000000000E+00 0.  1.
         11    1    1    2    0    0 -0.10108681958E+02 -0.27345927524E+02  0.23477961126E+02  0.37432604261E+02  0.00000000000E+00 0. -1.
</event>
<event>
 7    1  0.2651429E-009  0.1387444E+03  0.7561462E-02  0.1215029E+00
         -2   -1    0    0    0  501 -0.00000000000E+00  0.00000000000E+00  0.39858980733E+02  0.39858980733E+02  0.00000000000E+00 0. -1.
          2   -1    0    0  501    0  0.00000000000E+00 -0.00000000000E+00 -0.51331414096E+03  0.51331414096E+03  0.00000000000E+00 0.  1.
         25    2    1    2    0    0 -0.41468034045E+02  0.79857969120E+02 -0.29838851549E+03  0.33582817185E+03  0.12509181328E+03 0.  0.
          5    1    3    3  502    0 -0.82823200008E+02  0.69501575795E+02 -0.18109674021E+03  0.21095888986E+03  0.41800000000E+01 0.  1.
         -5    1    3    3    0  502  0.41355165963E+02  0.10356393325E+02 -0.11729177528E+03  0.12486928198E+03  0.41800000000E+01 0.  1.
        -11    1    1    2    0    0  0.53792582693E+02 -0.90143398019E+01 -0.96439574625E+02  0.11079481860E+03  0.00000000000E+00 0. -1.
         11    1    1    2    0    0 -0.12324548648E+02 -0.70843629318E+02 -0.78627070114E+02  0.10655013125E+03  0.00000000000E+00 0.  1.
</event>
<event>
 7    1  0.2651429E-009  0.1389865E+03  0.7561462E-02  0.1214699E+00
          2   -1    0    0  501    0  0.00000000000E+00  0.00000000000E+00  0.35108676466E+03  0.35108676466E+03  0.00000000000E+00 0.  1.
         -2   -1    0    0    0  501 -0.00000000000E+00 -0.00000000000E+00 -0.71376343031E+02  0.71376343031E+02  0.00000000000E+00 0. -1.
         25    2    1    2    0    0  0.18671058282E+02  0.90260448284E+02  0.23662071180E+03  0.28307711361E+03  0.12509090316E+03 0.  0.
          5    1    3    3  502    0  0.10783508840E+02  0.12070851873E+03  0.20564503041E+03  0.23873454188E+03  0.41800000000E+01 0. -1.
         -5    1    3    3    0  502  0.78875494413E+01 -0.30448070441E+02  0.30975681397E+02  0.44342571732E+02  0.41800000000E+01 0. -1.
        -11    1    1    2    0    0  0.30508232882E+02 -0.12488586116E+02  0.33287978720E+02  0.46848762887E+02  0.00000000000E+00 0.  1.
         11    1    1    2    0    0 -0.49179291163E+02 -0.77771862168E+02  0.98017311083E+01  0.92537231195E+02  0.00000000000E+00 0. -1.
</event>
<event>
 7    1  0.2651429E-009  0.1605662E+03  0.7561462E-02  0.1188059E+00
          1   -1    0    0  501    0  0.00000000000E+00  0.00000000000E+00  0.50061770750E+03  0.50061770750E+03  0.00000000000E+00 0. -1.
         -1   -1    0    0    0  501 -0.00000000000E+00 -0.00000000000E+00 -0.67655219651E+02  0.67655219651E+02  0.00000000000E+00 0.  1.
         25    2    1    2    0    0  0.27891543438E+01  0.13567374107E+03  0.13541982335E+03  0.22891456501E+03  0.12509279005E+03 0.  0.
          5    1    3    3  502    0 -0.11105223603E+00 -0.24102163661E+02  0.14109275889E+02  0.28239523577E+02  0.41800000000E+01 0. -1.
         -5    1    3    3    0  502  0.29002065799E+01  0.15977590473E+03  0.12131054746E+03  0.20067504144E+03  0.41800000000E+01 0. -1.
        -11    1    1    2    0    0  0.71827209033E+01 -0.41946195287E+02  0.19699440603E+03  0.20153875753E+03  0.00000000000E+00 0. -1.
         11    1    1    2    0    0 -0.99718752472E+01 -0.93727545780E+02  0.10054825847E+03  0.13781960461E+03  0.00000000000E+00 0.  1.
</event>
<event>
 7    1  0.2651429E-009  0.9671409E+02  0.7561462E-02  0.1287362E+00
          2   -1    0    0  501    0  0.00000000000E+00  0.00000000000E+00  0.66519290744E+03  0.66519290744E+03  0.00000000000E+00 0. -1.
         -2   -1    0    0    0  501 -0.00000000000E+00 -0.00000000000E+00 -0.29465694237E+02  0.29465694237E+02  0.00000000000E+00 0.  1.
         25    2    1    2    0    0 -0.71994043327E+01 -0.81628604522E+02  0.43215626750E+03  0.45731454121E+03  0.12514986841E+03 0.  0.
          5    1    3    3  502    0  0.70148319677E+01 -0.55625795562E+02  0.42197290747E+03  0.42570182527E+03  0.41800000000E+01 0.  1.
         -5    1    3    3    0  502 -0.14214236300E+02 -0.26002808959E+02  0.10183360025E+02  0.31612715935E+02  0.41800000000E+01 0.  1.
        -11    1    1    2    0    0 -0.24103866875E+02  0.51587959316E+01  0.95035827655E+01  0.26418320521E+02  0.00000000000E+00 0.  1.
         11    1    1    2    0    0  0.31303271208E+02  0.76469808590E+02  0.19406736294E+03  0.21092573995E+03  0.00000000000E+00 0. -1.
</event>
<event>
 7    1  0.2651429E-009  0.2320520E+03  0.7561462E-02  0.1125204E+00
          2   -1    0    0  501    0  0.00000000000E+00  0.00000000000E+00  0.98766631231E+02  0.98766631231E+02  0.00000000000E+00 0.  1.
         -2   -1    0    0    0  501 -0.00000000000E+00 -0.00000000000E+00 -0.63373896465E+03  0.63373896465E+03  0.00000000000E+00 0. -1.
         25    2    1    2    0    0 -0.16646807966E+03  0.15074654640E+03 -0.29379952656E+03  0.39038667027E+03  0.12508975868E+03 0.  0.
          5    1    3    3  502    0 -0.20572514049E+02  0.63073319764E+02 -0.22679947969E+02  0.70237628378E+02  0.41800000000E+01 0. -1.
         -5    1    3    3    0  502 -0.14589556561E+03  0.87673226633E+02 -0.27111957859E+03  0.32014904190E+03  0.41800000000E+01 0. -1.
        -11    1    1    2    0    0  0.17595956600E+02 -0.34330483800E+01  0.52854752122E+01  0.18690632896E+02  0.00000000000E+00 0.  1.
         11    1    1    2    0    0  0.14887212306E+03 -0.14731349802E+03 -0.24645828208E+03  0.32342829271E+03  0.00000000000E+00 0. -1.
</event>
<event>
 7    1  0.2651429E-009  0.9993144E+02  0.7561462E-02  0.1280440E+00
         -2   -1    0    0    0  501 -0.00000000000E+00  0.00000000000E+00  0.26063584553E+02  0.26063584553E+02  0.00000000000E+00 0.  1.
          2   -1    0    0  501    0  0.00000000000E+00 -0.00000000000E+00 -0.64092550947E+03  0.64092550947E+03  0.00000000000E+00 0. -1.
         25    2    1    2    0    0 -0.10587660673E+02 -0.15598113526E+01 -0.50112669636E+03  0.51661383414E+03  0.12508939305E+03 0.  0.
          5    1    3    3  502    0 -0.28197377993E+02 -0.46400760902E+02 -0.40860273266E+03  0.41221570600E+03  0.41800000000E+01 0. -1.
         -5    1    3    3    0  502  0.17609717319E+02  0.44840949549E+02 -0.92523963698E+02  0.10439812814E+03  0.41800000000E+01 0. -1.
        -11    1    1    2    0    0  0.12876802337E+02 -0.46849228229E+02 -0.69223342218E+02  0.84572651206E+02  0.00000000000E+00 0.  1.
         11    1    1    2    0    0 -0.22891416636E+01  0.48409039582E+02 -0.44511886335E+02  0.65802608671E+02  0.00000000000E+00 0. -1.
</event>
<event>
 7    1  0.2651429E-009  0.1533851E+03  0.7561462E-02  0.1196374E+00
          2   -1    0    0  501    0  0.00000000000E+00  0.00000000000E+00  0.51670040663E+03  0.51670040663E+03  0.00000000000E+00 0. -1.
         -2   -1    0    0    0  501 -0.00000000000E+00 -0.00000000000E+00 -0.84024758637E+02  0.84024758637E+02  0.00000000000E+00 0.  1.
         25    2    1    2    0    0 -0.27269788344E+02 -0.11053162803E+03  0.42139079036E+03  0.45406659174E+03  0.12508153094E+03 0.  0.
          5    1    3    3  502    0 -0.45094715152E+02  0.53675119625E+01  0.17973486101E+03  0.18543040793E+03  0.41800000000E+01 0. -1.
         -5    1    3    3    0  502  0.17824926809E+02 -0.11589914000E+03  0.24165592935E+03  0.26863618382E+03  0.41800000000E+01 0. -1.
        -11    1    1    2    0    0 -0.32295553710E+02  0.34757365524E+02  0.16239752990E+02  0.50147849653E+02  0.00000000000E+00 0. -1.
         11    1    1    2    0    0  0.59565342054E+02  0.75774262509E+02 -0.49548953646E+01  0.96510723865E+02  0.00000000000E+00 0.  1.
</event>
<event>
 7    1  0.2651429E-009  0.9989773E+02  0.7561462E-02  0.1280511E+00
          2   -1    0    0  501    0  0.00000000000E+00  0.00000000000E+00  0.27292737729E+03  0.27292737729E+03  0.00000000000E+00 0.  1.
         -2   -1    0    0    0  501 -0.00000000000E+00 -0.00000000000E+00 -0.67018373301E+02  0.67018373301E+02  0.00000000000E+00 0. -1.
         25    2    1    2    0    0  0.43842461476E+02 -0.37394218878E+02  0.40677192865E+02  0.14360574951E+03  0.12508992062E+03 0.  0.
          5    1    3    3  502    0  0.72363861267E+01  0.22849343189E+02  0.64613512219E+02  0.69042277842E+02  0.41800000000E+01 0.  1.
         -5    1    3    3    0  502  0.36606075349E+02 -0.60243562068E+02 -0.23936319354E+02  0.74563471669E+02  0.41800000000E+01 0.  1.
        -11    1    1    2    0    0 -0.36661297316E+02  0.65922309994E+02  0.10474465088E+03  0.12907843958E+03  0.00000000000E+00 0. -1.
         11    1    1    2    0    0 -0.71811641597E+01 -0.28528091116E+02  0.60487160245E+02  0.67261561504E+02  0.00000000000E+00 0.  1.
</event>
<event>
 7    1  0.2651429E-009  0.1164657E+03  0.7561462E-02  0.1249044E+00
         -2   -1    0    0    0  501 -0.00000000000E+00  0.00000000000E+00  0.74358254978E+03  0.74358254978E+03  0.00000000000E+00 0.  1.
          2   -1    0    0  501    0  0.00000000000E+00 -0.00000000000E+00 -0.20249196383E+02  0.20249196383E+02  0.00000000000E+00 0. -1.
         25    2    1    2    0    0  0.45773476063E+02 -0.96927681374E+01  0.29478435280E+03  0.32362462520E+03  0.12508366205E+03 0.  0.
          5    1    3    3  502    0  0.55655996891E+02  0.48762753464E+02  0.16447195072E+03  0.18039925468E+03  0.41800000000E+01 0.  1.
         -5    1    3    3    0  502 -0.98825208279E+01 -0.58455521601E+02  0.13031240208E+03  0.14322537052E+03  0.41800000000E+01 0.  1.
        -11    1    1    2    0    0 -0.33389437364E+02 -0.37723965009E+02  0.25177699324E+03  0.25676761165E+03  0.00000000000E+00 0.  1.
         11    1    1    2    0    0 -0.12384038699E+02  0.47416733146E+02  0.17677200736E+03  0.18343950932E+03  0.00000000000E+00 0. -1.
</event>
<event>
 7    1  0.2651429E-009  0.1359143E+03  0.7561462E-02  0.1218935E+00
          1   -1    0    0  501    0  0.00000000000E+00  0.00000000000E+00  0.57093950215E+03  0.57093950215E+03  0.00000000000E+00 0. -1.
         -1   -1    0    0    0  501 -0.00000000000E+00 -0.00000000000E+00 -0.51717922236E+02  0.51717922236E+02  0.00000000000E+00 0.  1.
         25    2    1    2    0    0  0.12137481088E+03 -0.59142207435E+02  0.27383247587E+03  0.32994047525E+03  0.12508735727E+03 0.  0.
          5    1    3    3  502    0  0.34670807822E+02 -0.22659153211E+02  0.13535862640E+01  0.41651011213E+02  0.41800000000E+01 0. -1.
         -5    1    3    3    0  502  0.86704003061E+02 -0.36483054224E+02  0.27247888961E+03  0.28828946404E+03  0.41800000000E+01 0. -1.
        -11    1    1    2    0    0 -0.25599215421E+02  0.20365877228E+02  0.77964310205E+01  0.33628457028E+02  0.00000000000E+00 0.  1.
         11    1    1    2    0    0 -0.95775595462E+02  0.38776330207E+02  0.23759267302E+03  0.25908849211E+03  0.00000000000E+00 0. -1.
</event>
<event>
 7    1  0.2651429E-009  0.1121965E+03  0.7561462E-02  0.1256556E+00
          1   -1    0    0  501    0  0.00000000000E+00  0.00000000000E+00  0.71108735570E+03  0.71108735570E+03  0.00000000000E+00 0. -1.
         -1   -1    0    0    0  501 -0.00000000000E+00 -0.00000000000E+00 -0.21390915471E+02  0.21390915471E+02  0.00000000000E+00 0.  1.
         25    2    1    2    0    0 -0.43088389895E+02 -0.53665696910E+01  0.26756360356E+03  0.29853420674E+03  0.12508789401E+03 0.  0.
          5    1    3    3  502    0  0.13929984885E+02  0.48333164919E+02  0.13960019416E+03  0.14844468977E+03  0.41800000000E+01 0. -1.
         -5    1    3    3    0  502 -0.57018374780E+02 -0.53699734610E+02  0.12796340940E+03  0.15008951697E+03  0.41800000000E+01 0. -1.
        -11    1    1    2    0    0 -0.18944512068E+01 -0.34995418077E+02  0.94626062324E+02  0.10090768010E+03  0.00000000000E+00 0. -1.
         11    1    1    2    0    0  0.44982841102E+02  0.40361987768E+02  0.32750677434E+03  0.33303638433E+03  0.00000000000E+00 0.  1.
</event>
<event>
 7    1  0.2651429E-009  0.9027155E+02  0.7561462E-02  0.1302195E+00
          1   -1    0    0  501    0  0.00000000000E+00  0.00000000000E+00  0.51980436017E+02  0.51980436017E+02  0.00000000000E+00 0. -1.
         -1   -1    0    0    0  501 -0.00000000000E+00 -0.00000000000E+00 -0.25264639162E+03  0.25264639162E+03  0.00000000000E+00 0.  1.
         25    2    1    2    0    0 -0.27869879941E+01  0.14910477188E+02 -0.16711773471E+03  0.20930030933E+03  0.12509273599E+03 0.  0.
          5    1    3    3  502    0  0.31068535413E+02 -0.24558391091E+02 -0.64071269052E+01  0.40334751033E+02  0.41800000000E+01 0. -1.
         -5    1    3    3    0  502 -0.33855523407E+02  0.39468868279E+02 -0.16071060781E+03  0.16896555830E+03  0.41800000000E+01 0. -1.
        -11    1    1    2    0    0 -0.29928090266E+02  0.23533854493E+02 -0.86632640786E+01  0.39045934984E+02  0.00000000000E+00 0.  1.
         11    1    1    2    0    0  0.32715078260E+02 -0.38444331681E+02 -0.24884956815E+02  0.56280583327E+02  0.00000000000E+00 0. -1.
</event>
<event>
 7    1  0.2651429E-009  0.1025806E+03  0.7561462E-02  0.1274961E+00
          1   -1    0    0  501    0  0.00000000000E+00  0.00000000000E+00  0.57582801798E+02  0.57582801798E+02  0.00000000000E+00 0. -1.
         -1   -1    0    0    0  501 -0.00000000000E+00 -0.00000000000E+00 -0.24658412926E+03  0.24658412926E+03  0.00000000000E+00 0.  1.
         25    2    1    2    0    0  0.44843837087E+02  0.17161142361E+02 -0.11919287797E+03  0.17933665016E+03  0.12509683209E+03 0.  0.
          5    1    3    3  502    0  0.11220642269E+02  0.67711781508E+02 -0.40305412777E+02  0.79704371693E+02  0.41800000000E+01 0.  1.
         -5    1    3    3    0  502  0.33623194818E+02 -0.50550639147E+02 -0.78887465192E+02  0.99632278466E+02  0.41800000000E+01 0.  1.
        -11    1    1    2    0    0  0.12540038283E+02  0.56984876287E+01 -0.60880103697E+02  0.62418846093E+02  0.00000000000E+00 0.  1.
         11    1    1    2    0    0 -0.57383875370E+02 -0.22859629990E+02 -0.89283457953E+01  0.62411434805E+02  0.00000000000E+00 0. -1.
</event>
<event>
 7    1  0.2651429E-009  0.1011298E+03  0.7561462E-02  0.1277938E+00
         -2   -1    0    0    0  501 -0.00000000000E+00  0.00000000000E+00  0.27766718402E+02  0.27766718402E+02  0.00000000000E+00 0.  1.
          2   -1    0    0  501    0  0.00000000000E+00 -0.00000000000E+00 -0.81611761886E+03  0.81611761886E+03  0.00000000000E+00 0. -1.
         25    2    1    2    0    0 -0.23931390624E+02  0.76259198556E+02 -0.61676038272E+03  0.63437263428E+03  0.12508833922E+03 0.  0.
          5    1    3    3  502    0 -0.17524818642E+02 -0.60215580404E+01 -0.42672872705E+03  0.42715132836E+03  0.41800000000E+01 0. -1.
         -5    1    3    3    0  502 -0.64065719824E+01  0.82280756596E+02 -0.19003165567E+03  0.20722130592E+03  0.41800000000E+01 0. -1.
        -11    1    1    2    0    0 -0.13054031670E+02 -0.57868305338E+02 -0.39892698869E+02  0.71488292248E+02  0.00000000000E+00 0.  1.
         11    1    1    2    0    0  0.36985422294E+02 -0.18390893218E+02 -0.13169781887E+03  0.13802341073E+03  0.00000000000E+00 0. -1.
</event>
<event>
 7    1  0.2651429E-009  0.1505095E+03  0.7561462E-02  0.1199848E+00
         -1   -1    0    0    0  501 -0.00000000000E+00  0.00000000000E+00  0.16090492481E+03  0.16090492481E+03  0.00000000000E+00 0.  1.
          1   -1    0    0  501    0  0.00000000000E+00 -0.00000000000E+00 -0.14274052613E+03  0.14274052613E+03  0.00000000000E+00 0. -1.
         25    2    1    2    0    0 -0.85729392793E+02 -0.60080854817E+02  0.22333254752E+02  0.16463668471E+03  0.12508887152E+03 0.  0.
          5    1    3    3  502    0 -0.63799111920E+02 -0.98678593132E+02  0.82225778970E+01  0.11786803897E+03  0.41800000000E+01 0.  1.
         -5    1    3    3    0  502 -0.21930280873E+02  0.38597738315E+02  0.14110676855E+02  0.46768645731E+02  0.41800000000E+01 0.  1.
        -11    1    1    2    0    0  0.98935167469E+02  0.25993429949E+02 -0.77818635087E+00  0.10229580312E+03  0.00000000000E+00 0. -1.
         11    1    1    2    0    0 -0.13205774676E+02  0.34087424868E+02 -0.33906697210E+01  0.36712963106E+02  0.00000000000E+00 0.  1.
</event>
<event>
 7    1  0.2651429E-009  0.1697854E+03  0.7561462E-02  0.1178072E+00
         -2   -1    0    0    0  501 -0.00000000000E+00  0.00000000000E+00  0.83475577759E+02  0.83475577759E+02  0.00000000000E+00 0.  1.
          2   -1    0    0  501    0  0.00000000000E+00 -0.00000000000E+00 -0.35680561882E+03  0.35680561882E+03  0.00000000000E+00 0. -1.
         25    2    1    2    0    0  0.12900151773E+03  0.32034032329E+02 -0.12229717222E+03  0.21970872309E+03  0.12509098235E+03 0.  0.
          5    1    3    3  502    0  0.14569881663E+03  0.36573328692E+00 -0.89959245932E+02  0.17128460893E+03  0.41800000000E+01 0.  1.
         -5    1    3    3    0  502 -0.16697298907E+02  0.31668299042E+02 -0.32337926289E+02  0.48424114155E+02  0.41800000000E+01 0.  1.
        -11    1    1    2    0    0 -0.14127244876E+03 -0.34086376479E+02 -0.12487980992E+03  0.19161094115E+03  0.00000000000E+00 0.  1.
         11    1    1    2    0    0  0.12270931036E+02  0.20523441500E+01 -0.26153058922E+02  0.28961532348E+02  0.00000000000E+00 0. -1.
</event>
<event>
 7    1  0.2651429E-009  0.1631818E+03  0.7561462E-02  0.1185151E+00
         -4   -1    0    0    0  501 -0.00000000000E+00  0.00000000000E+00  0.33306735396E+02  0.33306735396E+02  0.00000000000E+00 0.  1.
          4   -1    0    0  501    0  0.00000000000E+00 -0.00000000000E+00 -0.92009628388E+03  0.92009628388E+03  0.00000000000E+00 0. -1.
         25    2    1    2    0    0 -0.81936336143E+02  0.10746690946E+03 -0.55033500785E+03  0.58032745633E+03  0.12509450784E+03 0.  0.
          5    1    3    3  502    0  0.20654863828E+02  0.85788343350E+01 -0.17364282864E+02  0.28621853847E+02  0.41800000000E+01 0. -1.
         -5    1    3    3    0  502 -0.10259119997E+03  0.98888075120E+02 -0.53297072499E+03  0.55170560248E+03  0.41800000000E+01 0. -1.
        -11    1    1    2    0    0 -0.18966120368E+02 -0.19362403733E+02 -0.51058674519E+02  0.57806614187E+02  0.00000000000E+00 0. -1.
         11    1    1    2    0    0  0.10090245651E+03 -0.88104505722E+02 -0.28539586611E+03  0.31526894876E+03  0.00000000000E+00 0.  1.
</event>
<event>
 7    1  0.2651429E-009  0.9261610E+02  0.7561462E-02  0.1296637E+00
          2   -1    0    0  501    0  0.00000000000E+00  0.00000000000E+00  0.38275999774E+03  0.38275999774E+03  0.00000000000E+00 0. -1.
         -2   -1    0    0    0  501 -0.00000000000E+00 -0.00000000000E+00 -0.60027101164E+02  0.60027101164E+02  0.00000000000E+00 0.  1.
         25    2    1    2    0    0 -0.19432477363E+02 -0.52518304805E+02  0.30563566315E+03  0.33495609453E+03  0.12508650269E+03 0.  0.
          5    1    3    3  502    0  0.16881005336E+02 -0.34245059488E+02  0.14637741217E+02  0.41102655735E+02  0.41800000000E+01 0.  1.
         -5    1    3    3    0  502 -0.36313482699E+02 -0.18273245317E+02  0.29099792194E+03  0.29385343879E+03  0.41800000000E+01 0.  1.
        -11    1    1    2    0    0  0.18774801387E+02 -0.23420222343E+02  0.12853733791E+00  0.30016936945E+02  0.00000000000E+00 0.  1.
         11    1    1    2    0    0  0.65767597597E+00  0.75938527148E+02  0.16968696083E+02  0.77814067429E+02  0.00000000000E+00 0. -1.
</event>
<event>
 7    1  0.2651429E-009  0.1890222E+03  0.7561462E-02  0.1159346E+00
          1   -1    0    0  501    0  0.00000000000E+00  0.00000000000E+00  0.12309783303E+03  0.12309783303E+03  0.00000000000E+00 0.  1.
         -1   -1    0    0    0  501 -0.00000000000E+00 -0.00000000000E+00 -0.35773858432E+03  0.35773858432E+03  0.00000000000E+00 0. -1.
         25    2    1    2    0    0  0.15445156257E+03 -0.90900610891E+02 -0.14094298913E+03  0.26006251305E+03  0.12509747506E+03 0.  0.
          5    1    3    3  502    0  0.99386836490E+02 -0.85761213462E+02 -0.15468585077E+03  0.20292341863E+03  0.41800000000E+01 0.  1.
         -5    1    3    3    0  502  0.55064726083E+02 -0.51393974289E+01  0.13742861637E+02  0.57139094415E+02  0.41800000000E+01 0.  1.
        -11    1    1    2    0    0 -0.10693881751E+03  0.95674781732E+02 -0.40097593082E+02  0.14898789051E+03  0.00000000000E+00 0.  1.
         11    1    1    2    0    0 -0.47512745067E+02 -0.47741708414E+01 -0.53600169070E+02  0.71786013787E+02  0.00000000000E+00 0. -1.
</event>
<event>
 7    1  0.2651429E-009  0.9537221E+02  0.7561462E-02  0.1290340E+00
          2   -1    0    0  501    0  0.00000000000E+00  0.00000000000E+00  0.36485232637E+02  0.36485232637E+02  0.00000000000E+00 0. -1.
         -2   -1    0    0    0  501 -0.00000000000E+00 -0.00000000000E+00 -0.36130557802E+03  0.36130557802E+03  0.00000000000E+00 0.  1.
         25    2    1    2    0    0  0.32745098481E+02 -0.22828027309E+02 -0.15908333395E+03  0.20627174314E+03  0.12508862687E+03 0.  0.
          5    1    3    3  502    0 -0.15440140071E+01 -0.55696754290E+02 -0.14674025217E+03  0.15701810859E+03  0.41800000000E+01 0.  1.
         -5    1    3    3    0  502  0.34289112488E+02  0.32868726981E+02 -0.12343081773E+02  0.49253634548E+02  0.41800000000E+01 0.  1.
        -11    1    1    2    0    0  0.11385253356E+02  0.38661400123E+02 -0.37775487076E+02  0.55238711763E+02  0.00000000000E+00 0. -1.
         11    1    1    2    0    0 -0.44130351837E+02 -0.15833372814E+02 -0.12796152435E+03  0.13628035575E+03  0.00000000000E+00 0.  1.
</event>
<event>
 7    1  0.2651429E-009  0.1156825E+03  0.7561462E-02  0.1250394E+00
          2   -1    0    0  501    0  0.00000000000E+00  0.00000000000E+00  0.19614894438E+02  0.19614894438E+02  0.00000000000E+00 0. -1.
         -2   -1    0    0    0  501 -0.00000000000E+00 -0.00000000000E+00 -0.75202850208E+03  0.75202850208E+03  0.00000000000E+00 0.  1.
         25    2    1    2    0    0 -0.32886330173E+02  0.41190099152E+02 -0.33586944688E+03  0.36226189034E+03  0.12508899579E+03 0.  0.
          5    1    3    3  502    0 -0.21782219859E+02 -0.43230401214E+02 -0.15230434243E+03  0.15986687529E+03  0.41800000000E+01 0.  1.
         -5    1    3    3    0  502 -0.11104110313E+02  0.84420500366E+02 -0.18356510445E+03  0.20239501505E+03  0.41800000000E+01 0.  1.
        -11    1    1    2    0    0  0.57181984386E+02 -0.10096146933E+02 -0.17589531072E+03  0.18523194070E+03  0.00000000000E+00 0.  1.
         11    1    1    2    0    0 -0.24295654213E+02 -0.31093952218E+02 -0.22064885005E+03  0.22414956548E+03  0.00000000000E+00 0. -1.
</event>
<event>
 7    1  0.2651429E-009  0.9982731E+02  0.7561462E-02  0.1280660E+00
         -1   -1    0    0    0  501 -0.00000000000E+00  0.00000000000E+00  0.16639790960E+03  0.16639790960E+03  0.00000000000E+00 0.  1.
          1   -1    0    0  501    0  0.00000000000E+00 -0.00000000000E+00 -0.83258388856E+02  0.83258388856E+02  0.00000000000E+00 0. -1.
         25    2    1    2    0    0  0.12827609230E+02 -0.15233773918E+02 -0.28372529330E+01  0.12669336816E+03  0.12508614674E+03 0.  0.
          5    1    3    3  502    0  0.19340597472E+02 -0.63682479241E+02 -0.27072026120E+02  0.71971410096E+02  0.41800000000E+01 0. -1.
         -5    1    3    3    0  502 -0.65129882422E+01  0.48448705323E+02  0.24234773187E+02  0.54721958067E+02  0.41800000000E+01 0. -1.
        -11    1    1    2    0    0  0.40289867293E+01 -0.32776118109E+02  0.52609721431E+02  0.62115130535E+02  0.00000000000E+00 0.  1.
         11    1    1    2    0    0 -0.16856595959E+02  0.48009892027E+02  0.33367052247E+02  0.60847799758E+02  0.00000000000E+00 0. -1.
</event>
<event>
 7    1  0.2651429E-009  0.1007845E+03  0.7561462E-02  0.1278655E+00
          2   -1    0    0  501    0  0.00000000000E+00  0.00000000000E+00  0.32580398880E+03  0.32580398880E+03  0.00000000000E+00 0. -1.
         -2   -1    0    0    0  501 -0.00000000000E+00 -0.00000000000E+00 -0.49552367898E+02  0.49552367898E+02  0.00000000000E+00 0.  1.
         25    2    1    2    0    0 -0.30681269153E+02 -0.11078658249E+02  0.25422278245E+03  0.28520301483E+03  0.12508980616E+03 0.  0.
          5    1    3    3  502    0 -0.18440239364E+02 -0.64435491726E+02  0.18525717728E+03  0.19705245281E+03  0.41800000000E+01 0. -1.
         -5    1    3    3    0  502 -0.12241029789E+02  0.53356833477E+02  0.68965605167E+02  0.88150562023E+02  0.41800000000E+01 0. -1.
        -11    1    1    2    0    0  0.12839292886E+02 -0.31138467472E+02 -0.89289531741E+01  0.34845054213E+02  0.00000000000E+00 0.  1.
         11    1    1    2    0    0  0.17841976267E+02  0.42217125721E+02  0.30957791627E+02  0.55308287658E+02  0.00000000000E+00 0. -1.
</event>
<event>
 7    1  0.2651429E-009  0.1611379E+03  0.7561462E-02  0.1187418E+00
          3   -1    0    0  501    0  0.00000000000E+00  0.00000000000E+00  0.15816454790E+03  0.15816454790E+03  0.00000000000E+00 0.  1.
         -3   -1    0    0    0  501 -0.00000000000E+00 -0.00000000000E+00 -0.30228694519E+03  0.30228694519E+03  0.00000000000E+00 0. -1.
         25    2    1    2    0    0 -0.21340569728E+02  0.12613051349E+03 -0.22137708156E+03  0.28463864683E+03  0.12508805171E+03 0.  0.
          5    1    3    3  502    0 -0.44657403226E+02  0.13809809749E+03 -0.15128514480E+03  0.20969033270E+03  0.41800000000E+01 0.  1.
         -5    1    3    3    0  502  0.23316833498E+02 -0.11967584000E+02 -0.70091936763E+02  0.74948314126E+02  0.41800000000E+01 0.  1.
        -11    1    1    2    0    0  0.26032158763E+02 -0.17751302121E+01 -0.50999041593E+01  0.26586338589E+02  0.00000000000E+00 0.  1.
         11    1    1    2    0    0 -0.46915890350E+01 -0.12435538327E+03  0.82354588431E+02  0.14922650767E+03  0.00000000000E+00 0. -1.
</event>
<event>
 7    1  0.2651429E-009  0.1553599E+03  0.7561462E-02  0.1194037E+00
          1   -1    0    0  501    0  0.00000000000E+00  0.00000000000E+00  0.48447535419E+03  0.48447535419E+03  0.00000000000E+00 0. -1.
         -1   -1    0    0    0  501 -0.00000000000E+00 -0.00000000000E+00 -0.51682354358E+02  0.51682354358E+02  0.00000000000E+00 0.  1.
         25    2    1    2    0    0  0.86260255992E+02  0.71012383108E+02  0.19351380038E+03  0.25608882328E+03  0.12510117566E+03 0.  0.
          5    1    3    3  502    0  0.11629983597E+03  0.72572957562E+02  0.16325119711E+03  0.21321564617E+03  0.41800000000E+01 0.  1.
         -5    1    3    3    0  502 -0.30039579981E+02 -0.15605744542E+01  0.30262603279E+02  0.42873177107E+02  0.41800000000E+01 0.  1.
        -11    1    1    2    0    0 -0.48350543882E+02  0.13817349667E+02  0.61219923733E+02  0.79224827594E+02  0.00000000000E+00 0.  1.
         11    1    1    2    0    0 -0.37909712110E+02 -0.84829732775E+02  0.17805927572E+03  0.20084405768E+03  0.00000000000E+00 0. -1.
</event>
<event>
 7    1  0.2651429E-009  0.1149600E+03  0.7561462E-02  0.1251651E+00
          2   -1    0    0  501    0  0.00000000000E+00  0.00000000000E+00  0.17788932904E+03  0.17788932904E+03  0.00000000000E+00 0. -1.
         -2   -1    0    0    0  501 -0.00000000000E+00 -0.00000000000E+00 -0.10097967464E+03  0.10097967464E+03  0.00000000000E+00 0.  1.
         25    2    1    2    0    0  0.40229450411E+02 -0.26130848291E+01 -0.27981111672E+02  0.13437356454E+03  0.12509226732E+03 0.  0.
          5    1    3    3  502    0  0.16026092914E+02  0.61015012764E+02 -0.13217523976E+02  0.64589803969E+02  0.41800000000E+01 0.  1.
         -5    1    3    3    0  502  0.24203357497E+02 -0.63628097593E+02 -0.14763587696E+02  0.69783760569E+02  0.41800000000E+01 0.  1.
        -11    1    1    2    0    0 -0.20696849017E+02 -0.43632045804E+02  0.41804373232E+02  0.63872690577E+02  0.00000000000E+00 0.  1.
         11    1    1    2    0    0 -0.19532601394E+02  0.46245130633E+02  0.63086392842E+02  0.80622748565E+02  0.00000000000E+00 0. -1.
</event>
<event>
 7    1  0.2651429E-009  0.1136922E+03  0.7561462E-02  0.1253881E+00
         -2   -1    0    0    0  501 -0.00000000000E+00  0.00000000000E+00  0.51126230974E+02  0.51126230974E+02  0.00000000000E+00 0.  1.
          2   -1    0    0  501    0  0.00000000000E+00 -0.00000000000E+00 -0.30643535896E+03  0.30643535896E+03  0.00000000000E+00 0. -1.
         25    2    1    2    0    0  0.49733260382E+02  0.34564793150E+02 -0.12270204778E+03  0.18539046415E+03  0.12508281079E+03 0.  0.
          5    1    3    3  502    0  0.24190876387E+02 -0.39189258646E+02 -0.85268860176E+01  0.47023150456E+02  0.41800000000E+01 0.  1.
         -5    1    3    3    0  502  0.25542383995E+02  0.73754051797E+02 -0.11417516176E+03  0.13836731370E+03  0.41800000000E+01 0.  1.
        -11    1    1    2    0    0 -0.19243051159E+02  0.27653372970E+02 -0.17868922535E+02  0.38135317582E+02  0.00000000000E+00 0.  1.
         11    1    1    2    0    0 -0.30490209223E+02 -0.62218166120E+02 -0.11473815767E+03  0.13403580820E+03  0.00000000000E+00 0. -1.
</event>
<event>
 7    1  0.2651429E-009  0.3962408E+03  0.7561462E-02  0.1045089E+00
          4   -1    0    0  501    0  0.00000000000E+00  0.00000000000E+00  0.25716998498E+03  0.25716998498E+03  0.00000000000E+00 0.  1.
         -4   -1    0    0    0  501 -0.00000000000E+00 -0.00000000000E+00 -0.62311444611E+03  0.62311444611E+03  0.00000000000E+00 0. -1.
         25    2    1    2    0    0  0.45506973147E+02 -0.38035357587E+03 -0.22715652117E+03  0.46258760408E+03  0.12508988390E+03 0.  0.
          5    1    3    3  502    0  0.84141504433E+02 -0.22359086219E+03 -0.16066003932E+03  0.28792670431E+03  0.41800000000E+01 0.  1.
         -5    1    3    3    0  502 -0.38634531286E+02 -0.15676271368E+03 -0.66496481856E+02  0.17466089977E+03  0.41800000000E+01 0.  1.
        -11    1    1    2    0    0 -0.65927526893E+02  0.34472831015E+03 -0.11097994708E+03  0.36810405495E+03  0.00000000000E+00 0. -1.
         11    1    1    2    0    0  0.20420553745E+02  0.35625265727E+02 -0.27807992871E+02  0.49592772063E+02  0.00000000000E+00 0.  1.
</event>
<event>
 7    1  0.2651429E-009  0.2151051E+03  0.7561462E-02  0.1137586E+00
         -2   -1    0    0    0  501 -0.00000000000E+00  0.00000000000E+00  0.10556789410E+03  0.10556789410E+03  0.00000000000E+00 0.  1.
          2   -1    0    0  501    0  0.00000000000E+00 -0.00000000000E+00 -0.64794864384E+03  0.64794864384E+03  0.00000000000E+00 0. -1.
         25    2    1    2    0    0  0.10560480269E+03 -0.15325322553E+03 -0.65722981148E+02  0.23367829560E+03  0.12508840913E+03 0.  0.
          5    1    3    3  502    0  0.11519279594E+03 -0.59525655688E+02 -0.33115338917E+02  0.13389093320E+03  0.41800000000E+01 0.  1.
         -5    1    3    3    0  502 -0.95879932518E+01 -0.93727569841E+02 -0.32607642231E+02  0.99787362400E+02  0.41800000000E+01 0.  1.
        -11    1    1    2    0    0 -0.63258156438E+02  0.19992060684E+02 -0.12761174651E+03  0.14382640472E+03  0.00000000000E+00 0. -1.
         11    1    1    2    0    0 -0.42346646249E+02  0.13326116485E+03 -0.34904602208E+03  0.37601183762E+03  0.00000000000E+00 0.  1.
</event>
<event>
 7    1  0.2651429E-009  0.7820739E+02  0.7561462E-02  0.1334217E+00
          2   -1    0    0  501    0  0.00000000000E+00  0.00000000000E+00  0.43678327715E+03  0.43678327715E+03  0.00000000000E+00 0. -1.
         -2   -1    0    0    0  501 -0.00000000000E+00 -0.00000000000E+00 -0.32371589925E+02  0.32371589925E+02  0.00000000000E+00 0.  1.
         25    2    1    2    0    0 -0.18407765660E+01  0.47358156255E+02  0.19794356287E+03  0.23890558341E+03  0.12509212718E+03 0.  0.
          5    1    3    3  502    0  0.11675220793E+02  0.27306780854E+02 -0.83707029573E+01  0.31136989725E+02  0.41800000000E+01 0. -1.
         -5    1    3    3    0  502 -0.13515997359E+02  0.20051375402E+02  0.20631426582E+03  0.20776859369E+03  0.41800000000E+01 0. -1.
        -11    1    1    2    0    0 -0.44067788361E+02 -0.26848234026E+02  0.10716906544E+03  0.11894539180E+03  0.00000000000E+00 0.  1.
         11    1    1    2    0    0  0.45908564927E+02 -0.20509922229E+02  0.99299058918E+02  0.11130389187E+03  0.00000000000E+00 0. -1.
</event>
<event>
 7    1  0.2651429E-009  0.1434044E+03  0.7561462E-02  0.1208820E+00
         -2   -1    0    0    0  501 -0.00000000000E+00  0.00000000000E+00  0.19150567387E+02  0.19150567387E+02  0.00000000000E+00 0.  1.
          2   -1    0    0  501    0  0.00000000000E+00 -0.00000000000E+00 -0.11481633789E+04  0.11481633789E+04  0.00000000000E+00 0. -1.
         25    2    1    2    0    0 -0.30658753159E+02  0.96959665228E+02 -0.61938193080E+03  0.64001743268E+03  0.12508877692E+03 0.  0.
          5    1    3    3  502    0 -0.47235112820E+02 -0.96876773915E+01 -0.27060995757E+03  0.27490403509E+03  0.41800000000E+01 0. -1.
         -5    1    3    3    0  502  0.16576359662E+02  0.10664734262E+03 -0.34877197323E+03  0.36511339759E+03  0.41800000000E+01 0. -1.
        -11    1    1    2    0    0 -0.10479651327E+02 -0.87582417299E+02 -0.27188520462E+03  0.28583573500E+03  0.00000000000E+00 0.  1.
         11    1    1    2    0    0  0.41138404486E+02 -0.93772479287E+01 -0.23774567607E+03  0.24146077858E+03  0.00000000000E+00 0. -1.
</event>
<event>
 7    1  0.2651429E-009  0.8152250E+02  0.7561462E-02  0.1324785E+00
          2   -1    0    0  501    0  0.00000000000E+00  0.00000000000E+00  0.41120724736E+02  0.41120724736E+02  0.00000000000E+00 0. -1.
         -2   -1    0    0    0  501 -0.00000000000E+00 -0.00000000000E+00 -0.30192395913E+03  0.30192395913E+03  0.00000000000E+00 0.  1.
         25    2    1    2    0    0  0.93020769518E+00  0.17299970848E+02 -0.13242774983E+03  0.18298696426E+03  0.12508783268E+03 0.  0.
          5    1    3    3  502    0 -0.29827708428E+02  0.49259354449E+02 -0.18454543343E+02  0.60615334369E+02  0.41800000000E+01 0.  1.
         -5    1    3    3    0  502  0.30757916123E+02 -0.31959383600E+02 -0.11397320649E+03  0.12237162989E+03  0.41800000000E+01 0.  1.
        -11    1    1    2    0    0  0.17858140123E+02  0.15043655595E+02 -0.11930555314E+03  0.12156907400E+03  0.00000000000E+00 0.  1.
         11    1    1    2    0    0 -0.18788347818E+02 -0.32343626443E+02 -0.90699314275E+01  0.38488645616E+02  0.00000000000E+00 0. -1.
</event>
<event>
 7    1  0.2651429E-009  0.1135648E+03  0.7561462E-02  0.1254107E+00
          4   -1    0    0  501    0  0.00000000000E+00  0.00000000000E+00  0.57598216477E+02  0.57598216477E+02  0.00000000000E+00 0. -1.
         -4   -1    0    0    0  501 -0.00000000000E+00 -0.00000000000E+00 -0.41813443646E+03  0.41813443646E+03  0.00000000000E+00 0.  1.
         25    2    1    2    0    0 -0.44014099244E+02  0.73528881007E+02 -0.30199154552E+03  0.33791949694E+03  0.12508779146E+03 0.  0.
          5    1    3    3  502    0 -0.81050330858E+02  0.58580692403E+02 -0.26518782708E+03  0.28344824869E+03  0.41800000000E+01 0.  1.
         -5    1    3    3    0  502  0.37036231614E+02  0.14948188604E+02 -0.36803718439E+02  0.54471248248E+02  0.41800000000E+01 0.  1.
        -11    1    1    2    0    0  0.19331433762E+02 -0.46055103875E+02  0.17783459832E+02  0.53019132092E+02  0.00000000000E+00 0. -1.
         11    1    1    2    0    0  0.24682665482E+02 -0.27473777132E+02 -0.76328134289E+02  0.84794023900E+02  0.00000000000E+00 0.  1.
</event>
<event>
 7    1  0.2651429E-009  0.4821523E+02  0.7561462E-02  0.1455213E+00
         -2   -1    0    0    0  501 -0.00000000000E+00  0.00000000000E+00  0.17688988202E+03  0.17688988202E+03  0.00000000000E+00 0.  1.
          2   -1    0    0  501    0  0.00000000000E+00 -0.00000000000E+00 -0.95559968360E+02  0.95559968360E+02  0.00000000000E+00 0. -1.
         25    2    1    2    0    0 -0.98202513102E+01 -0.25063625765E+02  0.11458674944E+03  0.17175879148E+03  0.12508531742E+03 0.  0.
          5    1    3    3  502    0  0.93101281505E+01  0.57811631681E+01  0.13112919229E+03  0.13165271666E+03  0.41800000000E+01 0.  1.
         -5    1    3    3    0  502 -0.19130379461E+02 -0.30844788933E+02 -0.16542442849E+02  0.40106074827E+02  0.41800000000E+01 0.  1.
        -11    1    1    2    0    0  0.15801748826E+02 -0.57209560503E+01  0.27551442341E+02  0.32272381058E+02  0.00000000000E+00 0.  1.
         11    1    1    2    0    0 -0.59814975156E+01  0.30784581815E+02 -0.60808278115E+02  0.68418677840E+02  0.00000000000E+00 0. -1.
</event>
<event>
 7    1  0.2651429E-009  0.1222538E+03  0.7561462E-02  0.1239425E+00
          1   -1    0    0  501    0  0.00000000000E+00  0.00000000000E+00  0.65043804232E+03  0.65043804232E+03  0.00000000000E+00 0. -1.
         -1   -1    0    0    0  501 -0.00000000000E+00 -0.00000000000E+00 -0.74046788000E+02  0.74046788000E+02  0.00000000000E+00 0.  1.
         25    2    1    2    0    0 -0.48100207258E+02 -0.58874307758E+02  0.58573857617E+03  0.60375258440E+03  0.12509072511E+03 0.  0.
          5    1    3    3  502    0  0.19238659255E+02 -0.64069293219E+02  0.17348972156E+03  0.18598697865E+03  0.41800000000E+01 0. -1.
         -5    1    3    3    0  502 -0.67338866513E+02  0.51949854604E+01  0.41224885461E+03  0.41776560575E+03  0.41800000000E+01 0. -1.
        -11    1    1    2    0    0 -0.20824636608E+00  0.61436877665E+02 -0.29711434019E+02  0.68244432852E+02  0.00000000000E+00 0. -1.
         11    1    1    2    0    0  0.48308453624E+02 -0.25625699070E+01  0.20364112174E+02  0.52487813069E+02  0.00000000000E+00 0.  1.
</event>
<event>
 7    1  0.2651429E-009  0.2940742E+03  0.7561462E-02  0.1088241E+00
         -1   -1    0    0    0  501 -0.00000000000E+00  0.00000000000E+00  0.20057349248E+03  0.20057349248E+03  0.00000000000E+00 0.  1.
          1   -1    0    0  501    0  0.00000000000E+00 -0.00000000000E+00 -0.45227371340E+03  0.45227371340E+03  0.00000000000E+00 0. -1.
         25    2    1    2    0    0  0.27099010485E+03  0.58816761279E+02 -0.77357766005E+02  0.31389227737E+03  0.12509632089E+03 0.  0.
          5    1    3    3  502    0  0.12489541157E+03 -0.33316970693E+02 -0.51455366357E+02  0.13919055821E+03  0.41800000000E+01 0. -1.
         -5    1    3    3    0  502  0.14609469328E+03  0.92133731971E+02 -0.25902399648E+02  0.17470171916E+03  0.41800000000E+01 0. -1.
        -11    1    1    2    0    0 -0.55106980737E+02 -0.42418526159E+02 -0.69804719351E+02  0.98533291486E+02  0.00000000000E+00 0. -1.
         11    1    1    2    0    0 -0.21588312411E+03 -0.16398235120E+02 -0.10453773557E+03  0.24042163702E+03  0.00000000000E+00 0.  1.
</event>
<event>
 7    1  0.2651429E-009  0.3163728E+03  0.7561462E-02  0.1077331E+00
         -1   -1    0    0    0  501 -0.00000000000E+00  0.00000000000E+00  0.31272517348E+02  0.31272517348E+02  0.00000000000E+00 0.  1.
          1   -1    0    0  501    0  0.00000000000E+00 -0.00000000000E+00 -0.32837293791E+04  0.32837293791E+04  0.00000000000E+00 0. -1.
         25    2    1    2    0    0  0.19560672198E+03 -0.22728547366E+03 -0.15187332129E+04  0.15530996169E+04  0.12508865544E+03 0.  0.
          5    1    3    3  502    0  0.16371081033E+03 -0.10220288003E+03 -0.10057406950E+04  0.10240988605E+04  0.41800000000E+01 0. -1.
         -5    1    3    3    0  502  0.31895911643E+02 -0.12508259364E+03 -0.51299251797E+03  0.52900075643E+03  0.41800000000E+01 0. -1.
        -11    1    1    2    0    0 -0.84348043941E+01  0.56652663445E+02 -0.23172857895E+03  0.23870233452E+03  0.00000000000E+00 0.  1.
         11    1    1    2    0    0 -0.18717191758E+03  0.17063281021E+03 -0.15019950699E+04  0.15231999451E+04  0.00000000000E+00 0. -1.
</event>
<event>
 7    1  0.2651429E-009  0.4133667E+02  0.7561462E-02  0.1498599E+00
         -2   -1    0    0    0  501 -0.00000000000E+00  0.00000000000E+00  0.60615532493E+02  0.60615532493E+02  0.00000000000E+00 0.  1.
          2   -1    0    0  501    0  0.00000000000E+00 -0.00000000000E+00 -0.18968013254E+03  0.18968013254E+03  0.00000000000E+00 0. -1.
         25    2    1    2    0    0  0.33413275233E+02  0.13727576127E+02 -0.11380979671E+03  0.17293487589E+03  0.12509559610E+03 0.  0.
          5    1    3    3  502    0  0.35669012079E+02  0.68817955797E+01  0.18073085556E+02  0.40789046994E+02  0.41800000000E+01 0.  1.
         -5    1    3    3    0  502 -0.22557368458E+01  0.68457805477E+01 -0.13188288226E+03  0.13214582890E+03  0.41800000000E+01 0.  1.
        -11    1    1    2    0    0 -0.11922450670E+02 -0.10797248933E+02 -0.40796109666E+02  0.43852570943E+02  0.00000000000E+00 0. -1.
         11    1    1    2    0    0 -0.21490824564E+02 -0.29303271948E+01  0.25541306329E+02  0.33508218199E+02  0.00000000000E+00 0.  1.
</event>
<event>
 7    1  0.2651429E-009  0.1602239E+03  0.7561462E-02  0.1188444E+00
         -1   -1    0    0    0  501 -0.00000000000E+00  0.00000000000E+00  0.28380636812E+02  0.28380636812E+02  0.00000000000E+00 0.  1.
          1   -1    0    0  501    0  0.00000000000E+00 -0.00000000000E+00 -0.11780028968E+04  0.11780028968E+04  0.00000000000E+00 0. -1.
         25    2    1    2    0    0 -0.12898043386E+03  0.21981197203E+02 -0.40951315499E+03  0.44773610328E+03  0.12508984261E+03 0.  0.
          5    1    3    3  502    0 -0.10765379754E+03 -0.17064103900E+02 -0.37702931795E+03  0.39249089513E+03  0.41800000000E+01 0. -1.
         -5    1    3    3    0  502 -0.21326636320E+02  0.39045301103E+02 -0.32483837041E+02  0.55245208153E+02  0.41800000000E+01 0. -1.
        -11    1    1    2    0    0  0.10606283620E+03  0.29705646575E+02 -0.49107920966E+03  0.50327978383E+03  0.00000000000E+00 0.  1.
         11    1    1    2    0    0  0.22917597661E+02 -0.51686843778E+02 -0.24902989536E+03  0.25536764651E+03  0.00000000000E+00 0. -1.
</event>
<event>
 7    1  0.2651429E-009  0.1160466E+03  0.7561462E-02  0.1249765E+00
         -1   -1    0    0    0  501 -0.00000000000E+00  0.00000000000E+00  0.29077582977E+03  0.29077582977E+03  0.00000000000E+00 0.  1.
          1   -1    0    0  501    0  0.00000000000E+00 -0.00000000000E+00 -0.58926954174E+02  0.58926954174E+02  0.00000000000E+00 0. -1.
         25    2    1    2    0    0 -0.76638793896E+01  0.70949738831E+02  0.12403342085E+03  0.19006431839E+03  0.12509018807E+03 0.  0.
          5    1    3    3  502    0  0.20903821091E+00 -0.31386427006E+02  0.63175322034E+02  0.70666436243E+02  0.41800000000E+01 0. -1.
         -5    1    3    3    0  502 -0.78729176005E+01  0.10233616584E+03  0.60858098811E+02  0.11939788215E+03  0.41800000000E+01 0. -1.
        -11    1    1    2    0    0  0.14494817580E+01 -0.83599199659E+02  0.44387291844E+02  0.94663397668E+02  0.00000000000E+00 0. -1.
         11    1    1    2    0    0  0.62143976316E+01  0.12649460827E+02  0.63428162910E+02  0.64975067890E+02  0.00000000000E+00 0.  1.
</event>
<event>
 7    1  0.2651429E-009  0.9675265E+02  0.7561462E-02  0.1287277E+00
          4   -1    0    0  501    0  0.00000000000E+00  0.00000000000E+00  0.55096452463E+02  0.55096452463E+02  0.00000000000E+00 0. -1.
         -4   -1    0    0    0  501 -0.00000000000E+00 -0.00000000000E+00 -0.37132232881E+03  0.37132232881E+03  0.00000000000E+00 0.  1.
         25    2    1    2    0    0 -0.69595007940E+02  0.36813925135E+02 -0.98524976284E+02  0.17763346835E+03  0.12509095856E+03 0.  0.
          5    1    3    3  502    0 -0.31358124220E+02 -0.89940076082E+00  0.26640488702E+02  0.41368211403E+02  0.41800000000E+01 0. -1.
         -5    1    3    3    0  502 -0.38236883719E+02  0.37713325896E+02 -0.12516546499E+03  0.13626525695E+03  0.41800000000E+01 0. -1.
        -11    1    1    2    0    0  0.83117942611E+02 -0.18379410224E+02 -0.11221119341E+03  0.14084653716E+03  0.00000000000E+00 0. -1.
         11    1    1    2    0    0 -0.13522934671E+02 -0.18434514910E+02 -0.10548970665E+03  0.10793877575E+03  0.00000000000E+00 0.  1.
</event>
<event>
 7    1  0.2651429E-009  0.9879182E+02  0.7561462E-02  0.1282857E+00
          2   -1    0    0  501    0  0.00000000000E+00  0.00000000000E+00  0.14368700501E+03  0.14368700501E+03  0.00000000000E+00 0. -1.
         -2   -1    0    0    0  501 -0.00000000000E+00 -0.00000000000E+00 -0.10526661651E+03  0.10526661651E+03  0.00000000000E+00 0.  1.
         25    2    1    2    0    0 -0.52014901989E+02  0.29947166302E+02  0.23929662607E+02  0.14079194170E+03  0.12508940521E+03 0.  0.
          5    1    3    3  502    0  0.35270735720E+02  0.12537800092E+02  0.34482788965E+02  0.51066195905E+02  0.41800000000E+01 0.  1.
         -5    1    3    3    0  502 -0.87285637708E+02  0.17409366209E+02 -0.10553126359E+02  0.89725745792E+02  0.41800000000E+01 0.  1.
        -11    1    1    2    0    0  0.26600947631E+02 -0.35930967977E+02  0.48057314097E+02  0.65636501376E+02  0.00000000000E+00 0. -1.
         11    1    1    2    0    0  0.25413954358E+02  0.59838016751E+01 -0.33566588200E+02  0.42525178447E+02  0.00000000000E+00 0.  1.
</event>
<event>
 7    1  0.2651429E-009  0.1215101E+03  0.7561462E-02  0.1240626E+00
          1   -1    0    0  501    0  0.00000000000E+00  0.00000000000E+00  0.30669803209E+03  0.30669803209E+03  0.00000000000E+00 0. -1.
         -1   -1    0    0    0  501 -0.00000000000E+00 -0.00000000000E+00 -0.98100866557E+02  0.98100866557E+02  0.00000000000E+00 0.  1.
         25    2    1    2    0    0 -0.63702455206E+02  0.49231959946E+02 -0.15134800787E+02  0.14952662965E+03  0.12508941642E+03 0.  0.
          5    1    3    3  502    0 -0.48420906122E+02 -0.19951257995E+02 -0.48136892798E+02  0.71254962589E+02  0.41800000000E+01 0. -1.
         -5    1    3    3    0  502 -0.15281549084E+02  0.69183217941E+02  0.33002092011E+02  0.78271667059E+02  0.41800000000E+01 0. -1.
        -11    1    1    2    0    0  0.27526058722E+02 -0.71783147954E+02  0.17082628239E+03  0.18732891660E+03  0.00000000000E+00 0. -1.
         11    1    1    2    0    0  0.36176396484E+02  0.22551188008E+02  0.52905683925E+02  0.67943352395E+02  0.00000000000E+00 0.  1.
</event>
<event>
 6    1  0.2651429E-009  0.1019346E+03  0.7561462E-02  0.1276280E+00
         -2   -1    0    0    0  501 -0.00000000000E+00  0.00000000000E+00  0.38216941394E+02  0.38216941394E+02  0.00000000000E+00 0.  1.
          2   -1    0    0  501    0  0.00000000000E+00 -0.00000000000E+00 -0.62959271738E+03  0.62959271738E+03  0.00000000000E+00 0. -1.
          5    1    1    2  502    0  0.55724238167E+02  0.42281096404E+02 -0.76455935481E+02  0.10371048309E+03  0.41800000000E+01 0.  1.
         -5    1    1    2    0  502  0.12652071411E+02  0.28620782824E+02 -0.35290749195E+03  0.35431679949E+03  0.41800000000E+01 0.  1.
        -11    1    1    2    0    0 -0.31645662066E+02 -0.14246735567E+02 -0.48195153368E+00  0.34708063604E+02  0.00000000000E+00 0.  1.
         11    1    1    2    0    0 -0.36730647513E+02 -0.56655143660E+02 -0.16153039702E+03  0.17507431259E+03  0.00000000000E+00 0. -1.
</event>
<event>
 7    1  0.2651429E-009  0.1748192E+03  0.7561462E-02  0.1172913E+00
          1   -1    0    0  501    0  0.00000000000E+00  0.00000000000E+00  0.61093453216E+03  0.61093453216E+03  0.00000000000E+00 0. -1.
         -1   -1    0    0    0  501 -0.00000000000E+00 -0.00000000000E+00 -0.57144374686E+02  0.57144374686E+02  0.00000000000E+00 0.  1.
         25    2    1    2    0    0  0.10237650467E+03 -0.11075023748E+03  0.27982967578E+03  0.34161012460E+03  0.12508503496E+03 0.  0.
          5    1    3    3  502    0  0.12916080484E+03 -0.97534598695E+02  0.20709759566E+03  0.26287334969E+03  0.41800000000E+01 0.  1.
         -5    1    3    3    0  502 -0.26784300172E+02 -0.13215638788E+02  0.72732080120E+02  0.78736774908E+02  0.41800000000E+01 0.  1.
        -11    1    1    2    0    0 -0.62697072288E+02  0.34360203529E+02  0.20197502861E+03  0.21425559186E+03  0.00000000000E+00 0. -1.
         11    1    1    2    0    0 -0.39679432381E+02  0.76390033955E+02  0.71985453082E+02  0.11221319039E+03  0.00000000000E+00 0.  1.
</event>
<event>
 7    1  0.2651429E-009  0.8902796E+02  0.7561462E-02  0.1305223E+00
          1   -1    0    0  501    0  0.00000000000E+00  0.00000000000E+00  0.72510942984E+03  0.72510942984E+03  0.00000000000E+00 0. -1.
         -1   -1    0    0    0  501 -0.00000000000E+00 -0.00000000000E+00 -0.19282562897E+02  0.19282562897E+02  0.00000000000E+00 0.  1.
         25    2    1    2    0    0  0.28272235109E+02  0.32562007705E+02  0.33238086163E+03  0.35775116258E+03  0.12509697649E+03 0.  0.
          5    1    3    3  502    0  0.35950907381E+02 -0.15305967999E+02  0.29167512978E+03  0.29431037041E+03  0.41800000000E+01 0. -1.
         -5    1    3    3    0  502 -0.76786722723E+01  0.47867975704E+02  0.40705731846E+02  0.63440792169E+02  0.41800000000E+01 0. -1.
        -11    1    1    2    0    0  0.38921320745E+01  0.24386785953E+02  0.41329658894E+02  0.48145661544E+02  0.00000000000E+00 0.  1.
         11    1    1    2    0    0 -0.32164367183E+02 -0.56948793658E+02  0.33211634642E+03  0.33849516861E+03  0.00000000000E+00 0. -1.
</event>
<event>
 7    1  0.2651429E-009  0.1881956E+03  0.7561462E-02  0.1160099E+00
          1   -1    0    0  501    0  0.00000000000E+00  0.00000000000E+00  0.51530246806E+03  0.51530246806E+03  0.00000000000E+00 0. -1.
         -1   -1    0    0    0  501 -0.00000000000E+00 -0.00000000000E+00 -0.95570850316E+02  0.95570850316E+02  0.00000000000E+00 0.  1.
         25    2    1    2    0    0  0.28388122970E+02  0.16500894628E+03  0.35104459801E+03  0.40855272552E+03  0.12509669005E+03 0.  0.
          5    1    3    3  502    0  0.36224910801E+02  0.18403706239E+03  0.30764499444E+03  0.36033983891E+03  0.41800000000E+01 0. -1.
         -5    1    3    3    0  502 -0.78367878311E+01 -0.19028116112E+02  0.43399603564E+02  0.48212886616E+02  0.41800000000E+01 0. -1.
        -11    1    1    2    0    0 -0.22974145689E+02 -0.10293013728E+03 -0.52903512151E+01  0.10559551291E+03  0.00000000000E+00 0.  1.
         11    1    1    2    0    0 -0.54139772810E+01 -0.62078809004E+02  0.73977370948E+02  0.96725079941E+02  0.00000000000E+00 0. -1.
</event>
<event>
 7    1  0.2651429E-009  0.1533738E+03  0.7561462E-02  0.1196387E+00
          2   -1    0    0  501    0  0.00000000000E+00  0.00000000000E+00  0.69898693880E+03  0.69898693880E+03  0.00000000000E+00 0. -1.
         -2   -1    0    0    0  501 -0.00000000000E+00 -0.00000000000E+00 -0.55192094834E+02  0.55192094834E+02  0.00000000000E+00 0.  1.
         25    2    1    2    0    0  0.12047532915E+03  0.35093792942E+02  0.55883420472E+03  0.58624872095E+03  0.12508403257E+03 0.  0.
          5    1    3    3  502    0  0.13342529481E+03  0.60248372012E+02  0.49682433778E+03  0.51796145671E+03  0.41800000000E+01 0.  1.
         -5    1    3    3    0  502 -0.12949965659E+02 -0.25154579069E+02  0.62009866942E+02  0.68287264237E+02  0.41800000000E+01 0.  1.
        -11    1    1    2    0    0 -0.98688478859E+02 -0.44128739134E+02  0.36614279104E+02  0.11413749126E+03  0.00000000000E+00 0.  1.
         11    1    1    2    0    0 -0.21786850292E+02  0.90349461921E+01  0.48346360135E+02  0.53792821423E+02  0.00000000000E+00 0. -1.
</event>
<event>
 7    1  0.2651429E-009  0.1348402E+03  0.7561462E-02  0.1220445E+00
          2   -1    0    0  501    0  0.00000000000E+00  0.00000000000E+00  0.21341648826E+03  0.21341648826E+03  0.00000000000E+00 0. -1.
         -2   -1    0    0    0  501 -0.00000000000E+00 -0.00000000000E+00 -0.93091718183E+02  0.93091718183E+02  0.00000000000E+00 0.  1.
         25    2    1    2    0    0 -0.19440986100E+02 -0.83435214239E+02  0.57335512429E+02  0.16210179653E+03  0.12510093740E+03 0.  0.
          5    1    3    3  502    0 -0.27414230642E+02  0.22936275816E+02  0.40248828223E+02  0.53991234134E+02  0.41800000000E+01 0.  1.
         -5    1    3    3    0  502  0.79732445422E+01 -0.10637149005E+03  0.17086684206E+02  0.10811056240E+03  0.41800000000E+01 0.  1.
        -11    1    1    2    0    0  0.56968734739E+02  0.40388707819E+02  0.19148564988E+02  0.72410993628E+02  0.00000000000E+00 0.  1.
         11    1    1    2    0    0 -0.37527748639E+02  0.43046506419E+02  0.43840692659E+02  0.71995416282E+02  0.00000000000E+00 0. -1.
</event>
<event>
 7    1  0.2651429E-009  0.1116779E+03  0.7561462E-02  0.1257494E+00
          1   -1    0    0  501    0  0.00000000000E+00  0.00000000000E+00  0.23422435557E+03  0.23422435557E+03  0.00000000000E+00 0. -1.
         -1   -1    0    0    0  501 -0.00000000000E+00 -0.00000000000E+00 -0.85987694487E+02  0.85987694487E+02  0.00000000000E+00 0.  1.
         25    2    1    2    0    0  0.27087397899E+02 -0.97344433329E+01 -0.16339038656E+02  0.12939392199E+03  0.12508931349E+03 0.  0.
          5    1    3    3  502    0 -0.49773172864E+02 -0.58489893497E+01 -0.14346488054E+02  0.52296018327E+02  0.41800000000E+01 0.  1.
         -5    1    3    3    0  502  0.76860570763E+02 -0.38854539832E+01 -0.19925506013E+01  0.77097903659E+02  0.41800000000E+01 0.  1.
        -11    1    1    2    0    0 -0.41795129587E+02  0.42789507335E+02  0.92188700874E+02  0.10989327261E+03  0.00000000000E+00 0.  1.
         11    1    1    2    0    0  0.14707731688E+02 -0.33055064002E+02  0.72386998867E+02  0.80924855468E+02  0.00000000000E+00 0. -1.
</event>
<event>
 7    1  0.2651429E-009  0.1036455E+03  0.7561462E-02  0.1272812E+00
         -3   -1    0    0    0  501 -0.00000000000E+00  0.00000000000E+00  0.18582975264E+02  0.18582975264E+02  0.00000000000E+00 0. -1.
          3   -1    0    0  501    0  0.00000000000E+00 -0.00000000000E+00 -0.79568360451E+03  0.79568360451E+03  0.00000000000E+00 0.  1.
         25    2    1    2    0    0 -0.53797183216E+02  0.75931649171E+00 -0.46036508408E+03  0.48008134108E+03  0.12508944775E+03 0.  0.
          5    1    3    3  502    0 -0.70767900157E+02  0.22187970275E+02 -0.13965675004E+03  0.15818306467E+03  0.41800000000E+01 0. -1.
         -5    1    3    3    0  502  0.16970716941E+02 -0.21428653783E+02 -0.32070833404E+03  0.32189827641E+03  0.41800000000E+01 0. -1.
        -11    1    1    2    0    0  0.53480753309E+02  0.38625088799E+02 -0.22182905402E+03  0.23143080535E+03  0.00000000000E+00 0.  1.
         11    1    1    2    0    0  0.31642990676E+00 -0.39384405291E+02 -0.94906491154E+02  0.10275443334E+03  0.00000000000E+00 0. -1.
</event>
<event>
 7    1  0.2651429E-009  0.1085487E+03  0.7561462E-02  0.1263281E+00
          2   -1    0    0  501    0  0.00000000000E+00  0.00000000000E+00  0.50559521150E+03  0.50559521150E+03  0.00000000000E+00 0. -1.
         -2   -1    0    0    0  501 -0.00000000000E+00 -0.00000000000E+00 -0.36281546081E+02  0.36281546081E+02  0.00000000000E+00 0.  1.
         25    2    1    2    0    0  0.69063992458E+02 -0.43483322976E+02  0.26502744350E+03  0.30421742440E+03  0.12509221026E+03 0.  0.
          5    1    3    3  502    0  0.15636557230E+02  0.12994150341E+02 -0.64984522691E+01  0.21749761998E+02  0.41800000000E+01 0.  1.
         -5    1    3    3    0  502  0.53427435229E+02 -0.56477473317E+02  0.27152589577E+03  0.28246766240E+03  0.41800000000E+01 0.  1.
        -11    1    1    2    0    0  0.10311133301E+02 -0.16180032133E+02  0.16805066612E+02  0.25505355783E+02  0.00000000000E+00 0. -1.
         11    1    1    2    0    0 -0.79375125759E+02  0.59663355109E+02  0.18748115530E+03  0.21215397740E+03  0.00000000000E+00 0.  1.
</event>
<event>
 7    1  0.2651429E-009  0.1209100E+03  0.7561462E-02  0.1241603E+00
         -1   -1    0    0    0  501 -0.00000000000E+00  0.00000000000E+00  0.93333703948E+03  0.93333703948E+03  0.00000000000E+00 0.  1.
          1   -1    0    0  501    0  0.00000000000E+00 -0.00000000000E+00 -0.22988038902E+02  0.22988038902E+02  0.00000000000E+00 0. -1.
         25    2    1    2    0    0  0.33695300869E+02  0.75033279241E+02  0.67769006608E+03  0.69402921932E+03  0.12508942928E+03 0.  0.
          5    1    3    3  502    0  0.62730000102E+02  0.26330539959E+02  0.16984158025E+03  0.18300815563E+03  0.41800000000E+01 0. -1.
         -5    1    3    3    0  502 -0.29034699233E+02  0.48702739282E+02  0.50784848583E+03  0.51102106369E+03  0.41800000000E+01 0. -1.
        -11    1    1    2    0    0 -0.57081829202E+02 -0.26504442764E+02  0.15930552173E+03  0.17128651425E+03  0.00000000000E+00 0.  1.
         11    1    1    2    0    0  0.23386528334E+02 -0.48528836476E+02  0.73353412771E+02  0.91009344808E+02  0.00000000000E+00 0. -1.
</event>
<event>
 7    1  0.2651429E-009  0.1809195E+03  0.7561462E-02  0.1166916E+00
          2   -1    0    0  501    0  0.00000000000E+00  0.00000000000E+00  0.68037893766E+03  0.68037893766E+03  0.00000000000E+00 0. -1.
         -2   -1    0    0    0  501 -0.00000000000E+00 -0.00000000000E+00 -0.52899594130E+02  0.52899594130E+02  0.00000000000E+00 0.  1.
         25    2    1    2    0    0 -0.14111917351E+03 -0.21568580873E+02  0.25000879815E+03  0.31389810169E+03  0.12509114387E+03 0.  0.
          5    1    3    3  502    0 -0.59468901435E+02 -0.66996963578E+02  0.81543229129E+02  0.12121020577E+03  0.41800000000E+01 0.  1.
         -5    1    3    3    0  502 -0.81650272073E+02  0.45428382705E+02  0.16846556902E+03  0.19268789591E+03  0.41800000000E+01 0.  1.
        -11    1    1    2    0    0  0.10474630543E+03 -0.35804281248E+02  0.18887280951E+03  0.21892161435E+03  0.00000000000E+00 0.  1.
         11    1    1    2    0    0  0.36372868078E+02  0.57372862120E+02  0.18859773587E+03  0.20045881575E+03  0.00000000000E+00 0. -1.
</event>
<event>
 7    1  0.2651429E-009  0.2283193E+03  0.7561462E-02  0.1127828E+00
          1   -1    0    0  501    0  0.00000000000E+00  0.00000000000E+00  0.16933811081E+03  0.16933811081E+03  0.00000000000E+00 0. -1.
         -1   -1    0    0    0  501 -0.00000000000E+00 -0.00000000000E+00 -0.41696687084E+03  0.41696687084E+03  0.00000000000E+00 0.  1.
         25    2    1    2    0    0  0.15877751362E+03  0.15237626131E+03 -0.23881269196E+03  0.34800807916E+03  0.12509715214E+03 0.  0.
          5    1    3    3  502    0  0.13927571476E+03  0.78519614617E+02 -0.97495618420E+02  0.18731236642E+03  0.41800000000E+01 0. -1.
         -5    1    3    3    0  502  0.19501798866E+02  0.73856646697E+02 -0.14131707354E+03  0.16069571274E+03  0.41800000000E+01 0. -1.
        -11    1    1    2    0    0 -0.60182337949E+02 -0.52679938056E+02 -0.47267404279E+02  0.92904774806E+02  0.00000000000E+00 0.  1.
         11    1    1    2    0    0 -0.98595175675E+02 -0.99696323258E+02  0.38451336201E+02  0.14539212769E+03  0.00000000000E+00 0. -1.
</event>
<event>
 7    1  0.2651429E-009  0.8732045E+02  0.7561462E-02  0.1309473E+00
         -1   -1    0    0    0  501 -0.00000000000E+00  0.00000000000E+00  0.24015147133E+03  0.24015147133E+03  0.00000000000E+00 0.  1.
          1   -1    0    0  501    0  0.00000000000E+00 -0.00000000000E+00 -0.59169630777E+02  0.59169630777E+02  0.00000000000E+00 0. -1.
         25    2    1    2    0    0 -0.28774174027E+02  0.28556584491E+02  0.13490342143E+03  0.18838783616E+03  0.12509041565E+03 0.  0.
          5    1    3    3  502    0 -0.53181572510E+01  0.64910031785E+02  0.24452240341E+02  0.69692033121E+02  0.41800000000E+01 0. -1.
         -5    1    3    3    0  502 -0.23456016776E+02 -0.36353447294E+02  0.11045118109E+03  0.11869580303E+03  0.41800000000E+01 0. -1.
        -11    1    1    2    0    0 -0.95095661639E+01 -0.25839761361E+02  0.63177331070E+02  0.68916618293E+02  0.00000000000E+00 0.  1.
         11    1    1    2    0    0  0.38283740190E+02 -0.27168231301E+01 -0.17098911948E+02  0.42016647661E+02  0.00000000000E+00 0. -1.
</event>
<event>
 7    1  0.2651429E-009  0.1591612E+03  0.7561462E-02  0.1189647E+00
          2   -1    0    0  501    0  0.00000000000E+00  0.00000000000E+00  0.10828415259E+04  0.10828415259E+04  0.00000000000E+00 0.  1.
         -2   -1    0    0    0  501 -0.00000000000E+00 -0.00000000000E+00 -0.36011205020E+02  0.36011205020E+02  0.00000000000E+00 0. -1.
         25    2    1    2    0    0  0.11905334471E+03 -0.82401726500E+02  0.75751054079E+03  0.78130244191E+03  0.12509013915E+03 0.  0.
          5    1    3    3  502    0  0.10746953119E+03 -0.87550066647E+02  0.39663847569E+03  0.42018361117E+03  0.41800000000E+01 0.  1.
         -5    1    3    3    0  502  0.11583813525E+02  0.51483401469E+01  0.36087206510E+03  0.36111883074E+03  0.41800000000E+01 0.  1.
        -11    1    1    2    0    0 -0.12388299305E+02  0.54707929891E+02  0.14846605036E+03  0.15870915431E+03  0.00000000000E+00 0. -1.
         11    1    1    2    0    0 -0.10666504541E+03  0.27693796609E+02  0.14085372975E+03  0.17884113471E+03  0.00000000000E+00 0.  1.
</event>
<event>
 7    1  0.2651429E-009  0.1693046E+03  0.7561462E-02  0.1178575E+00
         -1   -1    0    0    0  501 -0.00000000000E+00  0.00000000000E+00  0.68672520208E+02  0.68672520208E+02  0.00000000000E+00 0.  1.
          1   -1    0    0  501    0  0.00000000000E+00 -0.00000000000E+00 -0.47733014937E+03  0.47733014937E+03  0.00000000000E+00 0. -1.
         25    2    1    2    0    0  0.11067543695E+03  0.84959514359E+02 -0.26353935688E+03  0.32337344409E+03  0.12510084050E+03 0.  0.
          5    1    3    3  502    0 -0.27340263601E-01  0.56053486276E+02 -0.15784634438E+03  0.16755576655E+03  0.41800000000E+01 0. -1.
         -5    1    3    3    0  502  0.11070277721E+03  0.28906028083E+02 -0.10569301250E+03  0.15581767754E+03  0.41800000000E+01 0. -1.
        -11    1    1    2    0    0 -0.10222089464E+03 -0.10476659590E+03 -0.13374395697E+03  0.19827404506E+03  0.00000000000E+00 0. -1.
         11    1    1    2    0    0 -0.84545423075E+01  0.19807081543E+02 -0.11374315315E+02  0.24355180430E+02  0.00000000000E+00 0.  1.
</event>
<event>
 7    1  0.2651429E-009  0.8542539E+02  0.7561462E-02  0.1314324E+00
          3   -1    0    0  501    0  0.00000000000E+00  0.00000000000E+00  0.60852616336E+02  0.60852616336E+02  0.00000000000E+00 0. -1.
         -3   -1    0    0    0  501 -0.00000000000E+00 -0.00000000000E+00 -0.26238422702E+03  0.26238422702E+03  0.00000000000E+00 0.  1.
         25    2    1    2    0    0  0.30864089239E+02 -0.24601233969E+02 -0.45537367540E+02  0.13884803230E+03  0.12508921421E+03 0.  0.
          5    1    3    3  502    0 -0.28498095897E+02 -0.26452178411E+02  0.25098062270E+02  0.46467669859E+02  0.41800000000E+01 0.  1.
         -5    1    3    3    0  502  0.59362185137E+02  0.18509444423E+01 -0.70635429810E+02  0.92380362437E+02  0.41800000000E+01 0.  1.
        -11    1    1    2    0    0  0.17698060955E+02 -0.15311283649E+00  0.14677350878E+01  0.17759477790E+02  0.00000000000E+00 0. -1.
         11    1    1    2    0    0 -0.48562150194E+02  0.24754346805E+02 -0.15746197823E+03  0.16662933327E+03  0.00000000000E+00 0.  1.
</event>
<event>
 7    1  0.2651429E-009  0.1413191E+03  0.7561462E-02  0.1211565E+00
         -2   -1    0    0    0  501 -0.00000000000E+00  0.00000000000E+00  0.17297018888E+03  0.17297018888E+03  0.00000000000E+00 0. -1.
          2   -1    0    0  501    0  0.00000000000E+00 -0.00000000000E+00 -0.12636200430E+03  0.12636200430E+03  0.00000000000E+00 0.  1.
         25    2    1    2    0    0  0.25636619017E+02 -0.78334425525E+02 -0.72733344403E+01  0.14997261081E+03  0.12508143005E+03 0.  0.
          5    1    3    3  502    0  0.14170076514E+02 -0.11152172067E+03  0.48261746842E+01  0.11259950982E+03  0.41800000000E+01 0. -1.
         -5    1    3    3    0  502  0.11466542503E+02  0.33187295149E+02 -0.12099509124E+02  0.37373100987E+02  0.41800000000E+01 0. -1.
        -11    1    1    2    0    0  0.46837197275E+00 -0.26622760269E+02 -0.36155662458E+01  0.26871231008E+02  0.00000000000E+00 0.  1.
         11    1    1    2    0    0 -0.26104990990E+02  0.10495718579E+03  0.57497085266E+02  0.12248835136E+03  0.00000000000E+00 0. -1.
</event>
<event>
 7    1  0.2651429E-009  0.1420734E+03  0.7561462E-02  0.1210566E+00
         -1   -1    0    0    0  501 -0.00000000000E+00  0.00000000000E+00  0.58109329701E+03  0.58109329701E+03  0.00000000000E+00 0.  1.
          1   -1    0    0  501    0  0.00000000000E+00 -0.00000000000E+00 -0.40634331095E+02  0.40634331095E+02  0.00000000000E+00 0. -1.
         25    2    1    2    0    0  0.10802731090E+03 -0.15752907595E+02  0.28617961295E+03  0.33085235472E+03  0.12508579359E+03 0.  0.
          5    1    3    3  502    0  0.13071258083E+02 -0.57264658711E+02  0.13741973389E+03  0.14950503198E+03  0.41800000000E+01 0. -1.
         -5    1    3    3    0  502  0.94956052816E+02  0.41511751116E+02  0.14875987906E+03  0.18134732274E+03  0.41800000000E+01 0. -1.
        -11    1    1    2    0    0 -0.79684113109E+02 -0.13490626036E+02  0.22923877025E+03  0.24306782728E+03  0.00000000000E+00 0.  1.
         11    1    1    2    0    0 -0.28343197789E+02  0.29243533630E+02  0.25040582709E+02  0.47807446099E+02  0.00000000000E+00 0. -1.
</event>
<event>
 7    1  0.2651429E-009  0.1214040E+03  0.7561462E-02  0.1240799E+00
          3   -1    0    0  501    0  0.00000000000E+00  0.00000000000E+00  0.95016607628E+02  0.95016607628E+02  0.00000000000E+00 0. -1.
         -3   -1    0    0    0  501 -0.00000000000E+00 -0.00000000000E+00 -0.19269356816E+03  0.19269356816E+03  0.00000000000E+00 0.  1.
         25    2    1    2    0    0  0.66661635316E+02  0.37263455293E+02 -0.84625613337E+02  0.16923196428E+03  0.12508247111E+03 0.  0.
          5    1    3    3  502    0  0.81056146547E+00 -0.30369731352E+02 -0.66207703369E+02  0.72965128505E+02  0.41800000000E+01 0.  1.
         -5    1    3    3    0  502  0.65851073850E+02  0.67633186646E+02 -0.18417909967E+02  0.96266835778E+02  0.41800000000E+01 0.  1.
        -11    1    1    2    0    0  0.18243785848E+02  0.96604061296E+01 -0.39941300075E+00  0.20647486515E+02  0.00000000000E+00 0.  1.
         11    1    1    2    0    0 -0.84905421163E+02 -0.46923861423E+02 -0.12651934197E+02  0.97830724993E+02  0.00000000000E+00 0. -1.
</event>
<event>
 7    1  0.2651429E-009  0.1400141E+03  0.7561462E-02  0.1213310E+00
         -1   -1    0    0    0  501 -0.00000000000E+00  0.00000000000E+00  0.19394558289E+03  0.19394558289E+03  0.00000000000E+00 0.  1.
          1   -1    0    0  501    0  0.00000000000E+00 -0.00000000000E+00 -0.22345525509E+03  0.22345525509E+03  0.00000000000E+00 0. -1.
         25    2    1    2    0    0 -0.42914196364E+02 -0.10031123376E+03 -0.15547310811E+03  0.22742764448E+03  0.12508986474E+03 0.  0.
          5    1    3    3  502    0 -0.19575105061E+02  0.21253232961E+02 -0.70675550819E+00  0.29203707860E+02  0.41800000000E+01 0. -1.
         -5    1    3    3    0  502 -0.23339091303E+02 -0.12156446672E+03 -0.15476635261E+03  0.19822393662E+03  0.41800000000E+01 0. -1.
        -11    1    1    2    0    0  0.59406964450E+02  0.88899857708E+02  0.13119454619E+03  0.16924650979E+03  0.00000000000E+00 0.  1.
         11    1    1    2    0    0 -0.16492768087E+02  0.11411376051E+02 -0.52311102737E+01  0.20726683701E+02  0.00000000000E+00 0. -1.
</event>
<event>
 7    1  0.2651429E-009  0.7740313E+02  0.7561462E-02  0.1336587E+00
         -2   -1    0    0    0  501 -0.00000000000E+00  0.00000000000E+00  0.16835595230E+03  0.16835595230E+03  0.00000000000E+00 0.  1.
          2   -1    0    0  501    0  0.00000000000E+00 -0.00000000000E+00 -0.80555853180E+02  0.80555853180E+02  0.00000000000E+00 0. -1.
         25    2    1    2    0    0 -0.29274364061E+02  0.12025531386E+02  0.20399425314E+02  0.13063473790E+03  0.12509075264E+03 0.  0.
          5    1    3    3  502    0 -0.31781253778E+02  0.56008925656E+02  0.46240590293E+02  0.79389624231E+02  0.41800000000E+01 0. -1.
         -5    1    3    3    0  502  0.25068897167E+01 -0.43983394270E+02 -0.25841164978E+02  0.51245113670E+02  0.41800000000E+01 0. -1.
        -11    1    1    2    0    0  0.15181161887E+02  0.11191753605E+02  0.84236625107E+02  0.86322256889E+02  0.00000000000E+00 0.  1.
         11    1    1    2    0    0  0.14093202174E+02 -0.23217284991E+02 -0.16835951303E+02  0.31954810689E+02  0.00000000000E+00 0. -1.
</event>
<event>
 7    1  0.2651429E-009  0.1117333E+03  0.7561462E-02  0.1257393E+00
          2   -1    0    0  501    0  0.00000000000E+00  0.00000000000E+00  0.15804663022E+04  0.15804663022E+04  0.00000000000E+00 0. -1.
         -2   -1    0    0    0  501 -0.00000000000E+00 -0.00000000000E+00 -0.94878493402E+01  0.94878493402E+01  0.00000000000E+00 0.  1.
         25    2    1    2    0    0  0.18492904556E+02  0.44184689915E+02  0.10975686870E+04  0.11057121916E+04  0.12509257966E+03 0.  0.
          5    1    3    3  502    0 -0.46778787503E+02  0.39723504638E+02  0.70788955185E+03  0.71055703628E+03  0.41800000000E+01 0. -1.
         -5    1    3    3    0  502  0.65271692059E+02  0.44611852774E+01  0.38967913517E+03  0.39515515528E+03  0.41800000000E+01 0. -1.
        -11    1    1    2    0    0  0.61817257289E+01 -0.64279248827E+02  0.38275815967E+03  0.38816728914E+03  0.00000000000E+00 0.  1.
         11    1    1    2    0    0 -0.24674630285E+02  0.20094558911E+02  0.90651606209E+02  0.96074670886E+02  0.00000000000E+00 0. -1.
</event>
<event>
 7    1  0.2651429E-009  0.1814347E+03  0.7561462E-02  0.1166422E+00
         -2   -1    0    0    0  501 -0.00000000000E+00  0.00000000000E+00  0.12360347461E+03  0.12360347461E+03  0.00000000000E+00 0. -1.
          2   -1    0    0  501    0  0.00000000000E+00 -0.00000000000E+00 -0.33535276810E+03  0.33535276810E+03  0.00000000000E+00 0.  1.
         25    2    1    2    0    0 -0.10672780819E+03  0.13409898948E+03 -0.10069873883E+03  0.23486411071E+03  0.12509016938E+03 0.  0.
          5    1    3    3  502    0 -0.10874092988E+03  0.13986648499E+03 -0.12011498014E+03  0.21408480634E+03  0.41800000000E+01 0.  1.
         -5    1    3    3    0  502  0.20131216831E+01 -0.57674955087E+01  0.19416241309E+02  0.20779304366E+02  0.41800000000E+01 0.  1.
        -11    1    1    2    0    0  0.80780907324E+02 -0.62615586144E+02 -0.10695074602E+03  0.14793487989E+03  0.00000000000E+00 0.  1.
         11    1    1    2    0    0  0.25946900870E+02 -0.71483403336E+02 -0.40998086534E+01  0.76157252106E+02  0.00000000000E+00 0. -1.
</event>
<event>
 7    1  0.2651429E-009  0.1038092E+03  0.7561462E-02  0.1272484E+00
          2   -1    0    0  501    0  0.00000000000E+00  0.00000000000E+00  0.21668007964E+03  0.21668007964E+03  0.00000000000E+00 0. -1.
         -2   -1    0    0    0  501 -0.00000000000E+00 -0.00000000000E+00 -0.60246699530E+02  0.60246699530E+02  0.00000000000E+00 0.  1.
         25    2    1    2    0    0 -0.22913911880E+02  0.22422558342E+02  0.11684673410E+03  0.17415097517E+03  0.12509030499E+03 0.  0.
          5    1    3    3  502    0  0.41965502064E+02 -0.47119098751E+01  0.60657953657E+01  0.42866907185E+02  0.41800000000E+01 0.  1.
         -5    1    3    3    0  502 -0.64879413944E+02  0.27134468217E+02  0.11078093874E+03  0.13128406798E+03  0.41800000000E+01 0.  1.
        -11    1    1    2    0    0  0.34700616167E+02 -0.52215176450E+02  0.23816361013E+02  0.67065464033E+02  0.00000000000E+00 0.  1.
         11    1    1    2    0    0 -0.11786704287E+02  0.29792618109E+02  0.15770284994E+02  0.35710339966E+02  0.00000000000E+00 0. -1.
</event>
<event>
 6    1  0.2651429E-009  0.1996452E+03  0.7561462E-02  0.1150039E+00
         -1   -1    0    0    0  501 -0.00000000000E+00  0.00000000000E+00  0.29256735763E+02  0.29256735763E+02  0.00000000000E+00 0.  1.
          1   -1    0    0  501    0  0.00000000000E+00 -0.00000000000E+00 -0.15254867438E+04  0.15254867438E+04  0.00000000000E+00 0. -1.
          5    1    1    2  502    0 -0.88556169533E+02  0.99599940458E+02 -0.29888921503E+03  0.32728363626E+03  0.41800000000E+01 0.  1.
         -5    1    1    2    0  502 -0.68136872028E+02 -0.15847947612E+02 -0.35296586581E+03  0.35985575666E+03  0.41800000000E+01 0.  1.
        -11    1    1    2    0    0  0.64523391464E+02 -0.81133167816E+02 -0.52735791347E+03  0.53744974450E+03  0.00000000000E+00 0.  1.
         11    1    1    2    0    0  0.92169650097E+02 -0.26188250301E+01 -0.31701701369E+03  0.33015434211E+03  0.00000000000E+00 0. -1.
</event>
<event>
 7    1  0.2651429E-009  0.1137215E+03  0.7561462E-02  0.1253829E+00
         -4   -1    0    0    0  501 -0.00000000000E+00  0.00000000000E+00  0.12758993098E+03  0.12758993098E+03  0.00000000000E+00 0.  1.
          4   -1    0    0  501    0  0.00000000000E+00 -0.00000000000E+00 -0.20457231627E+03  0.20457231627E+03  0.00000000000E+00 0. -1.
         25    2    1    2    0    0  0.19186052193E+02 -0.66917904116E+02  0.59125824056E+02  0.15488555715E+03  0.12509021646E+03 0.  0.
          5    1    3    3  502    0  0.60308179672E+02 -0.40246560624E+02  0.73810258352E+02  0.10354848534E+03  0.41800000000E+01 0. -1.
         -5    1    3    3    0  502 -0.41122127479E+02 -0.26671343492E+02 -0.14684434296E+02  0.51337071817E+02  0.41800000000E+01 0. -1.
        -11    1    1    2    0    0 -0.10167966017E+02 -0.17762623189E+02 -0.52178960511E+01  0.21121665528E+02  0.00000000000E+00 0.  1.
         11    1    1    2    0    0 -0.90180861761E+01  0.84680527305E+02 -0.13089031329E+03  0.15615502456E+03  0.00000000000E+00 0. -1.
</event>
<event>
 7    1  0.2651429E-009  0.1150158E+03  0.7561462E-02  0.1251554E+00
         -1   -1    0    0    0  501 -0.00000000000E+00  0.00000000000E+00  0.25957488955E+03  0.25957488955E+03  0.00000000000E+00 0.  1.
          1   -1    0    0  501    0  0.00000000000E+00 -0.00000000000E+00 -0.70247749346E+02  0.70247749346E+02  0.00000000000E+00 0. -1.
         25    2    1    2    0    0  0.54890193373E+02  0.55783735756E+02  0.12336855049E+03  0.19233486671E+03  0.12509253855E+03 0.  0.
          5    1    3    3  502    0  0.64686635317E+02  0.12280549609E+02  0.54526678394E+01  0.66199521705E+02  0.41800000000E+01 0. -1.
         -5    1    3    3    0  502 -0.97964419440E+01  0.43503186147E+02  0.11791588265E+03  0.12613534501E+03  0.41800000000E+01 0. -1.
        -11    1    1    2    0    0  0.24136279879E+02 -0.32019784210E+01  0.55427759428E+01  0.24970683558E+02  0.00000000000E+00 0. -1.
         11    1    1    2    0    0 -0.79026473252E+02 -0.52581757335E+02  0.60415813778E+02  0.11251708863E+03  0.00000000000E+00 0.  1.
</event>
<event>
 7    1  0.2651429E-009  0.1685276E+03  0.7561462E-02  0.1179392E+00
         -1   -1    0    0    0  501 -0.00000000000E+00  0.00000000000E+00  0.32407781413E+03  0.32407781413E+03  0.00000000000E+00 0.  1.
          1   -1    0    0  501    0  0.00000000000E+00 -0.00000000000E+00 -0.36325485355E+03  0.36325485355E+03  0.00000000000E+00 0. -1.
         25    2    1    2    0    0 -0.12978835932E+03 -0.61643941585E+02 -0.31192784318E+03  0.36550212213E+03  0.12509127941E+03 0.  0.
          5    1    3    3  502    0 -0.69786730652E+02 -0.97858320848E+02 -0.19366399308E+03  0.22796853588E+03  0.41800000000E+01 0.  1.
         -5    1    3    3    0  502 -0.60001628668E+02  0.36214379263E+02 -0.11826385010E+03  0.13753358626E+03  0.41800000000E+01 0.  1.
        -11    1    1    2    0    0  0.56613955944E+02  0.11217829630E+02  0.19628581626E+03  0.20459496909E+03  0.00000000000E+00 0.  1.
         11    1    1    2    0    0  0.73174403377E+02  0.50426111955E+02  0.76464987498E+02  0.11723557647E+03  0.00000000000E+00 0. -1.
</event>
<event>
 7    1  0.2651429E-009  0.1084167E+03  0.7561462E-02  0.1263530E+00
          3   -1    0    0  501    0  0.00000000000E+00  0.00000000000E+00  0.15526654010E+03  0.15526654010E+03  0.00000000000E+00 0. -1.
         -3   -1    0    0    0  501 -0.00000000000E+00 -0.00000000000E+00 -0.22721384354E+03  0.22721384354E+03  0.00000000000E+00 0.  1.
         25    2    1    2    0    0 -0.40220453777E+02  0.16486215827E+02  0.11130882177E+03  0.17300032964E+03  0.12509988024E+03 0.  0.
          5    1    3    3  502    0 -0.55497331913E+02 -0.39806672722E+02  0.84331003665E+02  0.10859887486E+03  0.41800000000E+01 0. -1.
         -5    1    3    3    0  502  0.15276878137E+02  0.56292888549E+02  0.26977818109E+02  0.64401454772E+02  0.41800000000E+01 0. -1.
        -11    1    1    2    0    0  0.23658178434E+02  0.31368596926E+02 -0.13078039964E+03  0.13655479197E+03  0.00000000000E+00 0.  1.
         11    1    1    2    0    0  0.16562275342E+02 -0.47854812753E+02 -0.52475725571E+02  0.72925262032E+02  0.00000000000E+00 0. -1.
</event>
<event>
 7    1  0.2651429E-009  0.2055688E+03  0.7561462E-02  0.1145124E+00
          3   -1    0    0  501    0  0.00000000000E+00  0.00000000000E+00  0.71478108027E+03  0.71478108027E+03  0.00000000000E+00 0. -1.
         -3   -1    0    0    0  501 -0.00000000000E+00 -0.00000000000E+00 -0.64343238822E+02  0.64343238822E+02  0.00000000000E+00 0.  1.
         25    2    1    2    0    0  0.11441263491E+03  0.14530454091E+03  0.30563110431E+03  0.37850138197E+03  0.12509701673E+03 0.  0.
          5    1    3    3  502    0  0.12337876816E+03  0.85487807388E+02  0.15349507928E+03  0.21472935851E+03  0.41800000000E+01 0.  1.
         -5    1    3    3    0  502 -0.89661332492E+01  0.59816733521E+02  0.15213602503E+03  0.16377202346E+03  0.41800000000E+01 0.  1.
        -11    1    1    2    0    0 -0.36425736421E+02 -0.10784719497E+03  0.15779984876E+03  0.19457297861E+03  0.00000000000E+00 0.  1.
         11    1    1    2    0    0 -0.77986898494E+02 -0.37457345942E+02  0.18700688838E+03  0.20604995851E+03  0.00000000000E+00 0. -1.
</event>
<event>
 7    1  0.2651429E-009  0.1423952E+03  0.7561462E-02  0.1210142E+00
         -2   -1    0    0    0  501 -0.00000000000E+00  0.00000000000E+00  0.40786327583E+02  0.40786327583E+02  0.00000000000E+00 0. -1.
          2   -1    0    0  501    0  0.00000000000E+00 -0.00000000000E+00 -0.55197048879E+03  0.55197048879E+03  0.00000000000E+00 0.  1.
         25    2    1    2    0    0 -0.54466833471E+02 -0.82919946501E+02 -0.31797708456E+03  0.35580818410E+03  0.12509070345E+03 0.  0.
          5    1    3    3  502    0  0.26382529974E+01 -0.90839145099E+02 -0.12662955148E+03  0.15592057712E+03  0.41800000000E+01 0.  1.
         -5    1    3    3    0  502 -0.57105086468E+02  0.79191985976E+01 -0.19134753309E+03  0.19988760698E+03  0.41800000000E+01 0.  1.
        -11    1    1    2    0    0  0.65677362164E+02  0.15253866551E+02 -0.80441106448E+02  0.10496174518E+03  0.00000000000E+00 0. -1.
         11    1    1    2    0    0 -0.11210528693E+02  0.67666079950E+02 -0.11276597019E+03  0.13198688709E+03  0.00000000000E+00 0.  1.
</event>
<event>
 7    1  0.2651429E-009  0.1138296E+03  0.7561462E-02  0.1253638E+00
          2   -1    0    0  501    0  0.00000000000E+00  0.00000000000E+00  0.19076339690E+03  0.19076339690E+03  0.00000000000E+00 0. -1.
         -2   -1    0    0    0  501 -0.00000000000E+00 -0.00000000000E+00 -0.13168430419E+03  0.13168430419E+03  0.00000000000E+00 0.  1.
         25    2    1    2    0    0  0.81682921900E+02  0.40468856346E+02 -0.40152720661E+02  0.15990521423E+03  0.12509040131E+03 0.  0.
          5    1    3    3  502    0 -0.13340193868E+02  0.13461328079E+02  0.32053936924E+02  0.37471260966E+02  0.41800000000E+01 0. -1.
         -5    1    3    3    0  502  0.95023115768E+02  0.27007528267E+02 -0.72206657585E+02  0.12243395327E+03  0.41800000000E+01 0. -1.
        -11    1    1    2    0    0 -0.54704118833E+02 -0.55968784807E+02  0.25170359624E+02  0.82210659246E+02  0.00000000000E+00 0.  1.
         11    1    1    2    0    0 -0.26978803067E+02  0.15499928461E+02  0.74061453738E+02  0.80331827609E+02  0.00000000000E+00 0. -1.
</event>
<event>
 7    1  0.2651429E-009  0.1124326E+03  0.7561462E-02  0.1256130E+00
          1   -1    0    0  501    0  0.00000000000E+00  0.00000000000E+00  0.93436406255E+02  0.93436406255E+02  0.00000000000E+00 0.  1.
         -1   -1    0    0    0  501 -0.00000000000E+00 -0.00000000000E+00 -0.25821780718E+03  0.25821780718E+03  0.00000000000E+00 0. -1.
         25    2    1    2    0    0 -0.10063199914E+01  0.76256278123E+02  0.24682857364E+01  0.14652476131E+03  0.12508949040E+03 0.  0.
          5    1    3    3  502    0  0.58085162434E+02  0.24753071801E+02 -0.17253388463E+02  0.65587746356E+02  0.41800000000E+01 0. -1.
         -5    1    3    3    0  502 -0.59091482425E+02  0.51503206321E+02  0.19721674200E+02  0.80937014955E+02  0.41800000000E+01 0. -1.
        -11    1    1    2    0    0 -0.12374625908E+02 -0.11260312261E+02  0.74025753544E+01  0.18295467211E+02  0.00000000000E+00 0.  1.
         11    1    1    2    0    0  0.13380945900E+02 -0.64995965862E+02 -0.17465226202E+03  0.18683398491E+03  0.00000000000E+00 0. -1.
</event>
<event>
 7    1  0.2651429E-009  0.1113090E+03  0.7561462E-02  0.1258165E+00
          2   -1    0    0  501    0  0.00000000000E+00  0.00000000000E+00  0.56514720215E+03  0.56514720215E+03  0.00000000000E+00 0. -1.
         -2   -1    0    0    0  501 -0.00000000000E+00 -0.00000000000E+00 -0.33480327387E+02  0.33480327387E+02  0.00000000000E+00 0.  1.
         25    2    1    2    0    0 -0.32317419584E+02 -0.29726491319E+02  0.44405330293E+03  0.46342135006E+03  0.12509169419E+03 0.  0.
          5    1    3    3  502    0 -0.80535005913E+02 -0.21686436431E+02  0.28153705571E+03  0.29366098625E+03  0.41800000000E+01 0.  1.
         -5    1    3    3    0  502  0.48217586330E+02 -0.80400548880E+01  0.16251624722E+03  0.16976036382E+03  0.41800000000E+01 0.  1.
        -11    1    1    2    0    0  0.11570985871E+01 -0.26093666659E+02  0.60249223671E+02  0.65667246553E+02  0.00000000000E+00 0. -1.
         11    1    1    2    0    0  0.31160320996E+02  0.55820157978E+02  0.27364348158E+02  0.69538932918E+02  0.00000000000E+00 0.  1.
</event>
<event>
 7    1  0.2651429E-009  0.2283006E+03  0.7561462E-02  0.1127842E+00
          1   -1    0    0  501    0  0.00000000000E+00  0.00000000000E+00  0.74009387973E+03  0.74009387973E+03  0.00000000000E+00 0. -1.
         -1   -1    0    0    0  501 -0.00000000000E+00 -0.00000000000E+00 -0.71590053742E+02  0.71590053742E+02  0.00000000000E+00 0.  1.
         25    2    1    2    0    0 -0.20144358577E+03 -0.19027121040E+02  0.32528871190E+03  0.40299143665E+03  0.12509117611E+03 0.  0.
          5    1    3    3  502    0 -0.77697001644E+02 -0.67968089091E+02  0.12047748059E+03  0.15870973798E+03  0.41800000000E+01 0. -1.
         -5    1    3    3    0  502 -0.12374658413E+03  0.48940968051E+02  0.20481123131E+03  0.24428169868E+03  0.41800000000E+01 0. -1.
        -11    1    1    2    0    0  0.16529685213E+03  0.49843038052E+02  0.24656618502E+03  0.30100209527E+03  0.00000000000E+00 0.  1.
         11    1    1    2    0    0  0.36146733640E+02 -0.30815917013E+02  0.96648929073E+02  0.10769040155E+03  0.00000000000E+00 0. -1.
</event>
<event>
 7    1  0.2651429E-009  0.1383988E+03  0.7561462E-02  0.1215500E+00
          2   -1    0    0  501    0  0.00000000000E+00  0.00000000000E+00  0.60214342437E+03  0.60214342437E+03  0.00000000000E+00 0. -1.
         -2   -1    0    0    0  501 -0.00000000000E+00 -0.00000000000E+00 -0.49095535881E+02  0.49095535881E+02  0.00000000000E+00 0.  1.
         25    2    1    2    0    0 -0.15840239918E+02  0.10883062959E+03  0.43498476013E+03  0.46578185652E+03  0.12508388057E+03 0.  0.
          5    1    3    3  502    0 -0.47526914624E+02  0.99821112114E+02  0.20086777973E+03  0.22932160686E+03  0.41800000000E+01 0. -1.
         -5    1    3    3    0  502  0.31686674706E+02  0.90095174733E+01  0.23411698040E+03  0.23646024966E+03  0.41800000000E+01 0. -1.
        -11    1    1    2    0    0 -0.27979450177E+02 -0.21640743884E+02  0.43881110163E+01  0.35643049061E+02  0.00000000000E+00 0.  1.
         11    1    1    2    0    0  0.43819690095E+02 -0.87189885703E+02  0.11367501734E+03  0.14981405467E+03  0.00000000000E+00 0. -1.
</event>
<event>
 7    1  0.2651429E-009  0.1076107E+03  0.7561462E-02  0.1265059E+00
          1   -1    0    0  501    0  0.00000000000E+00  0.00000000000E+00  0.15335060638E+04  0.15335060638E+04  0.00000000000E+00 0. -1.
         -1   -1    0    0    0  501 -0.00000000000E+00 -0.00000000000E+00 -0.10741306258E+02  0.10741306258E+02  0.00000000000E+00 0.  1.
         25    2    1    2    0    0  0.18479727044E+02 -0.18880699023E+00  0.12427208843E+04  0.12491372736E+04  0.12508875244E+03 0.  0.
          5    1    3    3  502    0 -0.14785169713E+02  0.57094957202E+02  0.66217387287E+03  0.66480835260E+03  0.41800000000E+01 0. -1.
         -5    1    3    3    0  502  0.33264896756E+02 -0.57283764192E+02  0.58054701142E+03  0.58432892095E+03  0.41800000000E+01 0. -1.
        -11    1    1    2    0    0 -0.54064705044E+02 -0.16421004972E+01  0.20532363156E+03  0.21232871332E+03  0.00000000000E+00 0. -1.
         11    1    1    2    0    0  0.35584978000E+02  0.18309074874E+01  0.74720241695E+02  0.82781383176E+02  0.00000000000E+00 0.  1.
</event>
<event>
 7    1  0.2651429E-009  0.1630545E+03  0.7561462E-02  0.1185291E+00
          1   -1    0    0  501    0  0.00000000000E+00  0.00000000000E+00  0.83551314441E+02  0.83551314441E+02  0.00000000000E+00 0. -1.
         -1   -1    0    0    0  501 -0.00000000000E+00 -0.00000000000E+00 -0.35211177631E+03  0.35211177631E+03  0.00000000000E+00 0.  1.
         25    2    1    2    0    0 -0.10610466012E+03 -0.69507320042E+02 -0.93465417051E+02  0.20117774228E+03  0.12508890185E+03 0.  0.
          5    1    3    3  502    0 -0.81040112196E+02  0.16150892809E+02 -0.71054351404E+02  0.10906211247E+03  0.41800000000E+01 0. -1.
         -5    1    3    3    0  502 -0.25064547928E+02 -0.85658212851E+02 -0.22411065647E+02  0.92115629809E+02  0.41800000000E+01 0. -1.
        -11    1    1    2    0    0 -0.26742553629E+01  0.41645504468E+02 -0.64888749739E+02  0.77149527068E+02  0.00000000000E+00 0.  1.
         11    1    1    2    0    0  0.10877891549E+03  0.27861815573E+02 -0.11020629508E+03  0.15733582141E+03  0.00000000000E+00 0. -1.
</event>
<event>
 7    1  0.2651429E-009  0.7429271E+02  0.7561462E-02  0.1346075E+00
         -2   -1    0    0    0  501 -0.00000000000E+00  0.00000000000E+00  0.30066380449E+02  0.30066380449E+02  0.00000000000E+00 0.  1.
          2   -1    0    0  501    0  0.00000000000E+00 -0.00000000000E+00 -0.56861044629E+03  0.56861044629E+03  0.00000000000E+00 0. -1.
         25    2    1    2    0    0 -0.27443830473E+02 -0.43238622554E+01 -0.16695503969E+03  0.21045714977E+03  0.12508543878E+03 0.  0.
          5    1    3    3  502    0 -0.33401674608E+01  0.17454196351E+02 -0.17562902140E+03  0.17657528492E+03  0.41800000000E+01 0.  1.
         -5    1    3    3    0  502 -0.24103663012E+02 -0.21778058607E+02  0.86739817017E+01  0.33881864852E+02  0.41800000000E+01 0.  1.
        -11    1    1    2    0    0 -0.14144969341E+02 -0.36594705024E+02 -0.63405275231E+02  0.74561930773E+02  0.00000000000E+00 0.  1.
         11    1    1    2    0    0  0.41588799814E+02  0.40918567279E+02 -0.30818375091E+03  0.31365774619E+03  0.00000000000E+00 0. -1.
</event>
<event>
 7    1  0.2651429E-009  0.1315896E+03  0.7561462E-02  0.1225116E+00
         -2   -1    0    0    0  501 -0.00000000000E+00  0.00000000000E+00  0.33748584935E+02  0.33748584935E+02  0.00000000000E+00 0.  1.
          2   -1    0    0  501    0  0.00000000000E+00 -0.00000000000E+00 -0.82728962559E+03  0.82728962559E+03  0.00000000000E+00 0. -1.
         25    2    1    2    0    0 -0.11537049020E+03  0.53806276821E+02 -0.45718693913E+03  0.49078856280E+03  0.12509216854E+03 0.  0.
          5    1    3    3  502    0 -0.14090662021E+02  0.26582205916E+02 -0.30150084765E+03  0.30302705154E+03  0.41800000000E+01 0.  1.
         -5    1    3    3    0  502 -0.10127982818E+03  0.27224070906E+02 -0.15568609147E+03  0.18776151126E+03  0.41800000000E+01 0.  1.
        -11    1    1    2    0    0  0.39870957149E+02 -0.12493008381E+02 -0.28462525002E+02  0.50555749543E+02  0.00000000000E+00 0.  1.
         11    1    1    2    0    0  0.75499533052E+02 -0.41313268441E+02 -0.30789157653E+03  0.31969389819E+03  0.00000000000E+00 0. -1.
</event>
<event>
 7    1  0.2651429E-009  0.1126301E+03  0.7561462E-02  0.1255775E+00
          1   -1    0    0  501    0  0.00000000000E+00  0.00000000000E+00  0.46965077618E+02  0.46965077618E+02  0.00000000000E+00 0. -1.
         -1   -1    0    0    0  501 -0.00000000000E+00 -0.00000000000E+00 -0.29472471396E+03  0.29472471396E+03  0.00000000000E+00 0.  1.
         25    2    1    2    0    0  0.66026427936E+01 -0.44585640427E+02 -0.14719975613E+03  0.19835989293E+03  0.12508958668E+03 0.  0.
          5    1    3    3  502    0 -0.39891181100E+02 -0.61546896764E+02 -0.48972781983E+02  0.88290048171E+02  0.41800000000E+01 0. -1.
         -5    1    3    3    0  502  0.46493823893E+02  0.16961256336E+02 -0.98226974143E+02  0.11006984476E+03  0.41800000000E+01 0. -1.
        -11    1    1    2    0    0 -0.49040915046E+02  0.19111506120E+02 -0.52371032796E+02  0.74249485458E+02  0.00000000000E+00 0. -1.
         11    1    1    2    0    0  0.42438272252E+02  0.25474134308E+02 -0.48188847420E+02  0.69080413188E+02  0.00000000000E+00 0.  1.
</event>
<event>
 7    1  0.2651429E-009  0.1976753E+03  0.7561462E-02  0.1151715E+00
          2   -1    0    0  501    0  0.00000000000E+00  0.00000000000E+00  0.96229643633E+03  0.96229643633E+03  0.00000000000E+00 0. -1.
         -2   -1    0    0    0  501 -0.00000000000E+00 -0.00000000000E+00 -0.45354615897E+02  0.45354615897E+02  0.00000000000E+00 0.  1.
         25    2    1    2    0    0  0.71916608206E+02 -0.16495824011E+03  0.49908100808E+03  0.54508038502E+03  0.12509018346E+03 0.  0.
          5    1    3    3  502    0 -0.98106067581E+01 -0.12260193820E+03  0.33509739388E+03  0.35698069841E+03  0.41800000000E+01 0.  1.
         -5    1    3    3    0  502  0.81727214964E+02 -0.42356301902E+02  0.16398361420E+03  0.18809968661E+03  0.41800000000E+01 0.  1.
        -11    1    1    2    0    0 -0.45099766804E+02  0.11304722058E+03  0.17757111871E+03  0.21527927268E+03  0.00000000000E+00 0.  1.
         11    1    1    2    0    0 -0.26816841401E+02  0.51911019522E+02  0.24028969365E+03  0.24729139453E+03  0.00000000000E+00 0. -1.
</event>
<event>
 7    1  0.2651429E-009  0.1352216E+03  0.7561462E-02  0.1219907E+00
         -1   -1    0    0    0  501 -0.00000000000E+00  0.00000000000E+00  0.79591607459E+02  0.79591607459E+02  0.00000000000E+00 0.  1.
          1   -1    0    0  501    0  0.00000000000E+00 -0.00000000000E+00 -0.25191502112E+03  0.25191502112E+03  0.00000000000E+00 0. -1.
         25    2    1    2    0    0 -0.81407443019E+02  0.49473084188E+02 -0.13318058088E+03  0.20605682191E+03  0.12509032294E+03 0.  0.
          5    1    3    3  502    0  0.30200224444E+02  0.20990653165E+02 -0.12233730531E+02  0.38984582074E+02  0.41800000000E+01 0.  1.
         -5    1    3    3    0  502 -0.11160766746E+03  0.28482431023E+02 -0.12094685035E+03  0.16707223983E+03  0.41800000000E+01 0.  1.
        -11    1    1    2    0    0  0.94257375121E+02 -0.41087492765E+02 -0.28253238135E+02  0.10663432980E+03  0.00000000000E+00 0.  1.
         11    1    1    2    0    0 -0.12849932101E+02 -0.83855914225E+01 -0.10889594654E+02  0.18815476880E+02  0.00000000000E+00 0. -1.
</event>
<event>
 7    1  0.2651429E-009  0.1073496E+03  0.7561462E-02  0.1265558E+00
          1   -1    0    0  501    0  0.00000000000E+00  0.00000000000E+00  0.62691282982E+02  0.62691282982E+02  0.00000000000E+00 0. -1.
         -1   -1    0    0    0  501 -0.00000000000E+00 -0.00000000000E+00 -0.19483055057E+03  0.19483055057E+03  0.00000000000E+00 0.  1.
         25    2    1    2    0    0  0.23502574523E+02  0.73448016269E+01 -0.79730829388E+02  0.15036721198E+03  0.12508787377E+03 0.  0.
          5    1    3    3  502    0  0.45519667190E+02  0.53556707285E+02 -0.23543418421E+02  0.74243692979E+02  0.41800000000E+01 0.  1.
         -5    1    3    3    0  502 -0.22017092667E+02 -0.46211905658E+02 -0.56187410967E+02  0.76123519002E+02  0.41800000000E+01 0.  1.
        -11    1    1    2    0    0 -0.57959814872E+02 -0.15032414593E+01 -0.27073599591E+02  0.63988902707E+02  0.00000000000E+00 0. -1.
         11    1    1    2    0    0  0.34457240349E+02 -0.58415601676E+01 -0.25334838609E+02  0.43165718863E+02  0.00000000000E+00 0.  1.
</event>
<event>
 7    1  0.2687689E-009  0.8361968E+02  0.7561462E-02  0.1319082E+00
          2   -1    0    0  501    0  0.00000000000E+00  0.00000000000E+00  0.19703243362E+03  0.19703243362E+03  0.00000000000E+00 0. -1.
         -2   -1    0    0    0  501 -0.00000000000E+00 -0.00000000000E+00 -0.85084012760E+02  0.85084012760E+02  0.00000000000E+00 0.  1.
         25    2    1    2    0    0  0.70257169931E+02  0.85821894035E+00  0.72091863203E+02  0.16058087289E+03  0.12510864690E+03 0.  0.
          5    1    3    3  502    0  0.65610518339E+02  0.26273562063E+02 -0.12622601781E+02  0.71915524443E+02  0.41800000000E+01 0. -1.
         -5    1    3    3    0  502  0.46466515921E+01 -0.25415343122E+02  0.84714464984E+02  0.88665348443E+02  0.41800000000E+01 0. -1.
        -11    1    1    2    0    0 -0.46282086679E+02 -0.97373054647E+00 -0.24842634279E+02  0.52536998168E+02  0.00000000000E+00 0.  1.
         11    1    1    2    0    0 -0.23975083252E+02  0.11551160612E+00  0.64699191933E+02  0.68998575324E+02  0.00000000000E+00 0. -1.
</event>
<event>
 7    1  0.2651429E-009  0.1938234E+03  0.7561462E-02  0.1155057E+00
          2   -1    0    0  501    0  0.00000000000E+00  0.00000000000E+00  0.92438422953E+03  0.92438422953E+03  0.00000000000E+00 0. -1.
         -2   -1    0    0    0  501 -0.00000000000E+00 -0.00000000000E+00 -0.45780790934E+02  0.45780790934E+02  0.00000000000E+00 0.  1.
         25    2    1    2    0    0  0.15287324427E+03  0.75784213259E+02  0.53867273305E+03  0.57873173049E+03  0.12509447132E+03 0.  0.
          5    1    3    3  502    0  0.40121673661E+01  0.56095697865E+02  0.96864451773E+02  0.11208487509E+03  0.41800000000E+01 0.  1.
         -5    1    3    3    0  502  0.14886107691E+03  0.19688515394E+02  0.44180828128E+03  0.46664685541E+03  0.41800000000E+01 0.  1.
        -11    1    1    2    0    0 -0.71901142223E+02 -0.26867945613E+01  0.20886477867E+03  0.22091059025E+03  0.00000000000E+00 0. -1.
         11    1    1    2    0    0 -0.80972102049E+02 -0.73097418698E+02  0.13106592688E+03  0.17052269972E+03  0.00000000000E+00 0.  1.
</event>
<event>
 7    1  0.2651429E-009  0.1121019E+03  0.7561462E-02  0.1256726E+00
          2   -1    0    0  501    0  0.00000000000E+00  0.00000000000E+00  0.14983009480E+03  0.14983009480E+03  0.00000000000E+00 0. -1.
         -2   -1    0    0    0  501 -0.00000000000E+00 -0.00000000000E+00 -0.12526367962E+03  0.12526367962E+03  0.00000000000E+00 0.  1.
         25    2    1    2    0    0  0.72760874733E+02 -0.38913279146E+02  0.14579442515E+02  0.15056282763E+03  0.12509283247E+03 0.  0.
          5    1    3    3  502    0  0.75437793279E+02 -0.74235970016E+02  0.32296193782E+02  0.11073552471E+03  0.41800000000E+01 0.  1.
         -5    1    3    3    0  502 -0.26769185457E+01  0.35322690870E+02 -0.17716751267E+02  0.39827302929E+02  0.41800000000E+01 0.  1.
        -11    1    1    2    0    0 -0.43540660118E+02  0.21017466025E+02 -0.40802250533E+02  0.63264102066E+02  0.00000000000E+00 0.  1.
         11    1    1    2    0    0 -0.29220214615E+02  0.17895813121E+02  0.50789223201E+02  0.61266844727E+02  0.00000000000E+00 0. -1.
</event>
<event>
 7    1  0.2651429E-009  0.1098485E+03  0.7561462E-02  0.1260851E+00
         -2   -1    0    0    0  501 -0.00000000000E+00  0.00000000000E+00  0.35847571578E+02  0.35847571578E+02  0.00000000000E+00 0. -1.
          2   -1    0    0  501    0  0.00000000000E+00 -0.00000000000E+00 -0.74519770785E+03  0.74519770785E+03  0.00000000000E+00 0.  1.
         25    2    1    2    0    0 -0.44638092342E+02 -0.61184998381E+02 -0.60552590289E+03  0.62293256629E+03  0.12508876749E+03 0.  0.
          5    1    3    3  502    0 -0.39048507957E+02  0.23942062965E+02 -0.97837796133E+02  0.10810973640E+03  0.41800000000E+01 0. -1.
         -5    1    3    3    0  502 -0.55895843856E+01 -0.85127061346E+02 -0.50768810676E+03  0.51482282989E+03  0.41800000000E+01 0. -1.
        -11    1    1    2    0    0  0.23903601478E+01  0.41694767548E+02  0.27209051790E+01  0.41851771617E+02  0.00000000000E+00 0. -1.
         11    1    1    2    0    0  0.42247732195E+02  0.19490230833E+02 -0.10654513856E+03  0.11626094152E+03  0.00000000000E+00 0.  1.
</event>
<event>
 7    1  0.3075600E-009  0.2012720E+03  0.7561462E-02  0.1148670E+00
         -2   -1    0    0    0  501 -0.00000000000E+00  0.00000000000E+00  0.84719524955E+02  0.84719524955E+02  0.00000000000E+00 0. -1.
          2   -1    0    0  501    0  0.00000000000E+00 -0.00000000000E+00 -0.60650185803E+03  0.60650185803E+03  0.00000000000E+00 0.  1.
         25    2    1    2    0    0  0.16510471028E+03 -0.83075377336E+02 -0.16023797771E+03  0.27473880476E+03  0.12507644729E+03 0.  0.
          5    1    3    3  502    0 -0.16402735182E+02 -0.90758577147E+01  0.32271162552E+01  0.19475820754E+02  0.41800000000E+01 0. -1.
         -5    1    3    3    0  502  0.18150744546E+03 -0.73999519622E+02 -0.16346509396E+03  0.25526298401E+03  0.41800000000E+01 0. -1.
        -11    1    1    2    0    0 -0.66523301044E+02  0.50279595506E+02 -0.25230418572E+03  0.26572690763E+03  0.00000000000E+00 0.  1.
         11    1    1    2    0    0 -0.98581409232E+02  0.32795781830E+02 -0.10924016966E+03  0.15075567060E+03  0.00000000000E+00 0. -1.
</event>
<event>
 7    1  0.2651429E-009  0.1880821E+03  0.7561462E-02  0.1160203E+00
          2   -1    0    0  501    0  0.00000000000E+00  0.00000000000E+00  0.23357352968E+03  0.23357352968E+03  0.00000000000E+00 0. -1.
         -2   -1    0    0    0  501 -0.00000000000E+00 -0.00000000000E+00 -0.19795564055E+03  0.19795564055E+03  0.00000000000E+00 0.  1.
         25    2    1    2    0    0 -0.98781528888E+02  0.15453391791E+03 -0.11645526910E+02  0.22231182796E+03  0.12509359822E+03 0.  0.
          5    1    3    3  502    0 -0.47575450986E+02  0.10276465885E+03 -0.66191614603E+02  0.13123566927E+03  0.41800000000E+01 0. -1.
         -5    1    3    3    0  502 -0.51206077902E+02  0.51769259060E+02  0.54546087693E+02  0.91076158682E+02  0.41800000000E+01 0. -1.
        -11    1    1    2    0    0  0.81606450082E+02 -0.83220280433E+02 -0.88086528239E+01  0.11688806669E+03  0.00000000000E+00 0.  1.
         11    1    1    2    0    0  0.17175078806E+02 -0.71313637480E+02  0.56072068864E+02  0.92329275581E+02  0.00000000000E+00 0. -1.
</event>
<event>
 6    1  0.2651429E-009  0.1064544E+03  0.7561462E-02  0.1267280E+00
          1   -1    0    0  501    0  0.00000000000E+00  0.00000000000E+00  0.23068661370E+03  0.23068661370E+03  0.00000000000E+00 0. -1.
         -1   -1    0    0    0  501 -0.00000000000E+00 -0.00000000000E+00 -0.53033143806E+02  0.53033143806E+02  0.00000000000E+00 0.  1.
          5    1    1    2  502    0 -0.34374089112E+02  0.39568375918E+02  0.31632469935E+02  0.61362202774E+02  0.41800000000E+01 0. -1.
         -5    1    1    2    0  502  0.42911009003E+02 -0.60115585180E+02  0.62703426347E+02  0.96976442247E+02  0.41800000000E+01 0. -1.
        -11    1    1    2    0    0 -0.43474013321E+02  0.26493998083E+02  0.24002831178E+02  0.56285501448E+02  0.00000000000E+00 0. -1.
         11    1    1    2    0    0  0.34937093430E+02 -0.59467888211E+01  0.59314742433E+02  0.69095611036E+02  0.00000000000E+00 0.  1.
</event>
<event>
 7    1  0.2651429E-009  0.1295786E+03  0.7561462E-02  0.1228082E+00
          2   -1    0    0  501    0  0.00000000000E+00  0.00000000000E+00  0.81992030538E+03  0.81992030538E+03  0.00000000000E+00 0.  1.
         -2   -1    0    0    0  501 -0.00000000000E+00 -0.00000000000E+00 -0.32991087337E+02  0.32991087337E+02  0.00000000000E+00 0. -1.
         25    2    1    2    0    0 -0.43020980292E+01 -0.89713514185E+02  0.20308076230E+03  0.25486304662E+03  0.12508538620E+03 0.  0.
          5    1    3    3  502    0 -0.11167560693E+02 -0.10859123183E+03  0.94758403886E+02  0.14461465192E+03  0.41800000000E+01 0. -1.
         -5    1    3    3    0  502  0.68654626639E+01  0.18877717649E+02  0.10832235841E+03  0.11024839470E+03  0.41800000000E+01 0. -1.
        -11    1    1    2    0    0 -0.40825477865E+02  0.68004450980E+02  0.34358995680E+03  0.35262640771E+03  0.00000000000E+00 0.  1.
         11    1    1    2    0    0  0.45127575895E+02  0.21709063205E+02  0.24025849894E+03  0.24542193839E+03  0.00000000000E+00 0. -1.
</event>
<event>
 7    1  0.2651429E-009  0.1673312E+03  0.7561462E-02  0.1180660E+00
         -1   -1    0    0    0  501 -0.00000000000E+00  0.00000000000E+00  0.35140225875E+02  0.35140225875E+02  0.00000000000E+00 0.  1.
          1   -1    0    0  501    0  0.00000000000E+00 -0.00000000000E+00 -0.94620336626E+03  0.94620336626E+03  0.00000000000E+00 0. -1.
         25    2    1    2    0    0  0.69233822543E+02  0.11954949271E+03 -0.59793566236E+03  0.62631178321E+03  0.12511590654E+03 0.  0.
          5    1    3    3  502    0  0.61535170020E+02  0.13609899357E+03 -0.58441742790E+03  0.60321697227E+03  0.41800000000E+01 0. -1.
         -5    1    3    3    0  502  0.76986525229E+01 -0.16549500858E+02 -0.13518234457E+02  0.23094810935E+02  0.41800000000E+01 0. -1.
        -11    1    1    2    0    0  0.63349994245E+01 -0.81795287072E+02 -0.17177334061E+03  0.19035934899E+03  0.00000000000E+00 0.  1.
         11    1    1    2    0    0 -0.75568821968E+02 -0.37754205637E+02 -0.14135413742E+03  0.16467245994E+03  0.00000000000E+00 0. -1.
</event>
<event>
 7    1  0.2651429E-009  0.1795225E+03  0.7561462E-02  0.1168266E+00
          1   -1    0    0  501    0  0.00000000000E+00  0.00000000000E+00  0.55258421727E+03  0.55258421727E+03  0.00000000000E+00 0. -1.
         -1   -1    0    0    0  501 -0.00000000000E+00 -0.00000000000E+00 -0.63106585824E+02  0.63106585824E+02  0.00000000000E+00 0.  1.
         25    2    1    2    0    0  0.13335759298E+03 -0.61136205416E+02  0.31900524813E+03  0.37273865122E+03  0.12509144879E+03 0.  0.
          5    1    3    3  502    0  0.31439383025E+02  0.38717649438E+02  0.83541931419E+02  0.97386949270E+02  0.41800000000E+01 0.  1.
         -5    1    3    3    0  502  0.10191820996E+03 -0.99853854854E+02  0.23546331671E+03  0.27535170195E+03  0.41800000000E+01 0.  1.
        -11    1    1    2    0    0 -0.49366459001E+02 -0.16324249690E+02  0.24218816893E+02  0.57359214551E+02  0.00000000000E+00 0.  1.
         11    1    1    2    0    0 -0.83991133981E+02  0.77460455107E+02  0.14625356643E+03  0.18559293733E+03  0.00000000000E+00 0. -1.
</event>
<event>
 7    1  0.2651429E-009  0.9872324E+02  0.7561462E-02  0.1283004E+00
          2   -1    0    0  501    0  0.00000000000E+00  0.00000000000E+00  0.58693288807E+03  0.58693288807E+03  0.00000000000E+00 0. -1.
         -2   -1    0    0    0  501 -0.00000000000E+00 -0.00000000000E+00 -0.25137148750E+02  0.25137148750E+02  0.00000000000E+00 0.  1.
         25    2    1    2    0    0 -0.75767242913E+01 -0.32436579624E+02  0.42526417168E+03  0.44452993771E+03  0.12509081243E+03 0.  0.
          5    1    3    3  502    0  0.28617975627E+02  0.29297679091E+02  0.63117378364E+02  0.75356608076E+02  0.41800000000E+01 0. -1.
         -5    1    3    3    0  502 -0.36194699919E+02 -0.61734258716E+02  0.36214679332E+03  0.36917332963E+03  0.41800000000E+01 0. -1.
        -11    1    1    2    0    0  0.40491012845E+02  0.32812667856E+01  0.25113435712E+02  0.47759538170E+02  0.00000000000E+00 0.  1.
         11    1    1    2    0    0 -0.32914288554E+02  0.29155312839E+02  0.11141813192E+03  0.11978056094E+03  0.00000000000E+00 0. -1.
</event>
<event>
 7    1  0.2651429E-009  0.1216724E+03  0.7561462E-02  0.1240363E+00
          1   -1    0    0  501    0  0.00000000000E+00  0.00000000000E+00  0.14313285257E+02  0.14313285257E+02  0.00000000000E+00 0. -1.
         -1   -1    0    0    0  501 -0.00000000000E+00 -0.00000000000E+00 -0.12076465957E+04  0.12076465957E+04  0.00000000000E+00 0.  1.
         25    2    1    2    0    0 -0.56423516628E+02 -0.19483890571E+02 -0.59131985671E+03  0.60734681649E+03  0.12509095630E+03 0.  0.
          5    1    3    3  502    0  0.28575178893E+02 -0.21604538042E+02 -0.66342011617E+02  0.75511799198E+02  0.41800000000E+01 0.  1.
         -5    1    3    3    0  502 -0.84998695521E+02  0.21206474708E+01 -0.52497784509E+03  0.53183501729E+03  0.41800000000E+01 0.  1.
        -11    1    1    2    0    0  0.35866115500E+02 -0.43219714083E+02 -0.32743167504E+03  0.33221352132E+03  0.00000000000E+00 0.  1.
         11    1    1    2    0    0  0.20557401128E+02  0.62703604654E+02 -0.27458177869E+03  0.28239954314E+03  0.00000000000E+00 0. -1.
</event>
<event>
 7    1  0.2651429E-009  0.1304035E+03  0.7561462E-02  0.1226858E+00
          1   -1    0    0  501    0  0.00000000000E+00  0.00000000000E+00  0.30724256840E+03  0.30724256840E+03  0.00000000000E+00 0. -1.
         -1   -1    0    0    0  501 -0.00000000000E+00 -0.00000000000E+00 -0.14685252019E+03  0.14685252019E+03  0.00000000000E+00 0.  1.
         25    2    1    2    0    0  0.75234517014E+01 -0.92236058981E+02 -0.83939659740E+02  0.17680062230E+03  0.12509396734E+03 0.  0.
          5    1    3    3  502    0  0.61160913529E+02 -0.76136391652E+02 -0.40517363682E+02  0.10581368833E+03  0.41800000000E+01 0.  1.
         -5    1    3    3    0  502 -0.53637461828E+02 -0.16099667329E+02 -0.43422296058E+02  0.70986933969E+02  0.41800000000E+01 0.  1.
        -11    1    1    2    0    0  0.22026159707E+02  0.55789164259E+02  0.52185025564E+02  0.79503832946E+02  0.00000000000E+00 0.  1.
         11    1    1    2    0    0 -0.29549611409E+02  0.36446894722E+02  0.19214468239E+03  0.19779063334E+03  0.00000000000E+00 0. -1.
</event>
<event>
 7    1  0.2651429E-009  0.1876542E+03  0.7561462E-02  0.1160594E+00
         -2   -1    0    0    0  501 -0.00000000000E+00  0.00000000000E+00  0.70924893260E+03  0.70924893260E+03  0.00000000000E+00 0.  1.
          2   -1    0    0  501    0  0.00000000000E+00 -0.00000000000E+00 -0.55245328022E+02  0.55245328022E+02  0.00000000000E+00 0. -1.
         25    2    1    2    0    0 -0.10290317594E+03  0.12647119837E+03  0.28987726955E+03  0.35533010355E+03  0.12508646389E+03 0.  0.
          5    1    3    3  502    0 -0.10771187268E+03  0.57759326021E+02  0.24260403924E+03  0.27168396992E+03  0.41800000000E+01 0.  1.
         -5    1    3    3    0  502  0.48086967402E+01  0.68711872347E+02  0.47273230312E+02  0.83646133622E+02  0.41800000000E+01 0.  1.
        -11    1    1    2    0    0  0.58490567987E+02 -0.99760205005E+01  0.15115930721E+03  0.16238781877E+03  0.00000000000E+00 0. -1.
         11    1    1    2    0    0  0.44412607948E+02 -0.11649517787E+03  0.21296702781E+03  0.24677633830E+03  0.00000000000E+00 0.  1.
</event>
<event>
 7    1  0.2651429E-009  0.2033317E+03  0.7561462E-02  0.1146958E+00
         -2   -1    0    0    0  501 -0.00000000000E+00  0.00000000000E+00  0.74811410258E+02  0.74811410258E+02  0.00000000000E+00 0.  1.
          2   -1    0    0  501    0  0.00000000000E+00 -0.00000000000E+00 -0.62746909366E+03  0.62746909366E+03  0.00000000000E+00 0. -1.
         25    2    1    2    0    0  0.13219223129E+02  0.18460894522E+03 -0.33535026930E+03  0.40294337530E+03  0.12509336540E+03 0.  0.
          5    1    3    3  502    0  0.38977370770E+02  0.46678074677E+02 -0.19553876347E+03  0.20481933138E+03  0.41800000000E+01 0.  1.
         -5    1    3    3    0  502 -0.25758147641E+02  0.13793087054E+03 -0.13981150583E+03  0.19812404392E+03  0.41800000000E+01 0.  1.
        -11    1    1    2    0    0  0.38317560012E+02 -0.75899875805E+02 -0.79464687039E+02  0.11637724451E+03  0.00000000000E+00 0.  1.
         11    1    1    2    0    0 -0.51536783141E+02 -0.10870906941E+03 -0.13784272706E+03  0.18295988411E+03  0.00000000000E+00 0. -1.
</event>
<event>
 7    1  0.2651429E-009  0.1113909E+03  0.7561462E-02  0.1258016E+00
         -3   -1    0    0    0  501 -0.00000000000E+00  0.00000000000E+00  0.44665089317E+03  0.44665089317E+03  0.00000000000E+00 0.  1.
          3   -1    0    0  501    0  0.00000000000E+00 -0.00000000000E+00 -0.36002638656E+02  0.36002638656E+02  0.00000000000E+00 0. -1.
         25    2    1    2    0    0 -0.25458468891E+02 -0.12864512457E+02  0.33994612426E+03  0.36335267399E+03  0.12509264158E+03 0.  0.
          5    1    3    3  502    0  0.75651478504E+01 -0.65081846554E+02  0.19416890000E+03  0.20496807640E+03  0.41800000000E+01 0. -1.
         -5    1    3    3    0  502 -0.33023616742E+02  0.52217334097E+02  0.14577722426E+03  0.15838459760E+03  0.41800000000E+01 0. -1.
        -11    1    1    2    0    0  0.22119382425E+02  0.51695824855E+02  0.49605243661E+02  0.74982701905E+02  0.00000000000E+00 0.  1.
         11    1    1    2    0    0  0.33390864665E+01 -0.38831312398E+02  0.21096886587E+02  0.44318155926E+02  0.00000000000E+00 0. -1.
</event>
<event>
 7    1  0.2651429E-009  0.9260998E+02  0.7561462E-02  0.1296652E+00
          1   -1    0    0  501    0  0.00000000000E+00  0.00000000000E+00  0.40632505482E+02  0.40632505482E+02  0.00000000000E+00 0. -1.
         -1   -1    0    0    0  501 -0.00000000000E+00 -0.00000000000E+00 -0.30086607696E+03  0.30086607696E+03  0.00000000000E+00 0.  1.
         25    2    1    2    0    0 -0.42894333204E+01 -0.21868199183E+02 -0.17852914382E+03  0.21912754295E+03  0.12509039736E+03 0.  0.
          5    1    3    3  502    0  0.43031685385E+02 -0.40579062479E+01 -0.15890281245E+03  0.16472938036E+03  0.41800000000E+01 0.  1.
         -5    1    3    3    0  502 -0.47321118705E+02 -0.17810292935E+02 -0.19626331373E+02  0.54398162589E+02  0.41800000000E+01 0.  1.
        -11    1    1    2    0    0 -0.14977871214E+01  0.56212750759E+02 -0.48734910191E+02  0.74412419565E+02  0.00000000000E+00 0.  1.
         11    1    1    2    0    0  0.57872204418E+01 -0.34344551575E+02 -0.32969517464E+02  0.47958619926E+02  0.00000000000E+00 0. -1.
</event>
<event>
 7    1  0.2651429E-009  0.8843111E+02  0.7561462E-02  0.1306696E+00
          2   -1    0    0  501    0  0.00000000000E+00  0.00000000000E+00  0.17145880722E+03  0.17145880722E+03  0.00000000000E+00 0.  1.
         -2   -1    0    0    0  501 -0.00000000000E+00 -0.00000000000E+00 -0.80197810112E+02  0.80197810112E+02  0.00000000000E+00 0. -1.
         25    2    1    2    0    0 -0.16929124467E+01 -0.21024390951E+02  0.95471633526E+02  0.15876872122E+03  0.12509109905E+03 0.  0.
          5    1    3    3  502    0 -0.30095125390E+02  0.42382045582E+02  0.63515806361E+02  0.82180803219E+02  0.41800000000E+01 0. -1.
         -5    1    3    3    0  502  0.28402212943E+02 -0.63406436534E+02  0.31955827165E+02  0.76587918001E+02  0.41800000000E+01 0. -1.
        -11    1    1    2    0    0  0.24995272626E+02  0.19603572955E+02  0.34992295709E+02  0.47260178642E+02  0.00000000000E+00 0.  1.
         11    1    1    2    0    0 -0.23302360180E+02  0.14208179968E+01 -0.39202932130E+02  0.45627717468E+02  0.00000000000E+00 0. -1.
</event>
<event>
 7    1  0.2651429E-009  0.1131512E+03  0.7561462E-02  0.1254843E+00
          1   -1    0    0  501    0  0.00000000000E+00  0.00000000000E+00  0.30425557189E+02  0.30425557189E+02  0.00000000000E+00 0. -1.
         -1   -1    0    0    0  501 -0.00000000000E+00 -0.00000000000E+00 -0.43398358635E+03  0.43398358635E+03  0.00000000000E+00 0.  1.
         25    2    1    2    0    0  0.21214336210E+02 -0.26782219635E+02 -0.25049943592E+03  0.28207350469E+03  0.12509260290E+03 0.  0.
          5    1    3    3  502    0  0.33716456568E+02 -0.73422211293E+02 -0.16587430252E+03  0.18455182792E+03  0.41800000000E+01 0.  1.
         -5    1    3    3    0  502 -0.12502120358E+02  0.46639991658E+02 -0.84625133403E+02  0.97521676763E+02  0.41800000000E+01 0.  1.
        -11    1    1    2    0    0  0.27741520203E+02 -0.15907787200E+02 -0.69465517640E+02  0.76472921860E+02  0.00000000000E+00 0.  1.
         11    1    1    2    0    0 -0.48955856413E+02  0.42690006835E+02 -0.83593075604E+02  0.10586271700E+03  0.00000000000E+00 0. -1.
</event>
<event>
 7    1  0.2651429E-009  0.1470395E+03  0.7561462E-02  0.1204159E+00
         -1   -1    0    0    0  501 -0.00000000000E+00  0.00000000000E+00  0.43686029536E+03  0.43686029536E+03  0.00000000000E+00 0.  1.
          1   -1    0    0  501    0  0.00000000000E+00 -0.00000000000E+00 -0.66037911747E+02  0.66037911747E+02  0.00000000000E+00 0. -1.
         25    2    1    2    0    0 -0.76150478970E+02  0.10429188631E+03  0.22046053033E+03  0.28447447486E+03  0.12508872218E+03 0.  0.
          5    1    3    3  502    0  0.23552754380E+02  0.61527676133E+01  0.16824369820E+01  0.24756651276E+02  0.41800000000E+01 0.  1.
         -5    1    3    3    0  502 -0.99703233351E+02  0.98139118695E+02  0.21877809335E+03  0.25971782358E+03  0.41800000000E+01 0.  1.
        -11    1    1    2    0    0  0.41147521088E+02 -0.49103583690E+02  0.11688032910E+02  0.65122120176E+02  0.00000000000E+00 0. -1.
         11    1    1    2    0    0  0.35002957882E+02 -0.55188302619E+02  0.13867382037E+03  0.15330161207E+03  0.00000000000E+00 0.  1.
</event>
<event>
 6    1  0.2651429E-009  0.1120475E+03  0.7561462E-02  0.1256825E+00
          2   -1    0    0  501    0  0.00000000000E+00  0.00000000000E+00  0.17680612917E+02  0.17680612917E+02  0.00000000000E+00 0. -1.
         -2   -1    0    0    0  501 -0.00000000000E+00 -0.00000000000E+00 -0.92553181269E+03  0.92553181269E+03  0.00000000000E+00 0.  1.
          5    1    1    2  502    0 -0.18432031245E+02 -0.68790802776E+02 -0.53159072839E+03  0.53635630810E+03  0.41800000000E+01 0.  1.
         -5    1    1    2    0  502  0.44158915782E+02  0.18613783919E+02 -0.11445186895E+03  0.12414985099E+03  0.41800000000E+01 0.  1.
        -11    1    1    2    0    0 -0.28250065076E+02 -0.19883283918E+02 -0.62273166898E+02  0.71213471139E+02  0.00000000000E+00 0. -1.
         11    1    1    2    0    0  0.25231805395E+01  0.70060302775E+02 -0.19953543553E+03  0.21149279538E+03  0.00000000000E+00 0.  1.
</event>
<event>
 7    1  0.2651429E-009  0.1519059E+03  0.7561462E-02  0.1198150E+00
          1   -1    0    0  501    0  0.00000000000E+00  0.00000000000E+00  0.21371624505E+04  0.21371624505E+04  0.00000000000E+00 0. -1.
         -1   -1    0    0    0  501 -0.00000000000E+00 -0.00000000000E+00 -0.12155704251E+02  0.12155704251E+02  0.00000000000E+00 0.  1.
         25    2    1    2    0    0  0.53549531147E+02  0.93790136834E+02  0.14657350495E+04  0.14750228405E+04  0.12509597358E+03 0.  0.
          5    1    3    3  502    0 -0.34591136392E+02  0.60335358344E+02  0.71278243770E+03  0.71617957111E+03  0.41800000000E+01 0. -1.
         -5    1    3    3    0  502  0.88140667539E+02  0.33454778489E+02  0.75295261182E+03  0.75884326941E+03  0.41800000000E+01 0. -1.
        -11    1    1    2    0    0 -0.33173294757E+01 -0.89273070775E+02  0.36790791009E+03  0.37859862143E+03  0.00000000000E+00 0. -1.
         11    1    1    2    0    0 -0.50232201672E+02 -0.45170660586E+01  0.29136378661E+03  0.29569669277E+03  0.00000000000E+00 0.  1.
</event>
<event>
 7    1  0.2651429E-009  0.5105314E+02  0.7561462E-02  0.1439743E+00
         -1   -1    0    0    0  501 -0.00000000000E+00  0.00000000000E+00  0.10984850587E+03  0.10984850587E+03  0.00000000000E+00 0.  1.
          1   -1    0    0  501    0  0.00000000000E+00 -0.00000000000E+00 -0.12307722925E+03  0.12307722925E+03  0.00000000000E+00 0. -1.
         25    2    1    2    0    0 -0.31148786430E+02  0.11991467133E+02  0.12339380866E+02  0.13005084948E+03  0.12508765306E+03 0.  0.
          5    1    3    3  502    0 -0.40141374327E+02  0.71139581672E+01 -0.51186809091E+02  0.65570573877E+02  0.41800000000E+01 0. -1.
         -5    1    3    3    0  502  0.89925878970E+01  0.48775089657E+01  0.63526189958E+02  0.64480275599E+02  0.41800000000E+01 0. -1.
        -11    1    1    2    0    0  0.10867719904E+02  0.13607806964E+02  0.32146348829E+02  0.36560463472E+02  0.00000000000E+00 0.  1.
         11    1    1    2    0    0  0.20281066526E+02 -0.25599274097E+02 -0.57714453077E+02  0.66314422170E+02  0.00000000000E+00 0. -1.
</event>
<event>
 7    1  0.2651429E-009  0.1413051E+03  0.7561462E-02  0.1211584E+00
         -2   -1    0    0    0  501 -0.00000000000E+00  0.00000000000E+00  0.82888610686E+03  0.82888610686E+03  0.00000000000E+00 0.  1.
          2   -1    0    0  501    0  0.00000000000E+00 -0.00000000000E+00 -0.31697862663E+02  0.31697862663E+02  0.00000000000E+00 0. -1.
         25    2    1    2    0    0 -0.95963622765E+02  0.65129380042E+02  0.33963560077E+03  0.38006630054E+03  0.12508876231E+03 0.  0.
          5    1    3    3  502    0 -0.46831760677E+02 -0.31390545811E+02  0.16616772300E+03  0.17552140822E+03  0.41800000000E+01 0. -1.
         -5    1    3    3    0  502 -0.49131862088E+02  0.96519925853E+02  0.17346787777E+03  0.20454489233E+03  0.41800000000E+01 0. -1.
        -11    1    1    2    0    0  0.22281917463E+02 -0.56226908574E+01  0.13875779496E+02  0.26844659710E+02  0.00000000000E+00 0. -1.
         11    1    1    2    0    0  0.73681705302E+02 -0.59506689185E+02  0.44367686393E+03  0.45367300927E+03  0.00000000000E+00 0.  1.
</event>
<event>
 7    1  0.3098985E-009  0.1158807E+03  0.7561462E-02  0.1250052E+00
          2   -1    0    0  501    0  0.00000000000E+00  0.00000000000E+00  0.25201744331E+03  0.25201744331E+03  0.00000000000E+00 0. -1.
         -2   -1    0    0    0  501 -0.00000000000E+00 -0.00000000000E+00 -0.77076007933E+02  0.77076007933E+02  0.00000000000E+00 0.  1.
         25    2    1    2    0    0 -0.51426556054E+02 -0.21646301880E+02  0.16895375921E+02  0.13803624200E+03  0.12512113061E+03 0.  0.
          5    1    3    3  502    0  0.34192654170E+02  0.50714396558E+01 -0.20908534250E+02  0.40613991479E+02  0.41800000000E+01 0.  1.
         -5    1    3    3    0  502 -0.85619210223E+02 -0.26717741536E+02  0.37803910171E+02  0.97422250519E+02  0.41800000000E+01 0.  1.
        -11    1    1    2    0    0  0.33825574765E+02  0.57785076840E+02  0.93085271803E+02  0.11466539339E+03  0.00000000000E+00 0.  1.
         11    1    1    2    0    0  0.17600981288E+02 -0.36138774959E+02  0.64960787655E+02  0.76391815861E+02  0.00000000000E+00 0. -1.
</event>
<event>
 7    1  0.2651429E-009  0.1243687E+03  0.7561462E-02  0.1236059E+00
         -1   -1    0    0    0  501 -0.00000000000E+00  0.00000000000E+00  0.37599284341E+02  0.37599284341E+02  0.00000000000E+00 0.  1.
          1   -1    0    0  501    0  0.00000000000E+00 -0.00000000000E+00 -0.55324967625E+03  0.55324967625E+03  0.00000000000E+00 0. -1.
         25    2    1    2    0    0  0.50433542380E+02  0.43039580738E+02 -0.41760986953E+03  0.44095567450E+03  0.12509179044E+03 0.  0.
          5    1    3    3  502    0  0.68677111800E+02  0.76049141505E+02 -0.27923659054E+03  0.29747363497E+03  0.41800000000E+01 0.  1.
         -5    1    3    3    0  502 -0.18243569420E+02 -0.33009560767E+02 -0.13837327899E+03  0.14348203953E+03  0.41800000000E+01 0.  1.
        -11    1    1    2    0    0  0.10988429173E+02 -0.45457265324E+02 -0.65091358559E+02  0.80149819123E+02  0.00000000000E+00 0. -1.
         11    1    1    2    0    0 -0.61421971553E+02  0.24176845864E+01 -0.32949163816E+02  0.69743466966E+02  0.00000000000E+00 0.  1.
</event>
<event>
 7    1  0.2651429E-009  0.1037802E+03  0.7561462E-02  0.1272542E+00
          1   -1    0    0  501    0  0.00000000000E+00  0.00000000000E+00  0.27223379736E+02  0.27223379736E+02  0.00000000000E+00 0. -1.
         -1   -1    0    0    0  501 -0.00000000000E+00 -0.00000000000E+00 -0.72321811515E+03  0.72321811515E+03  0.00000000000E+00 0.  1.
         25    2    1    2    0    0 -0.70541097824E+02 -0.57487255206E+02 -0.40584470675E+03  0.43432521086E+03  0.12509049443E+03 0.  0.
          5    1    3    3  502    0 -0.32482232236E+02 -0.25245786365E+02 -0.37109266938E+03  0.37338945728E+03  0.41800000000E+01 0. -1.
         -5    1    3    3    0  502 -0.38058865588E+02 -0.32241468842E+02 -0.34752037375E+02  0.60935753582E+02  0.41800000000E+01 0. -1.
        -11    1    1    2    0    0  0.78439968731E+02  0.24414457543E+02 -0.14142794397E+03  0.16355658888E+03  0.00000000000E+00 0. -1.
         11    1    1    2    0    0 -0.78988709073E+01  0.33072797664E+02 -0.14872208469E+03  0.15255969514E+03  0.00000000000E+00 0.  1.
</event>
<event>
 7    1  0.2651429E-009  0.2384238E+03  0.7561462E-02  0.1120847E+00
         -2   -1    0    0    0  501 -0.00000000000E+00  0.00000000000E+00  0.50889029920E+03  0.50889029920E+03  0.00000000000E+00 0. -1.
          2   -1    0    0  501    0  0.00000000000E+00 -0.00000000000E+00 -0.19724549749E+03  0.19724549749E+03  0.00000000000E+00 0.  1.
         25    2    1    2    0    0  0.58517303390E+02  0.22530700949E+03  0.36338834599E+03  0.44930702139E+03  0.12505273348E+03 0.  0.
          5    1    3    3  502    0  0.36013411940E+02  0.48776119238E+02  0.22622610443E+02  0.64848520035E+02  0.41800000000E+01 0. -1.
         -5    1    3    3    0  502  0.22503891450E+02  0.17653089026E+03  0.34076573554E+03  0.38445850136E+03  0.41800000000E+01 0. -1.
        -11    1    1    2    0    0 -0.13231168958E+02 -0.14708610057E+03 -0.71856118190E+02  0.16423363399E+03  0.00000000000E+00 0.  1.
         11    1    1    2    0    0 -0.45286134432E+02 -0.78220908924E+02  0.20112573907E+02  0.92595141308E+02  0.00000000000E+00 0. -1.
</event>
<event>
 7    1  0.2651429E-009  0.1021260E+03  0.7561462E-02  0.1275888E+00
         -1   -1    0    0    0  501 -0.00000000000E+00  0.00000000000E+00  0.38050587180E+02  0.38050587180E+02  0.00000000000E+00 0.  1.
          1   -1    0    0  501    0  0.00000000000E+00 -0.00000000000E+00 -0.35588321010E+03  0.35588321010E+03  0.00000000000E+00 0. -1.
         25    2    1    2    0    0  0.19362059692E+01  0.98342044446E+01 -0.26605667602E+03  0.29416676711E+03  0.12508985388E+03 0.  0.
          5    1    3    3  502    0  0.34903800302E+02 -0.43636663006E+02 -0.17272275170E+03  0.18158484240E+03  0.41800000000E+01 0. -1.
         -5    1    3    3    0  502 -0.32967594332E+02  0.53470867451E+02 -0.93333924317E+02  0.11258192471E+03  0.41800000000E+01 0. -1.
        -11    1    1    2    0    0  0.69482345809E+01 -0.46764121239E+02 -0.27658411418E+02  0.54773613367E+02  0.00000000000E+00 0.  1.
         11    1    1    2    0    0 -0.88844405501E+01  0.36929916795E+02 -0.24117535484E+02  0.44993416809E+02  0.00000000000E+00 0. -1.
</event>
<event>
 7    1  0.2651429E-009  0.1450817E+03  0.7561462E-02  0.1206650E+00
         -1   -1    0    0    0  501 -0.00000000000E+00  0.00000000000E+00  0.33705060042E+03  0.33705060042E+03  0.00000000000E+00 0.  1.
          1   -1    0    0  501    0  0.00000000000E+00 -0.00000000000E+00 -0.75321914082E+02  0.75321914082E+02  0.00000000000E+00 0. -1.
         25    2    1    2    0    0  0.10724412270E+03 -0.24997641794E+02  0.14465067869E+03  0.22067869739E+03  0.12509630166E+03 0.  0.
          5    1    3    3  502    0 -0.13577424041E+02  0.30375286831E+02  0.25403702262E+02  0.42069287875E+02  0.41800000000E+01 0. -1.
         -5    1    3    3    0  502  0.12082154674E+03 -0.55372928625E+02  0.11924697643E+03  0.17860940952E+03  0.41800000000E+01 0. -1.
        -11    1    1    2    0    0 -0.20016068899E+02  0.30249780197E+02  0.94815075931E+02  0.10151645601E+03  0.00000000000E+00 0.  1.
         11    1    1    2    0    0 -0.87228053798E+02 -0.52521384028E+01  0.22262931716E+02  0.90177361105E+02  0.00000000000E+00 0. -1.
</event>
<event>
 7    1  0.2651429E-009  0.1868172E+03  0.7561462E-02  0.1161364E+00
          2   -1    0    0  501    0  0.00000000000E+00  0.00000000000E+00  0.16967173339E+04  0.16967173339E+04  0.00000000000E+00 0. -1.
         -2   -1    0    0    0  501 -0.00000000000E+00 -0.00000000000E+00 -0.25772340980E+02  0.25772340980E+02  0.00000000000E+00 0.  1.
         25    2    1    2    0    0  0.14021365689E+03 -0.58639378455E+02  0.12561893414E+04  0.12715173256E+04  0.12508477746E+03 0.  0.
          5    1    3    3  502    0  0.16088702996E+03 -0.34186272636E+02  0.10552071978E+04  0.10679574150E+04  0.41800000000E+01 0. -1.
         -5    1    3    3    0  502 -0.20673373077E+02 -0.24453105818E+02  0.20098214363E+03  0.20355991059E+03  0.41800000000E+01 0. -1.
        -11    1    1    2    0    0 -0.13268223939E+02  0.47566448054E+02  0.10513761874E+03  0.11615735715E+03  0.00000000000E+00 0.  1.
         11    1    1    2    0    0 -0.12694543295E+03  0.11072930401E+02  0.30961803279E+03  0.33481499214E+03  0.00000000000E+00 0. -1.
</event>
<event>
 7    1  0.2651429E-009  0.2597273E+03  0.7561462E-02  0.1107307E+00
          1   -1    0    0  501    0  0.00000000000E+00  0.00000000000E+00  0.79543929190E+02  0.79543929190E+02  0.00000000000E+00 0. -1.
         -1   -1    0    0    0  501 -0.00000000000E+00 -0.00000000000E+00 -0.11302244936E+04  0.11302244936E+04  0.00000000000E+00 0.  1.
         25    2    1    2    0    0  0.15510916523E+03 -0.17689771621E+03 -0.83535228975E+03  0.87682376017E+03  0.12511915631E+03 0.  0.
          5    1    3    3  502    0 -0.19142693014E+02 -0.39411105536E+02 -0.12005425656E+03  0.12786780226E+03  0.41800000000E+01 0. -1.
         -5    1    3    3    0  502  0.17425185825E+03 -0.13748661067E+03 -0.71529803319E+03  0.74895595792E+03  0.41800000000E+01 0. -1.
        -11    1    1    2    0    0 -0.10861183989E+01  0.60182115598E+02 -0.60242783306E+02  0.85160199809E+02  0.00000000000E+00 0. -1.
         11    1    1    2    0    0 -0.15402304684E+03  0.11671560061E+03 -0.15508549137E+03  0.24778446282E+03  0.00000000000E+00 0.  1.
</event>
<event>
 7    1  0.2651429E-009  0.1098553E+03  0.7561462E-02  0.1260838E+00
          1   -1    0    0  501    0  0.00000000000E+00  0.00000000000E+00  0.36033240136E+03  0.36033240136E+03  0.00000000000E+00 0.  1.
         -1   -1    0    0    0  501 -0.00000000000E+00 -0.00000000000E+00 -0.46288215048E+02  0.46288215048E+02  0.00000000000E+00 0. -1.
         25    2    1    2    0    0  0.21774354393E+02 -0.57314090157E+02  0.11861498281E+03  0.18296303681E+03  0.12508769425E+03 0.  0.
          5    1    3    3  502    0 -0.23025752753E+02  0.19887799980E+02  0.79864034722E+02  0.85565450504E+02  0.41800000000E+01 0. -1.
         -5    1    3    3    0  502  0.44800107146E+02 -0.77201890137E+02  0.38750948087E+02  0.97397586308E+02  0.41800000000E+01 0. -1.
        -11    1    1    2    0    0 -0.49710250438E+02  0.21344941030E+02  0.60060989837E+02  0.80833396603E+02  0.00000000000E+00 0. -1.
         11    1    1    2    0    0  0.27935896045E+02  0.35969149127E+02  0.13536821367E+03  0.14282418299E+03  0.00000000000E+00 0.  1.
</event>
<event>
 7    1  0.2651429E-009  0.1074107E+03  0.7561462E-02  0.1265441E+00
          2   -1    0    0  501    0  0.00000000000E+00  0.00000000000E+00  0.99087024277E+02  0.99087024277E+02  0.00000000000E+00 0. -1.
         -2   -1    0    0    0  501 -0.00000000000E+00 -0.00000000000E+00 -0.20148984783E+03  0.20148984783E+03  0.00000000000E+00 0.  1.
         25    2    1    2    0    0 -0.21645762298E+02  0.68165435185E+02 -0.11331240873E+03  0.18331245140E+03  0.12509471326E+03 0.  0.
          5    1    3    3  502    0  0.30800257460E+02 -0.22151085500E+02 -0.19487224412E+02  0.42854996951E+02  0.41800000000E+01 0.  1.
         -5    1    3    3    0  502 -0.52446019758E+02  0.90316520684E+02 -0.93825184316E+02  0.14045745444E+03  0.41800000000E+01 0.  1.
        -11    1    1    2    0    0  0.11591017690E+02 -0.50407906017E+02 -0.38057140856E+02  0.64215688505E+02  0.00000000000E+00 0.  1.
         11    1    1    2    0    0  0.10054744608E+02 -0.17757529168E+02  0.48966726028E+02  0.53048732211E+02  0.00000000000E+00 0. -1.
</event>
<event>
 7    1  0.2651429E-009  0.1987031E+03  0.7561462E-02  0.1150838E+00
         -2   -1    0    0    0  501 -0.00000000000E+00  0.00000000000E+00  0.20971617993E+03  0.20971617993E+03  0.00000000000E+00 0.  1.
          2   -1    0    0  501    0  0.00000000000E+00 -0.00000000000E+00 -0.26368283909E+03  0.26368283909E+03  0.00000000000E+00 0. -1.
         25    2    1    2    0    0  0.16193259393E+03  0.11052657169E+03 -0.98984739167E+02  0.25275474515E+03  0.12509474243E+03 0.  0.
          5    1    3    3  502    0  0.29290960531E+02  0.57527639096E+01  0.28122983482E+02  0.41224134452E+02  0.41800000000E+01 0. -1.
         -5    1    3    3    0  502  0.13264163340E+03  0.10477380778E+03 -0.12710772265E+03  0.21153061070E+03  0.41800000000E+01 0. -1.
        -11    1    1    2    0    0 -0.17360233216E+02 -0.21388289562E+01 -0.21840123072E+02  0.27981123323E+02  0.00000000000E+00 0. -1.
         11    1    1    2    0    0 -0.14457236071E+03 -0.10838774273E+03  0.66858203082E+02  0.19266315054E+03  0.00000000000E+00 0.  1.
</event>
<event>
 7    1  0.2651429E-009  0.1060018E+03  0.7561462E-02  0.1268158E+00
         -2   -1    0    0    0  501 -0.00000000000E+00  0.00000000000E+00  0.27808824867E+02  0.27808824867E+02  0.00000000000E+00 0. -1.
          2   -1    0    0  501    0  0.00000000000E+00 -0.00000000000E+00 -0.78253353030E+03  0.78253353030E+03  0.00000000000E+00 0.  1.
         25    2    1    2    0    0 -0.68093797353E+02  0.70388213966E+00 -0.67651404666E+03  0.69134380833E+03  0.12509094811E+03 0.  0.
          5    1    3    3  502    0 -0.22119935756E+02  0.52851216958E+02 -0.46786020628E+03  0.47137372403E+03  0.41800000000E+01 0.  1.
         -5    1    3    3    0  502 -0.45973861597E+02 -0.52147334818E+02 -0.20865384038E+03  0.21997008429E+03  0.41800000000E+01 0.  1.
        -11    1    1    2    0    0  0.75863462868E+01  0.19658163561E+02 -0.46140185221E+01  0.21570470822E+02  0.00000000000E+00 0. -1.
         11    1    1    2    0    0  0.60507451067E+02 -0.20362045701E+02 -0.73596640249E+02  0.97428076013E+02  0.00000000000E+00 0.  1.
</event>
<event>
 7    1  0.2651429E-009  0.8523899E+02  0.7561462E-02  0.1314809E+00
          1   -1    0    0  501    0  0.00000000000E+00  0.00000000000E+00  0.11001562302E+03  0.11001562302E+03  0.00000000000E+00 0. -1.
         -1   -1    0    0    0  501 -0.00000000000E+00 -0.00000000000E+00 -0.12788023010E+03  0.12788023010E+03  0.00000000000E+00 0.  1.
         25    2    1    2    0    0  0.37072081875E+02  0.30215292394E+02 -0.15565125513E+02  0.13482389512E+03  0.12509159210E+03 0.  0.
          5    1    3    3  502    0 -0.26769235570E+02 -0.23721313383E+02 -0.33567329745E+02  0.49229368346E+02  0.41800000000E+01 0.  1.
         -5    1    3    3    0  502  0.63841317445E+02  0.53936605777E+02  0.18002204232E+02  0.85594526770E+02  0.41800000000E+01 0.  1.
        -11    1    1    2    0    0 -0.15687028846E+02 -0.23719303195E+02 -0.45946814519E+02  0.54035155061E+02  0.00000000000E+00 0.  1.
         11    1    1    2    0    0 -0.21385053029E+02 -0.64959891994E+01  0.43647332950E+02  0.49036802938E+02  0.00000000000E+00 0. -1.
</event>
<event>
 7    1  0.2651429E-009  0.1520583E+03  0.7561462E-02  0.1197966E+00
          1   -1    0    0  501    0  0.00000000000E+00  0.00000000000E+00  0.32680086555E+02  0.32680086555E+02  0.00000000000E+00 0. -1.
         -1   -1    0    0    0  501 -0.00000000000E+00 -0.00000000000E+00 -0.88253156192E+03  0.88253156192E+03  0.00000000000E+00 0.  1.
         25    2    1    2    0    0 -0.58806904704E+02 -0.11006737447E+03 -0.35144189739E+03  0.39336042421E+03  0.12509171489E+03 0.  0.
          5    1    3    3  502    0  0.57969981605E+01 -0.11165434848E+03 -0.21791090701E+03  0.24495496426E+03  0.41800000000E+01 0. -1.
         -5    1    3    3    0  502 -0.64603902864E+02  0.15869740123E+01 -0.13353099038E+03  0.14840545995E+03  0.41800000000E+01 0. -1.
        -11    1    1    2    0    0  0.39743941970E+02  0.95637102195E+02 -0.48163645991E+03  0.49264562898E+03  0.00000000000E+00 0.  1.
         11    1    1    2    0    0  0.19062962734E+02  0.14430272271E+02 -0.16773118061E+02  0.29205595277E+02  0.00000000000E+00 0. -1.
</event>
<event>
 7    1  0.4301169E-009  0.2127530E+03  0.7561462E-02  0.1139404E+00
          1   -1    0    0  501    0  0.00000000000E+00  0.00000000000E+00  0.78287981099E+03  0.78287981099E+03  0.00000000000E+00 0. -1.
         -1   -1    0    0    0  501 -0.00000000000E+00 -0.00000000000E+00 -0.60005834426E+02  0.60005834426E+02  0.00000000000E+00 0.  1.
         25    2    1    2    0    0  0.23089249541E+02 -0.18411526663E+03  0.32718446064E+03  0.39639466779E+03  0.12509003366E+03 0.  0.
          5    1    3    3  502    0 -0.44813946166E+02 -0.10938813329E+03  0.21510991500E+03  0.24548686606E+03  0.41800000000E+01 0.  1.
         -5    1    3    3    0  502  0.67903195707E+02 -0.74727133335E+02  0.11207454564E+03  0.15090780173E+03  0.41800000000E+01 0.  1.
        -11    1    1    2    0    0 -0.57134441020E+02  0.13294705661E+03  0.29375773925E+03  0.32746430887E+03  0.00000000000E+00 0.  1.
         11    1    1    2    0    0  0.34045191479E+02  0.51168210022E+02  0.10193177667E+03  0.11902666875E+03  0.00000000000E+00 0. -1.
</event>
<event>
 7    1  0.2651429E-009  0.1236653E+03  0.7561462E-02  0.1237170E+00
          2   -1    0    0  501    0  0.00000000000E+00  0.00000000000E+00  0.87388739013E+03  0.87388739013E+03  0.00000000000E+00 0. -1.
         -2   -1    0    0    0  501 -0.00000000000E+00 -0.00000000000E+00 -0.23026102322E+02  0.23026102322E+02  0.00000000000E+00 0.  1.
         25    2    1    2    0    0 -0.80324418414E+02  0.11928839419E+02  0.34898660016E+03  0.37951968002E+03  0.12509688654E+03 0.  0.
          5    1    3    3  502    0 -0.10094668080E+03  0.13568548433E+02  0.16240190226E+03  0.19174511240E+03  0.41800000000E+01 0.  1.
         -5    1    3    3    0  502  0.20622262386E+02 -0.16397090132E+01  0.18658469790E+03  0.18777456761E+03  0.41800000000E+01 0.  1.
        -11    1    1    2    0    0  0.10750434737E+02 -0.45700332222E+02  0.22948489557E+03  0.23423793353E+03  0.00000000000E+00 0.  1.
         11    1    1    2    0    0  0.69573983677E+02  0.33771492803E+02  0.27238979208E+03  0.28315587891E+03  0.00000000000E+00 0. -1.
</event>
<event>
 7    1  0.2651429E-009  0.9379045E+02  0.7561462E-02  0.1293924E+00
         -1   -1    0    0    0  501 -0.00000000000E+00  0.00000000000E+00  0.66406539556E+02  0.66406539556E+02  0.00000000000E+00 0.  1.
          1   -1    0    0  501    0  0.00000000000E+00 -0.00000000000E+00 -0.21441900882E+03  0.21441900882E+03  0.00000000000E+00 0. -1.
         25    2    1    2    0    0  0.16995122171E+02 -0.15214470621E+02 -0.32838826572E+02  0.13132651336E+03  0.12509176746E+03 0.  0.
          5    1    3    3  502    0  0.54596113699E+02 -0.23889239271E+02  0.22410807469E+02  0.63805548938E+02  0.41800000000E+01 0. -1.
         -5    1    3    3    0  502 -0.37600991528E+02  0.86747686496E+01 -0.55249634040E+02  0.67520964423E+02  0.41800000000E+01 0. -1.
        -11    1    1    2    0    0 -0.51931720290E+02  0.30087365890E+01 -0.39688742564E+02  0.65430515469E+02  0.00000000000E+00 0.  1.
         11    1    1    2    0    0  0.34936598120E+02  0.12205734032E+02 -0.75484900127E+02  0.84068519546E+02  0.00000000000E+00 0. -1.
</event>
<event>
 7    1  0.2651429E-009  0.1367782E+03  0.7561462E-02  0.1217731E+00
         -2   -1    0    0    0  501 -0.00000000000E+00  0.00000000000E+00  0.45599354859E+02  0.45599354859E+02  0.00000000000E+00 0.  1.
          2   -1    0    0  501    0  0.00000000000E+00 -0.00000000000E+00 -0.55977525946E+03  0.55977525946E+03  0.00000000000E+00 0. -1.
         25    2    1    2    0    0 -0.67865777706E+02 -0.49746545497E+02 -0.12192777903E+03  0.19389420271E+03  0.12509234978E+03 0.  0.
          5    1    3    3  502    0 -0.82588674848E+02 -0.80445823248E+02 -0.83702791897E+02  0.14253437993E+03  0.41800000000E+01 0.  1.
         -5    1    3    3    0  502  0.14722897141E+02  0.30699277751E+02 -0.38224987134E+02  0.51359822781E+02  0.41800000000E+01 0.  1.
        -11    1    1    2    0    0  0.90418761544E+02  0.35094693988E+02 -0.32063902905E+03  0.33498742803E+03  0.00000000000E+00 0.  1.
         11    1    1    2    0    0 -0.22552983838E+02  0.14651851510E+02 -0.71609096513E+02  0.76492983574E+02  0.00000000000E+00 0. -1.
</event>
<event>
 7    1  0.2651429E-009  0.3622439E+03  0.7561462E-02  0.1057699E+00
         -1   -1    0    0    0  501 -0.00000000000E+00  0.00000000000E+00  0.26676638267E+03  0.26676638267E+03  0.00000000000E+00 0.  1.
          1   -1    0    0  501    0  0.00000000000E+00 -0.00000000000E+00 -0.51173772205E+03  0.51173772205E+03  0.00000000000E+00 0. -1.
         25    2    1    2    0    0  0.79251551153E+02  0.33900369749E+03 -0.66544716985E+02  0.37587303340E+03  0.12509205653E+03 0.  0.
          5    1    3    3  502    0  0.90090404278E+02  0.15557208822E+03  0.16492323235E+01  0.17983088707E+03  0.41800000000E+01 0.  1.
         -5    1    3    3    0  502 -0.10838853125E+02  0.18343160927E+03 -0.68193949308E+02  0.19604214634E+03  0.41800000000E+01 0.  1.
        -11    1    1    2    0    0 -0.10092437231E+03 -0.25872918465E+03 -0.14068074168E+03  0.31131590226E+03  0.00000000000E+00 0. -1.
         11    1    1    2    0    0  0.21672821162E+02 -0.80274512840E+02 -0.37745880721E+02  0.91315169059E+02  0.00000000000E+00 0.  1.
</event>
<event>
 7    1  0.2651429E-009  0.2105264E+03  0.7561462E-02  0.1141150E+00
         -1   -1    0    0    0  501 -0.00000000000E+00  0.00000000000E+00  0.88366883811E+03  0.88366883811E+03  0.00000000000E+00 0.  1.
          1   -1    0    0  501    0  0.00000000000E+00 -0.00000000000E+00 -0.65119536060E+02  0.65119536060E+02  0.00000000000E+00 0. -1.
         25    2    1    2    0    0  0.14449071064E+03 -0.12275198439E+03  0.22732151424E+03  0.32135388555E+03  0.12509050237E+03 0.  0.
          5    1    3    3  502    0  0.15984525952E+03 -0.76346188762E+02  0.18927118966E+03  0.25926878556E+03  0.41800000000E+01 0.  1.
         -5    1    3    3    0  502 -0.15354548879E+02 -0.46405795633E+02  0.38050324584E+02  0.62085099988E+02  0.41800000000E+01 0.  1.
        -11    1    1    2    0    0 -0.11757264029E+03  0.73445828020E+02  0.29527780975E+03  0.32620024575E+03  0.00000000000E+00 0.  1.
         11    1    1    2    0    0 -0.26918070353E+02  0.49306156375E+02  0.29594997806E+03  0.30123424287E+03  0.00000000000E+00 0. -1.
</event>
<event>
 7    1  0.2651429E-009  0.1382872E+03  0.7561462E-02  0.1215652E+00
          1   -1    0    0  501    0  0.00000000000E+00  0.00000000000E+00  0.87182835272E+03  0.87182835272E+03  0.00000000000E+00 0. -1.
         -1   -1    0    0    0  501 -0.00000000000E+00 -0.00000000000E+00 -0.27727634254E+02  0.27727634254E+02  0.00000000000E+00 0.  1.
         25    2    1    2    0    0  0.76373088538E+02  0.64816680221E+02  0.31285628263E+03  0.35151626557E+03  0.12510228092E+03 0.  0.
          5    1    3    3  502    0  0.58066032580E+02  0.92266575534E+02  0.29330277784E+03  0.31293573939E+03  0.41800000000E+01 0.  1.
         -5    1    3    3    0  502  0.18307055958E+02 -0.27449895313E+02  0.19553504789E+02  0.38580526177E+02  0.41800000000E+01 0.  1.
        -11    1    1    2    0    0 -0.43141966998E+02  0.16643415798E+02  0.20403700977E+03  0.20921121853E+03  0.00000000000E+00 0. -1.
         11    1    1    2    0    0 -0.33231121540E+02 -0.81460096019E+02  0.32720742607E+03  0.33882850287E+03  0.00000000000E+00 0.  1.
</event>
<event>
 7    1  0.2651429E-009  0.9450815E+02  0.7561462E-02  0.1292288E+00
          3   -1    0    0  501    0  0.00000000000E+00  0.00000000000E+00  0.16502571959E+03  0.16502571959E+03  0.00000000000E+00 0. -1.
         -3   -1    0    0    0  501 -0.00000000000E+00 -0.00000000000E+00 -0.84424445708E+02  0.84424445708E+02  0.00000000000E+00 0.  1.
         25    2    1    2    0    0 -0.15670460730E+02 -0.30181380775E+02  0.29816406684E+02  0.13300695905E+03  0.12508138936E+03 0.  0.
          5    1    3    3  502    0 -0.64859925002E+01  0.26197967704E+02  0.61686519121E+02  0.67461845897E+02  0.41800000000E+01 0. -1.
         -5    1    3    3    0  502 -0.91844682300E+01 -0.56379348479E+02 -0.31870112437E+02  0.65545113154E+02  0.41800000000E+01 0. -1.
        -11    1    1    2    0    0  0.43828312039E+02  0.52579290227E+02  0.28683151870E+02  0.74217423144E+02  0.00000000000E+00 0.  1.
         11    1    1    2    0    0 -0.28157851309E+02 -0.22397909453E+02  0.22101715325E+02  0.42225783101E+02  0.00000000000E+00 0. -1.
</event>
<event>
 7    1  0.2651429E-009  0.1085072E+03  0.7561462E-02  0.1263360E+00
         -2   -1    0    0    0  501 -0.00000000000E+00  0.00000000000E+00  0.13947452574E+02  0.13947452574E+02  0.00000000000E+00 0. -1.
          2   -1    0    0  501    0  0.00000000000E+00 -0.00000000000E+00 -0.13166027914E+04  0.13166027914E+04  0.00000000000E+00 0.  1.
         25    2    1    2    0    0 -0.36558989428E+02 -0.29004403245E+02 -0.10434890135E+04  0.10519955568E+04  0.12509002808E+03 0.  0.
          5    1    3    3  502    0 -0.76215807945E+02 -0.16306385202E+02 -0.42610249363E+03  0.43319228416E+03  0.41800000000E+01 0.  1.
         -5    1    3    3    0  502  0.39656818516E+02 -0.12698018043E+02 -0.61738651985E+03  0.61880327263E+03  0.41800000000E+01 0.  1.
        -11    1    1    2    0    0  0.10023004806E+02  0.57387789170E+02 -0.11076314367E+03  0.12514908297E+03  0.00000000000E+00 0. -1.
         11    1    1    2    0    0  0.26535984622E+02 -0.28383385925E+02 -0.14840318170E+03  0.15340560425E+03  0.00000000000E+00 0.  1.
</event>
<event>
 7    1  0.2651429E-009  0.1109788E+03  0.7561462E-02  0.1258768E+00
          2   -1    0    0  501    0  0.00000000000E+00  0.00000000000E+00  0.24825683247E+03  0.24825683247E+03  0.00000000000E+00 0. -1.
         -2   -1    0    0    0  501 -0.00000000000E+00 -0.00000000000E+00 -0.54851533970E+02  0.54851533970E+02  0.00000000000E+00 0.  1.
         25    2    1    2    0    0  0.34665726527E+02 -0.23787744410E+02  0.13199856932E+03  0.18665238092E+03  0.12509164489E+03 0.  0.
          5    1    3    3  502    0  0.69314575600E+02 -0.45622965286E+02  0.11554826628E+03  0.14231949829E+03  0.41800000000E+01 0.  1.
         -5    1    3    3    0  502 -0.34648849073E+02  0.21835220876E+02  0.16450303040E+02  0.44332882637E+02  0.41800000000E+01 0.  1.
        -11    1    1    2    0    0  0.29790204706E+02  0.28254612692E+01  0.10588963660E+02  0.31742175086E+02  0.00000000000E+00 0.  1.
         11    1    1    2    0    0 -0.64455931233E+02  0.20962283141E+02  0.50817765524E+02  0.84713810435E+02  0.00000000000E+00 0. -1.
</event>
<event>
 7    1  0.2651429E-009  0.1447023E+03  0.7561462E-02  0.1207138E+00
         -2   -1    0    0    0  501 -0.00000000000E+00  0.00000000000E+00  0.15280324055E+03  0.15280324055E+03  0.00000000000E+00 0. -1.
          2   -1    0    0  501    0  0.00000000000E+00 -0.00000000000E+00 -0.19234795483E+03  0.19234795483E+03  0.00000000000E+00 0.  1.
         25    2    1    2    0    0 -0.12358236387E+03 -0.11235447933E+02 -0.56490290617E+02  0.18503212689E+03  0.12508756572E+03 0.  0.
          5    1    3    3  502    0 -0.97957204318E+02  0.15666932763E+02 -0.90606944652E+02  0.13441784658E+03  0.41800000000E+01 0. -1.
         -5    1    3    3    0  502 -0.25625159553E+02 -0.26902380696E+02  0.34116654035E+02  0.50614280314E+02  0.41800000000E+01 0. -1.
        -11    1    1    2    0    0  0.10283684439E+03 -0.29524103354E+02 -0.92891561003E+01  0.10739356435E+03  0.00000000000E+00 0.  1.
         11    1    1    2    0    0  0.20745519480E+02  0.40759551287E+02  0.26234732444E+02  0.52725504132E+02  0.00000000000E+00 0. -1.
</event>
<event>
 7    1  0.2651429E-009  0.1023614E+03  0.7561462E-02  0.1275407E+00
          1   -1    0    0  501    0  0.00000000000E+00  0.00000000000E+00  0.29305342249E+03  0.29305342249E+03  0.00000000000E+00 0.  1.
         -1   -1    0    0    0  501 -0.00000000000E+00 -0.00000000000E+00 -0.42276485635E+02  0.42276485635E+02  0.00000000000E+00 0. -1.
         25    2    1    2    0    0 -0.23842833277E+02  0.12268002378E+02  0.13457734836E+03  0.18567996599E+03  0.12508797902E+03 0.  0.
          5    1    3    3  502    0 -0.70903787689E+02 -0.10343465575E+02  0.55061642815E+02  0.90463204112E+02  0.41800000000E+01 0.  1.
         -5    1    3    3    0  502  0.47060954412E+02  0.22611467954E+02  0.79515705549E+02  0.95216761876E+02  0.41800000000E+01 0.  1.
        -11    1    1    2    0    0 -0.39767002640E+01  0.29838160171E+02  0.85346686514E+02  0.90499651084E+02  0.00000000000E+00 0.  1.
         11    1    1    2    0    0  0.27819533541E+02 -0.42106162550E+02  0.30852901974E+02  0.59150291050E+02  0.00000000000E+00 0. -1.
</event>
<event>
 7    1  0.2651429E-009  0.1367058E+03  0.7561462E-02  0.1217832E+00
         -2   -1    0    0    0  501 -0.00000000000E+00  0.00000000000E+00  0.23944382852E+02  0.23944382852E+02  0.00000000000E+00 0.  1.
          2   -1    0    0  501    0  0.00000000000E+00 -0.00000000000E+00 -0.93406129607E+03  0.93406129607E+03  0.00000000000E+00 0. -1.
         25    2    1    2    0    0  0.10340257219E+03 -0.65508907526E+01 -0.49068985573E+03  0.51686500899E+03  0.12505157694E+03 0.  0.
          5    1    3    3  502    0  0.81359378725E+02 -0.61993292883E+02 -0.32240627499E+03  0.33826882124E+03  0.41800000000E+01 0. -1.
         -5    1    3    3    0  502  0.22043193466E+02  0.55442402130E+02 -0.16828358074E+03  0.17859618775E+03  0.41800000000E+01 0. -1.
        -11    1    1    2    0    0 -0.21185757860E+02  0.18528627979E+02 -0.23726490546E+02  0.36811584379E+02  0.00000000000E+00 0.  1.
         11    1    1    2    0    0 -0.82216814331E+02 -0.11977737226E+02 -0.39570056694E+03  0.40432908556E+03  0.00000000000E+00 0. -1.
</event>
<event>
 7    1  0.2651429E-009  0.1576941E+03  0.7561462E-02  0.1191325E+00
          2   -1    0    0  501    0  0.00000000000E+00  0.00000000000E+00  0.28564446734E+03  0.28564446734E+03  0.00000000000E+00 0. -1.
         -2   -1    0    0    0  501 -0.00000000000E+00 -0.00000000000E+00 -0.99292637193E+02  0.99292637193E+02  0.00000000000E+00 0.  1.
         25    2    1    2    0    0 -0.24226180912E+02  0.11964610537E+03  0.14509206215E+03  0.22714323387E+03  0.12506096043E+03 0.  0.
          5    1    3    3  502    0 -0.61495732584E+02  0.24710173547E+02  0.28729666414E+02  0.72354570934E+02  0.41800000000E+01 0.  1.
         -5    1    3    3    0  502  0.37269551672E+02  0.94935931819E+02  0.11636239573E+03  0.15478866293E+03  0.41800000000E+01 0.  1.
        -11    1    1    2    0    0  0.30220781171E+02 -0.32933641596E+01  0.26550856865E+02  0.40361985362E+02  0.00000000000E+00 0. -1.
         11    1    1    2    0    0 -0.59946002583E+01 -0.11635274121E+03  0.14708911131E+02  0.11743188530E+03  0.00000000000E+00 0.  1.
</event>
<event>
 7    1  0.2651429E-009  0.9611963E+02  0.7561462E-02  0.1288674E+00
          2   -1    0    0  501    0  0.00000000000E+00  0.00000000000E+00  0.56293986221E+02  0.56293986221E+02  0.00000000000E+00 0. -1.
         -2   -1    0    0    0  501 -0.00000000000E+00 -0.00000000000E+00 -0.23256483562E+03  0.23256483562E+03  0.00000000000E+00 0.  1.
         25    2    1    2    0    0 -0.83475907623E+00  0.31151213469E+02 -0.11378908624E+03  0.17192105905E+03  0.12505118742E+03 0.  0.
          5    1    3    3  502    0  0.19167968685E+02 -0.45159996100E+02 -0.35506236025E+02  0.60704212934E+02  0.41800000000E+01 0. -1.
         -5    1    3    3    0  502 -0.20002727761E+02  0.76311209569E+02 -0.78282850211E+02  0.11121684612E+03  0.41800000000E+01 0. -1.
        -11    1    1    2    0    0 -0.10986518003E+02 -0.44694696595E+02  0.57450215527E+01  0.46382375469E+02  0.00000000000E+00 0. -1.
         11    1    1    2    0    0  0.11821277079E+02  0.13543483126E+02 -0.68226784711E+02  0.70555387314E+02  0.00000000000E+00 0.  1.
</event>
<event>
 7    1  0.2651429E-009  0.1250838E+03  0.7561462E-02  0.1234938E+00
         -1   -1    0    0    0  501 -0.00000000000E+00  0.00000000000E+00  0.20621918134E+02  0.20621918134E+02  0.00000000000E+00 0. -1.
          1   -1    0    0  501    0  0.00000000000E+00 -0.00000000000E+00 -0.93252143726E+03  0.93252143726E+03  0.00000000000E+00 0.  1.
         25    2    1    2    0    0  0.21624659012E+02  0.69223539302E+02 -0.65171589964E+03  0.66756384023E+03  0.12509333586E+03 0.  0.
          5    1    3    3  502    0 -0.94302599171E+00  0.10336432426E+03 -0.46403220199E+03  0.47542447319E+03  0.41800000000E+01 0.  1.
         -5    1    3    3    0  502  0.22567685003E+02 -0.34140784958E+02 -0.18768369765E+03  0.19213936704E+03  0.41800000000E+01 0.  1.
        -11    1    1    2    0    0 -0.26678155101E+02  0.82603433056E+01 -0.23549401266E+02  0.36531240482E+02  0.00000000000E+00 0.  1.
         11    1    1    2    0    0  0.50534960898E+01 -0.77483882607E+02 -0.23663421822E+03  0.24904827468E+03  0.00000000000E+00 0. -1.
</event>
<event>
 7    1  0.2651429E-009  0.1109366E+03  0.7561462E-02  0.1258845E+00
         -1   -1    0    0    0  501 -0.00000000000E+00  0.00000000000E+00  0.35656384238E+03  0.35656384238E+03  0.00000000000E+00 0.  1.
          1   -1    0    0  501    0  0.00000000000E+00 -0.00000000000E+00 -0.57940373881E+02  0.57940373881E+02  0.00000000000E+00 0. -1.
         25    2    1    2    0    0  0.40165322043E+02  0.19327074812E+02  0.43120339226E+02  0.13962404549E+03  0.12509485004E+03 0.  0.
          5    1    3    3  502    0  0.75018318035E+02 -0.15579516060E+02  0.45498101806E+01  0.76867694997E+02  0.41800000000E+01 0.  1.
         -5    1    3    3    0  502 -0.34852995993E+02  0.34906590872E+02  0.38570529045E+02  0.62756350490E+02  0.41800000000E+01 0.  1.
        -11    1    1    2    0    0 -0.64159247493E+02  0.10334743828E+01  0.20978177352E+03  0.21937609170E+03  0.00000000000E+00 0.  1.
         11    1    1    2    0    0  0.23993925450E+02 -0.20360549195E+02  0.45721355756E+02  0.55504079077E+02  0.00000000000E+00 0. -1.
</event>
<event>
 7    1  0.2651429E-009  0.1175452E+03  0.7561462E-02  0.1247203E+00
         -3   -1    0    0    0  501 -0.00000000000E+00  0.00000000000E+00  0.63073284567E+02  0.63073284567E+02  0.00000000000E+00 0.  1.
          3   -1    0    0  501    0  0.00000000000E+00 -0.00000000000E+00 -0.28653226677E+03  0.28653226677E+03  0.00000000000E+00 0. -1.
         25    2    1    2    0    0  0.17622172944E+02 -0.73742357220E+02 -0.14992506998E+03  0.20946004120E+03  0.12508999170E+03 0.  0.
          5    1    3    3  502    0 -0.14493953658E+02 -0.99132795431E+02 -0.79802483322E+02  0.12815340248E+03  0.41800000000E+01 0. -1.
         -5    1    3    3    0  502  0.32116126602E+02  0.25390438211E+02 -0.70122586660E+02  0.81306638722E+02  0.41800000000E+01 0. -1.
        -11    1    1    2    0    0 -0.36481661208E+02  0.60395506512E+02 -0.88069906797E+02  0.11284873634E+03  0.00000000000E+00 0. -1.
         11    1    1    2    0    0  0.18859488263E+02  0.13346850708E+02  0.14535994572E+02  0.27296773794E+02  0.00000000000E+00 0.  1.
</event>
<event>
 7    1  0.2651429E-009  0.1458773E+03  0.7561462E-02  0.1205632E+00
         -1   -1    0    0    0  501 -0.00000000000E+00  0.00000000000E+00  0.55411183014E+03  0.55411183014E+03  0.00000000000E+00 0.  1.
          1   -1    0    0  501    0  0.00000000000E+00 -0.00000000000E+00 -0.52964763068E+02  0.52964763068E+02  0.00000000000E+00 0. -1.
         25    2    1    2    0    0  0.59479174671E+02  0.10599457140E+03  0.35759249811E+03  0.39785839315E+03  0.12508511067E+03 0.  0.
          5    1    3    3  502    0 -0.27053015539E+02  0.25531115036E+02  0.18436478341E+03  0.18812641826E+03  0.41800000000E+01 0. -1.
         -5    1    3    3    0  502  0.86532190210E+02  0.80463456362E+02  0.17322771469E+03  0.20973197489E+03  0.41800000000E+01 0. -1.
        -11    1    1    2    0    0 -0.29901063635E+02 -0.43374381546E+01 -0.77122928511E+00  0.30223860952E+02  0.00000000000E+00 0. -1.
         11    1    1    2    0    0 -0.29578111036E+02 -0.10165713324E+03  0.14432579825E+03  0.17899433911E+03  0.00000000000E+00 0.  1.
</event>
<event>
 7    1  0.2651429E-009  0.1422659E+03  0.7561462E-02  0.1210312E+00
         -1   -1    0    0    0  501 -0.00000000000E+00  0.00000000000E+00  0.45564239936E+02  0.45564239936E+02  0.00000000000E+00 0.  1.
          1   -1    0    0  501    0  0.00000000000E+00 -0.00000000000E+00 -0.52633741493E+03  0.52633741493E+03  0.00000000000E+00 0. -1.
         25    2    1    2    0    0 -0.66537260664E+02  0.82389334090E+02 -0.31584943631E+03  0.35584329420E+03  0.12509346180E+03 0.  0.
          5    1    3    3  502    0 -0.36200361369E+02 -0.17910617683E+02 -0.27566186314E+02  0.49077728319E+02  0.41800000000E+01 0. -1.
         -5    1    3    3    0  502 -0.30336899295E+02  0.10029995177E+03 -0.28828324999E+03  0.30676556588E+03  0.41800000000E+01 0. -1.
        -11    1    1    2    0    0  0.49173298620E+02  0.54893442366E+01 -0.49942348325E+02  0.70302093521E+02  0.00000000000E+00 0. -1.
         11    1    1    2    0    0  0.17363962044E+02 -0.87878678326E+02 -0.11498139036E+03  0.14575626715E+03  0.00000000000E+00 0.  1.
</event>
<event>
 7    1  0.2651429E-009  0.8010781E+02  0.7561462E-02  0.1328746E+00
          1   -1    0    0  501    0  0.00000000000E+00  0.00000000000E+00  0.58705559766E+02  0.58705559766E+02  0.00000000000E+00 0.  1.
         -1   -1    0    0    0  501 -0.00000000000E+00 -0.00000000000E+00 -0.24708432239E+03  0.24708432239E+03  0.00000000000E+00 0. -1.
         25    2    1    2    0    0 -0.45114463610E+01  0.38568774184E+02 -0.15495576453E+03  0.20289908041E+03  0.12509534115E+03 0.  0.
          5    1    3    3  502    0  0.31841564134E+02 -0.92565477805E+01  0.32891375890E+01  0.33583622636E+02  0.41800000000E+01 0. -1.
         -5    1    3    3    0  502 -0.36353010495E+02  0.47825321964E+02 -0.15824490212E+03  0.16931545777E+03  0.41800000000E+01 0. -1.
        -11    1    1    2    0    0 -0.24341299779E+02 -0.24269932464E+02 -0.54478777749E+02  0.64416346697E+02  0.00000000000E+00 0. -1.
         11    1    1    2    0    0  0.28852746140E+02 -0.14298841719E+02  0.21055779659E+02  0.38474455050E+02  0.00000000000E+00 0.  1.
</event>
<event>
 7    1  0.2651429E-009  0.1182415E+03  0.7561462E-02  0.1246027E+00
          1   -1    0    0  501    0  0.00000000000E+00  0.00000000000E+00  0.79721614220E+02  0.79721614220E+02  0.00000000000E+00 0. -1.
         -1   -1    0    0    0  501 -0.00000000000E+00 -0.00000000000E+00 -0.26100020658E+03  0.26100020658E+03  0.00000000000E+00 0.  1.
         25    2    1    2    0    0  0.83843771337E+02 -0.25498352210E+02 -0.14684655583E+03  0.21186775174E+03  0.12507633394E+03 0.  0.
          5    1    3    3  502    0  0.90519681461E+02 -0.42775629146E+01 -0.16126537593E+03  0.18503000878E+03  0.41800000000E+01 0.  1.
         -5    1    3    3    0  502 -0.66759101243E+01 -0.21220789295E+02  0.14418820098E+02  0.26837742963E+02  0.41800000000E+01 0.  1.
        -11    1    1    2    0    0 -0.69633544794E+02 -0.22416545784E+02 -0.12235374616E+02  0.74168972471E+02  0.00000000000E+00 0.  1.
         11    1    1    2    0    0 -0.14210226543E+02  0.47914897994E+02 -0.22196661913E+02  0.54685096583E+02  0.00000000000E+00 0. -1.
</event>
<event>
 7    1  0.2651429E-009  0.1071148E+03  0.7561462E-02  0.1266008E+00
         -2   -1    0    0    0  501 -0.00000000000E+00  0.00000000000E+00  0.92879794450E+01  0.92879794450E+01  0.00000000000E+00 0.  1.
          2   -1    0    0  501    0  0.00000000000E+00 -0.00000000000E+00 -0.26928514599E+04  0.26928514599E+04  0.00000000000E+00 0. -1.
         25    2    1    2    0    0  0.33082760271E+02  0.33256206885E+02 -0.23370655265E+04  0.23408807044E+04  0.12508698078E+03 0.  0.
          5    1    3    3  502    0 -0.29782496988E+02  0.51398938327E+02 -0.15291751083E+04  0.15303342224E+04  0.41800000000E+01 0.  1.
         -5    1    3    3    0  502  0.62865257259E+02 -0.18142731441E+02 -0.80789041816E+03  0.81054648197E+03  0.41800000000E+01 0.  1.
        -11    1    1    2    0    0  0.12135948384E+02 -0.41422882302E+02 -0.25756010594E+03  0.26115195690E+03  0.00000000000E+00 0. -1.
         11    1    1    2    0    0 -0.45218708655E+02  0.81666754167E+01 -0.88937847986E+02  0.10010677801E+03  0.00000000000E+00 0.  1.
</event>
<event>
 7    1  0.2651429E-009  0.1282286E+03  0.7561462E-02  0.1230108E+00
          1   -1    0    0  501    0  0.00000000000E+00  0.00000000000E+00  0.17941295165E+03  0.17941295165E+03  0.00000000000E+00 0. -1.
         -1   -1    0    0    0  501 -0.00000000000E+00 -0.00000000000E+00 -0.10352966742E+03  0.10352966742E+03  0.00000000000E+00 0.  1.
         25    2    1    2    0    0 -0.74682018342E+02  0.40077312572E+01  0.79453289689E+02  0.16598866180E+03  0.12508375127E+03 0.  0.
          5    1    3    3  502    0 -0.73904432363E+02  0.54361311034E+02  0.67731542480E+02  0.11411420379E+03  0.41800000000E+01 0. -1.
         -5    1    3    3    0  502 -0.77758597850E+00 -0.50353579777E+02  0.11721747209E+02  0.51874458011E+02  0.41800000000E+01 0. -1.
        -11    1    1    2    0    0  0.47634334726E+02  0.40152564774E+02 -0.14644503666E+02  0.63997810825E+02  0.00000000000E+00 0.  1.
         11    1    1    2    0    0  0.27047683616E+02 -0.44160296032E+02  0.11074498208E+02  0.52956146434E+02  0.00000000000E+00 0. -1.
</event>
<event>
 7    1  0.2651429E-009  0.1689081E+03  0.7561462E-02  0.1178991E+00
         -1   -1    0    0    0  501 -0.00000000000E+00  0.00000000000E+00  0.19559987817E+03  0.19559987817E+03  0.00000000000E+00 0.  1.
          1   -1    0    0  501    0  0.00000000000E+00 -0.00000000000E+00 -0.30059999972E+03  0.30059999972E+03  0.00000000000E+00 0. -1.
         25    2    1    2    0    0  0.14436527884E+03  0.29408799717E+02 -0.21547755652E+03  0.28945324895E+03  0.12508554963E+03 0.  0.
          5    1    3    3  502    0  0.80867430731E+01 -0.36981885840E+02 -0.67885233367E+02  0.77839145699E+02  0.41800000000E+01 0.  1.
         -5    1    3    3    0  502  0.13627853576E+03  0.66390685558E+02 -0.14759232316E+03  0.21161410325E+03  0.41800000000E+01 0.  1.
        -11    1    1    2    0    0 -0.58358196859E+02 -0.44516759825E+01 -0.70900205429E+01  0.58955618485E+02  0.00000000000E+00 0. -1.
         11    1    1    2    0    0 -0.86007081977E+02 -0.24957123735E+02  0.11756745552E+03  0.14779101046E+03  0.00000000000E+00 0.  1.
</event>
<event>
 7    1  0.2651429E-009  0.1090228E+03  0.7561462E-02  0.1262390E+00
          1   -1    0    0  501    0  0.00000000000E+00  0.00000000000E+00  0.64666642262E+03  0.64666642262E+03  0.00000000000E+00 0. -1.
         -1   -1    0    0    0  501 -0.00000000000E+00 -0.00000000000E+00 -0.20455064976E+02  0.20455064976E+02  0.00000000000E+00 0.  1.
         25    2    1    2    0    0 -0.77667266386E+01 -0.29053277958E+01  0.25550245124E+03  0.28459817325E+03  0.12508339082E+03 0.  0.
          5    1    3    3  502    0  0.37087419939E+02  0.45611154322E+02  0.11199609002E+03  0.12655611679E+03  0.41800000000E+01 0. -1.
         -5    1    3    3    0  502 -0.44854146577E+02 -0.48516482118E+02  0.14350636121E+03  0.15804205646E+03  0.41800000000E+01 0. -1.
        -11    1    1    2    0    0  0.49317439532E+02 -0.79630005776E+01  0.16583385653E+03  0.17319493986E+03  0.00000000000E+00 0. -1.
         11    1    1    2    0    0 -0.41550712894E+02  0.10868328373E+02  0.20487504988E+03  0.20932837449E+03  0.00000000000E+00 0.  1.
</event>
<event>
 7    1  0.2651429E-009  0.1407511E+03  0.7561462E-02  0.1212322E+00
          2   -1    0    0  501    0  0.00000000000E+00  0.00000000000E+00  0.36715982239E+02  0.36715982239E+02  0.00000000000E+00 0. -1.
         -2   -1    0    0    0  501 -0.00000000000E+00 -0.00000000000E+00 -0.72368497874E+03  0.72368497874E+03  0.00000000000E+00 0.  1.
         25    2    1    2    0    0  0.87412936305E+02  0.48611741021E+02 -0.20464449192E+03  0.25986683962E+03  0.12508910209E+03 0.  0.
          5    1    3    3  502    0 -0.16213689999E+02  0.41713573585E+02 -0.22770393400E+02  0.50387192621E+02  0.41800000000E+01 0. -1.
         -5    1    3    3    0  502  0.10362662630E+03  0.68981674359E+01 -0.18187409852E+03  0.20947964700E+03  0.41800000000E+01 0. -1.
        -11    1    1    2    0    0 -0.82972571623E+01 -0.52741478211E+02 -0.22737649265E+03  0.23356065039E+03  0.00000000000E+00 0. -1.
         11    1    1    2    0    0 -0.79115679143E+02  0.41297371892E+01 -0.25494801193E+03  0.26697347097E+03  0.00000000000E+00 0.  1.
</event>
<event>
 7    1  0.2651429E-009  0.1051759E+03  0.7561462E-02  0.1269773E+00
          1   -1    0    0  501    0  0.00000000000E+00  0.00000000000E+00  0.72353358240E+02  0.72353358240E+02  0.00000000000E+00 0. -1.
         -1   -1    0    0    0  501 -0.00000000000E+00 -0.00000000000E+00 -0.26203456638E+03  0.26203456638E+03  0.00000000000E+00 0.  1.
         25    2    1    2    0    0 -0.96065618821E+01 -0.71948067531E+02 -0.37422470033E+02  0.14938706787E+03  0.12508894568E+03 0.  0.
          5    1    3    3  502    0 -0.45902279797E+02  0.82968928206E+01 -0.39387935832E+02  0.61194277593E+02  0.41800000000E+01 0. -1.
         -5    1    3    3    0  502  0.36295717915E+02 -0.80244960351E+02  0.19654657984E+01  0.88192790275E+02  0.41800000000E+01 0. -1.
        -11    1    1    2    0    0  0.15926972900E+02  0.47655771319E+02 -0.15179537599E+03  0.15989551957E+03  0.00000000000E+00 0.  1.
         11    1    1    2    0    0 -0.63204110179E+01  0.24292296211E+02 -0.46336211700E+00  0.25105337184E+02  0.00000000000E+00 0. -1.
</event>
<event>
 7    1  0.2651429E-009  0.1008220E+03  0.7561462E-02  0.1278577E+00
          2   -1    0    0  501    0  0.00000000000E+00  0.00000000000E+00  0.18321979214E+02  0.18321979214E+02  0.00000000000E+00 0. -1.
         -2   -1    0    0    0  501 -0.00000000000E+00 -0.00000000000E+00 -0.69502534342E+03  0.69502534342E+03  0.00000000000E+00 0.  1.
         25    2    1    2    0    0  0.14324700827E+02 -0.31778960142E+02 -0.39724462875E+03  0.41793362963E+03  0.12510045703E+03 0.  0.
          5    1    3    3  502    0 -0.13428776755E+02  0.36735799565E+02 -0.25048488803E+03  0.25355473285E+03  0.41800000000E+01 0. -1.
         -5    1    3    3    0  502  0.27753477581E+02 -0.68514759708E+02 -0.14675974071E+03  0.16437889679E+03  0.41800000000E+01 0. -1.
        -11    1    1    2    0    0 -0.47685255803E+02  0.26308655522E+02 -0.22346847693E+03  0.23000910668E+03  0.00000000000E+00 0.  1.
         11    1    1    2    0    0  0.33360554976E+02  0.54703046200E+01 -0.55990258530E+02  0.65404586316E+02  0.00000000000E+00 0. -1.
</event>
<event>
 7    1  0.2651429E-009  0.1590216E+03  0.7561462E-02  0.1189806E+00
          1   -1    0    0  501    0  0.00000000000E+00  0.00000000000E+00  0.28440284905E+02  0.28440284905E+02  0.00000000000E+00 0. -1.
         -1   -1    0    0    0  501 -0.00000000000E+00 -0.00000000000E+00 -0.13532966267E+04  0.13532966267E+04  0.00000000000E+00 0.  1.
         25    2    1    2    0    0  0.50913751643E+02  0.12871948480E+03 -0.10046209382E+04  0.10217978196E+04  0.12508652520E+03 0.  0.
          5    1    3    3  502    0 -0.17399210363E+02  0.66128904800E+02 -0.19112414166E+03  0.20303121557E+03  0.41800000000E+01 0.  1.
         -5    1    3    3    0  502  0.68312962006E+02  0.62590580003E+02 -0.81349679653E+03  0.81876660401E+03  0.41800000000E+01 0.  1.
        -11    1    1    2    0    0  0.18958077494E+02 -0.20025340258E+02 -0.10798369482E+03  0.11144909736E+03  0.00000000000E+00 0.  1.
         11    1    1    2    0    0 -0.69871829137E+02 -0.10869414455E+03 -0.21225170880E+03  0.24848999467E+03  0.00000000000E+00 0. -1.
</event>
<event>
 7    1  0.2651429E-009  0.2482801E+03  0.7561462E-02  0.1114397E+00
          1   -1    0    0  501    0  0.00000000000E+00  0.00000000000E+00  0.23502391742E+03  0.23502391742E+03  0.00000000000E+00 0. -1.
         -1   -1    0    0    0  501 -0.00000000000E+00 -0.00000000000E+00 -0.34190687901E+03  0.34190687901E+03  0.00000000000E+00 0.  1.
         25    2    1    2    0    0  0.17554229896E+03 -0.15008389192E+03  0.66547636900E+02  0.27095586946E+03  0.12509285303E+03 0.  0.
          5    1    3    3  502    0  0.18352761370E+03 -0.16156975148E+03  0.72677932209E+02  0.25512099838E+03  0.41800000000E+01 0. -1.
         -5    1    3    3    0  502 -0.79853147423E+01  0.11485859564E+02 -0.61302953091E+01  0.15834871077E+02  0.41800000000E+01 0. -1.
        -11    1    1    2    0    0 -0.44404336825E+02  0.99870237325E+01 -0.81152341187E+02  0.93044012446E+02  0.00000000000E+00 0.  1.
         11    1    1    2    0    0 -0.13113796214E+03  0.14009686819E+03 -0.92278257298E+02  0.21293091452E+03  0.00000000000E+00 0. -1.
</event>
<event>
 7    1  0.2651429E-009  0.1010995E+03  0.7561462E-02  0.1278001E+00
          4   -1    0    0  501    0  0.00000000000E+00  0.00000000000E+00  0.41626580199E+03  0.41626580199E+03  0.00000000000E+00 0. -1.
         -4   -1    0    0    0  501 -0.00000000000E+00 -0.00000000000E+00 -0.28277774237E+02  0.28277774237E+02  0.00000000000E+00 0.  1.
         25    2    1    2    0    0 -0.89308373309E+01 -0.93100999620E+01  0.21006287835E+03  0.24482646469E+03  0.12508855717E+03 0.  0.
          5    1    3    3  502    0  0.27365749463E+02  0.49374780473E+02  0.96582813383E+02  0.11194849455E+03  0.41800000000E+01 0. -1.
         -5    1    3    3    0  502 -0.36296586794E+02 -0.58684880435E+02  0.11348006497E+03  0.13287797015E+03  0.41800000000E+01 0. -1.
        -11    1    1    2    0    0 -0.33051940982E+02 -0.15871518031E+01  0.13384876321E+03  0.13787835677E+03  0.00000000000E+00 0. -1.
         11    1    1    2    0    0  0.41982778313E+02  0.10897251765E+02  0.44076386197E+02  0.61838754767E+02  0.00000000000E+00 0.  1.
</event>
<event>
 7    1  0.2651429E-009  0.6980240E+02  0.7561462E-02  0.1360766E+00
          1   -1    0    0  501    0  0.00000000000E+00  0.00000000000E+00  0.94652349175E+03  0.94652349175E+03  0.00000000000E+00 0. -1.
         -1   -1    0    0    0  501 -0.00000000000E+00 -0.00000000000E+00 -0.13935035943E+02  0.13935035943E+02  0.00000000000E+00 0.  1.
         25    2    1    2    0    0  0.37534973713E+02  0.52424954172E+01  0.56246360759E+03  0.57745056813E+03  0.12508993068E+03 0.  0.
          5    1    3    3  502    0  0.34444184544E+02  0.12161550030E+02  0.56664670029E+03  0.56783823444E+03  0.41800000000E+01 0.  1.
         -5    1    3    3    0  502  0.30907891691E+01 -0.69190546132E+01 -0.41830926940E+01  0.96123336872E+01  0.41800000000E+01 0.  1.
        -11    1    1    2    0    0  0.12812661963E+02 -0.33907827654E+02  0.91396856306E+02  0.98322380084E+02  0.00000000000E+00 0.  1.
         11    1    1    2    0    0 -0.50347635676E+02  0.28665332237E+02  0.27872799191E+03  0.28468557948E+03  0.00000000000E+00 0. -1.
</event>
<event>
 7    1  0.2651429E-009  0.1163570E+03  0.7561462E-02  0.1249231E+00
         -2   -1    0    0    0  501 -0.00000000000E+00  0.00000000000E+00  0.10439108680E+03  0.10439108680E+03  0.00000000000E+00 0.  1.
          2   -1    0    0  501    0  0.00000000000E+00 -0.00000000000E+00 -0.17682312754E+03  0.17682312754E+03  0.00000000000E+00 0. -1.
         25    2    1    2    0    0  0.77747748520E+02  0.19127404030E+02 -0.51110814697E+02  0.15706913195E+03  0.12509127407E+03 0.  0.
          5    1    3    3  502    0  0.33894011364E+02  0.67517070737E+02 -0.27727099593E+01  0.75713401507E+02  0.41800000000E+01 0. -1.
         -5    1    3    3    0  502  0.43853737156E+02 -0.48389666707E+02 -0.48338104737E+02  0.81355730444E+02  0.41800000000E+01 0. -1.
        -11    1    1    2    0    0 -0.50896383289E+02 -0.33719513103E+02  0.27171410037E+02  0.66826139490E+02  0.00000000000E+00 0. -1.
         11    1    1    2    0    0 -0.26851365231E+02  0.14592109073E+02 -0.48492636081E+02  0.57318942908E+02  0.00000000000E+00 0.  1.
</event>
<event>
 7    1  0.2793705E-009  0.9060663E+02  0.7561462E-02  0.1301389E+00
          2   -1    0    0  501    0  0.00000000000E+00  0.00000000000E+00  0.52128393473E+03  0.52128393473E+03  0.00000000000E+00 0.  1.
         -2   -1    0    0    0  501 -0.00000000000E+00 -0.00000000000E+00 -0.29702354999E+02  0.29702354999E+02  0.00000000000E+00 0. -1.
         25    2    1    2    0    0 -0.82450859587E+00 -0.37692571474E+02  0.38087871878E+03  0.40266257669E+03  0.12508853861E+03 0.  0.
          5    1    3    3  502    0 -0.57337376460E+02 -0.30945757627E+02  0.13122825638E+03  0.14657265204E+03  0.41800000000E+01 0.  1.
         -5    1    3    3    0  502  0.56512867864E+02 -0.67468138470E+01  0.24965046240E+03  0.25608992465E+03  0.41800000000E+01 0.  1.
        -11    1    1    2    0    0  0.11993575227E+01  0.48263776479E+02  0.12298068300E+03  0.13211767092E+03  0.00000000000E+00 0.  1.
         11    1    1    2    0    0 -0.37484892681E+00 -0.10571205005E+02 -0.12277822045E+02  0.16206042118E+02  0.00000000000E+00 0. -1.
</event>
<event>
 7    1  0.2651429E-009  0.1654018E+03  0.7561462E-02  0.1182730E+00
          1   -1    0    0  501    0  0.00000000000E+00  0.00000000000E+00  0.11880805417E+03  0.11880805417E+03  0.00000000000E+00 0. -1.
         -1   -1    0    0    0  501 -0.00000000000E+00 -0.00000000000E+00 -0.30589419228E+03  0.30589419228E+03  0.00000000000E+00 0.  1.
         25    2    1    2    0    0  0.64053423762E+02 -0.12395085080E+03 -0.17732171467E+03  0.25798564325E+03  0.12508775766E+03 0.  0.
          5    1    3    3  502    0  0.86238641601E+02 -0.10944562217E+03 -0.88316606820E+02  0.16502346184E+03  0.41800000000E+01 0.  1.
         -5    1    3    3    0  502 -0.22185217840E+02 -0.14505228633E+02 -0.89005107853E+02  0.92962181409E+02  0.41800000000E+01 0.  1.
        -11    1    1    2    0    0 -0.38901593397E+02  0.13242969171E+03  0.11181834876E+01  0.13802973430E+03  0.00000000000E+00 0.  1.
         11    1    1    2    0    0 -0.25151830364E+02 -0.84788409074E+01 -0.10882606930E+02  0.28686868902E+02  0.00000000000E+00 0. -1.
</event>
<event>
 7    1  0.2651429E-009  0.1283642E+03  0.7561462E-02  0.1229903E+00
          4   -1    0    0  501    0  0.00000000000E+00  0.00000000000E+00  0.86647512196E+03  0.86647512196E+03  0.00000000000E+00 0. -1.
         -4   -1    0    0    0  501 -0.00000000000E+00 -0.00000000000E+00 -0.30403585347E+02  0.30403585347E+02  0.00000000000E+00 0.  1.
         25    2    1    2    0    0 -0.63750959182E+02  0.63019595761E+02  0.67002176348E+03  0.68746772810E+03  0.12508820647E+03 0.  0.
          5    1    3    3  502    0  0.18200958067E+02  0.43686860039E+02  0.43864726383E+03  0.44121277302E+03  0.41800000000E+01 0.  1.
         -5    1    3    3    0  502 -0.81951917249E+02  0.19332735722E+02  0.23137449966E+03  0.24625495508E+03  0.41800000000E+01 0.  1.
        -11    1    1    2    0    0  0.19631385724E+02 -0.76341689814E+02  0.12452123158E+03  0.14737361373E+03  0.00000000000E+00 0.  1.
         11    1    1    2    0    0  0.44119573458E+02  0.13322094053E+02  0.41528541557E+02  0.62037365482E+02  0.00000000000E+00 0. -1.
</event>
<event>
 7    1  0.2651429E-009  0.1012888E+03  0.7561462E-02  0.1277609E+00
         -2   -1    0    0    0  501 -0.00000000000E+00  0.00000000000E+00  0.15812418682E+02  0.15812418682E+02  0.00000000000E+00 0.  1.
          2   -1    0    0  501    0  0.00000000000E+00 -0.00000000000E+00 -0.96919187817E+03  0.96919187817E+03  0.00000000000E+00 0. -1.
         25    2    1    2    0    0  0.53597794497E+02 -0.13845624496E+02 -0.61708974348E+03  0.63207017977E+03  0.12509410759E+03 0.  0.
          5    1    3    3  502    0 -0.25113336817E+02 -0.74145591734E+01 -0.40248513406E+03  0.40335767120E+03  0.41800000000E+01 0.  1.
         -5    1    3    3    0  502  0.78711131313E+02 -0.64310653228E+01 -0.21460460942E+03  0.22871250857E+03  0.41800000000E+01 0.  1.
        -11    1    1    2    0    0  0.14880210648E+02 -0.16375989219E+02 -0.27997312756E+02  0.35685336112E+02  0.00000000000E+00 0.  1.
         11    1    1    2    0    0 -0.68478005145E+02  0.30221613715E+02 -0.30829240325E+03  0.31724878097E+03  0.00000000000E+00 0. -1.
</event>
<event>
 7    1  0.2651429E-009  0.1016974E+03  0.7561462E-02  0.1276766E+00
         -3   -1    0    0    0  501 -0.00000000000E+00  0.00000000000E+00  0.17414884968E+03  0.17414884968E+03  0.00000000000E+00 0.  1.
          3   -1    0    0  501    0  0.00000000000E+00 -0.00000000000E+00 -0.10204587975E+03  0.10204587975E+03  0.00000000000E+00 0. -1.
         25    2    1    2    0    0  0.11729169337E+02  0.76565860596E+02  0.33385162837E+02  0.15086981891E+03  0.12508888335E+03 0.  0.
          5    1    3    3  502    0 -0.18126211342E+02  0.24874386225E+02 -0.43494427147E+02  0.53446536095E+02  0.41800000000E+01 0.  1.
         -5    1    3    3    0  502  0.29855380679E+02  0.51691474371E+02  0.76879589984E+02  0.97423282814E+02  0.41800000000E+01 0.  1.
        -11    1    1    2    0    0  0.28149427756E+02 -0.23557160602E+01 -0.75096351840E+01  0.29228997618E+02  0.00000000000E+00 0. -1.
         11    1    1    2    0    0 -0.39878597094E+02 -0.74210144536E+02  0.46227442276E+02  0.96095912907E+02  0.00000000000E+00 0.  1.
</event>
<event>
 7    1  0.2651429E-009  0.1808294E+03  0.7561462E-02  0.1167003E+00
          1   -1    0    0  501    0  0.00000000000E+00  0.00000000000E+00  0.68322096571E+02  0.68322096571E+02  0.00000000000E+00 0. -1.
         -1   -1    0    0    0  501 -0.00000000000E+00 -0.00000000000E+00 -0.52643768544E+03  0.52643768544E+03  0.00000000000E+00 0.  1.
         25    2    1    2    0    0  0.31124712166E+01 -0.15510541916E+03 -0.23978400400E+03  0.31179726692E+03  0.12511510123E+03 0.  0.
          5    1    3    3  502    0 -0.22387075201E+02 -0.16519726079E+03 -0.22587825297E+03  0.28076640411E+03  0.41800000000E+01 0.  1.
         -5    1    3    3    0  502  0.25499546418E+02  0.10091841637E+02 -0.13905751028E+02  0.31030862811E+02  0.41800000000E+01 0.  1.
        -11    1    1    2    0    0 -0.31391693501E+02  0.57165148458E+02 -0.13985415857E+03  0.15431292327E+03  0.00000000000E+00 0.  1.
         11    1    1    2    0    0  0.28279222284E+02  0.97940270697E+02 -0.78477426294E+02  0.12864959182E+03  0.00000000000E+00 0. -1.
</event>
<event>
 7    1  0.2651429E-009  0.2389845E+03  0.7561462E-02  0.1120471E+00
         -3   -1    0    0    0  501 -0.00000000000E+00  0.00000000000E+00  0.59170883104E+03  0.59170883104E+03  0.00000000000E+00 0.  1.
          3   -1    0    0  501    0  0.00000000000E+00 -0.00000000000E+00 -0.10915054866E+03  0.10915054866E+03  0.00000000000E+00 0. -1.
         25    2    1    2    0    0  0.20468539495E+02  0.22770182559E+03  0.26646166087E+03  0.37271468090E+03  0.12508930473E+03 0.  0.
          5    1    3    3  502    0 -0.13739492289E+02  0.20580401256E+03  0.25913950287E+03  0.33123227436E+03  0.41800000000E+01 0. -1.
         -5    1    3    3    0  502  0.34208031784E+02  0.21897813031E+02  0.73221579998E+01  0.41482406534E+02  0.41800000000E+01 0. -1.
        -11    1    1    2    0    0  0.83061078728E+01 -0.33658841992E+02  0.86094513277E+02  0.92812576134E+02  0.00000000000E+00 0.  1.
         11    1    1    2    0    0 -0.28774647368E+02 -0.19404298359E+03  0.13000210824E+03  0.23533212267E+03  0.00000000000E+00 0. -1.
</event>
<event>
 7    1  0.2651429E-009  0.8508321E+02  0.7561462E-02  0.1315215E+00
          1   -1    0    0  501    0  0.00000000000E+00  0.00000000000E+00  0.12294011263E+03  0.12294011263E+03  0.00000000000E+00 0. -1.
         -1   -1    0    0    0  501 -0.00000000000E+00 -0.00000000000E+00 -0.10430288402E+03  0.10430288402E+03  0.00000000000E+00 0.  1.
         25    2    1    2    0    0  0.15141955184E+02 -0.23117831437E+02  0.27281251070E+02  0.13100119883E+03  0.12511328666E+03 0.  0.
          5    1    3    3  502    0  0.38001114740E+02 -0.35035068247E+02 -0.35608514908E+02  0.62904526566E+02  0.41800000000E+01 0. -1.
         -5    1    3    3    0  502 -0.22859159556E+02  0.11917236810E+02  0.62889765978E+02  0.68096672265E+02  0.41800000000E+01 0. -1.
        -11    1    1    2    0    0 -0.51960052406E+02  0.88468035896E+01 -0.17936255550E+02  0.55676047300E+02  0.00000000000E+00 0.  1.
         11    1    1    2    0    0  0.36818097222E+02  0.14271027847E+02  0.92922330900E+01  0.40565750513E+02  0.00000000000E+00 0. -1.
</event>
<event>
 7    1  0.2651429E-009  0.1022263E+03  0.7561462E-02  0.1275683E+00
         -4   -1    0    0    0  501 -0.00000000000E+00  0.00000000000E+00  0.43913634710E+02  0.43913634710E+02  0.00000000000E+00 0.  1.
          4   -1    0    0  501    0  0.00000000000E+00 -0.00000000000E+00 -0.33524155794E+03  0.33524155794E+03  0.00000000000E+00 0. -1.
         25    2    1    2    0    0  0.35895236735E+02  0.32225416288E+02 -0.22193262698E+03  0.25926428078E+03  0.12504771448E+03 0.  0.
          5    1    3    3  502    0  0.55055621559E+02 -0.33484397496E+02 -0.12251347112E+03  0.13848952793E+03  0.41800000000E+01 0. -1.
         -5    1    3    3    0  502 -0.19160384824E+02  0.65709813784E+02 -0.99419155867E+02  0.12077475286E+03  0.41800000000E+01 0. -1.
        -11    1    1    2    0    0 -0.29800167853E+02  0.78111240177E+01 -0.72998748630E+02  0.79233079986E+02  0.00000000000E+00 0. -1.
         11    1    1    2    0    0 -0.60950688817E+01 -0.40036540306E+02  0.36034523799E+01  0.40657831883E+02  0.00000000000E+00 0.  1.
</event>
<event>
 7    1  0.3480804E-009  0.1209310E+03  0.7561462E-02  0.1241569E+00
          2   -1    0    0  501    0  0.00000000000E+00  0.00000000000E+00  0.10163540751E+04  0.10163540751E+04  0.00000000000E+00 0. -1.
         -2   -1    0    0    0  501 -0.00000000000E+00 -0.00000000000E+00 -0.15318654886E+02  0.15318654886E+02  0.00000000000E+00 0.  1.
         25    2    1    2    0    0 -0.32206098584E+02  0.46553396295E+02  0.45890370113E+03  0.47900375347E+03  0.12509011726E+03 0.  0.
          5    1    3    3  502    0 -0.70451737215E+02 -0.49428779135E+01  0.28343041074E+03  0.29212694064E+03  0.41800000000E+01 0.  1.
         -5    1    3    3    0  502  0.38245638631E+02  0.51496274208E+02  0.17547329039E+03  0.18687681283E+03  0.41800000000E+01 0.  1.
        -11    1    1    2    0    0 -0.31444427667E+02 -0.81109499893E+01  0.13964489844E+03  0.14337097755E+03  0.00000000000E+00 0. -1.
         11    1    1    2    0    0  0.63650526251E+02 -0.38442446305E+02  0.40248682061E+03  0.40929799894E+03  0.00000000000E+00 0.  1.
</event>
<event>
 7    1  0.2651429E-009  0.8548025E+02  0.7561462E-02  0.1314181E+00
         -1   -1    0    0    0  501 -0.00000000000E+00  0.00000000000E+00  0.35797802733E+02  0.35797802733E+02  0.00000000000E+00 0.  1.
          1   -1    0    0  501    0  0.00000000000E+00 -0.00000000000E+00 -0.39490012925E+03  0.39490012925E+03  0.00000000000E+00 0. -1.
         25    2    1    2    0    0 -0.11205700206E+02 -0.31146186367E+02 -0.27671493158E+03  0.30547402743E+03  0.12509026915E+03 0.  0.
          5    1    3    3  502    0 -0.16377760365E+02  0.28473430810E+02 -0.13920698744E+02  0.35919709774E+02  0.41800000000E+01 0. -1.
         -5    1    3    3    0  502  0.51720601598E+01 -0.59619617177E+02 -0.26279423283E+03  0.26955431766E+03  0.41800000000E+01 0. -1.
        -11    1    1    2    0    0 -0.10578068047E+02  0.48729165594E+02 -0.83445993382E+02  0.97209366393E+02  0.00000000000E+00 0.  1.
         11    1    1    2    0    0  0.21783768253E+02 -0.17582979227E+02  0.10585984356E+01  0.28014538162E+02  0.00000000000E+00 0. -1.
</event>
<event>
 7    1  0.2651429E-009  0.1130323E+03  0.7561462E-02  0.1255055E+00
         -2   -1    0    0    0  501 -0.00000000000E+00  0.00000000000E+00  0.11350574243E+03  0.11350574243E+03  0.00000000000E+00 0.  1.
          2   -1    0    0  501    0  0.00000000000E+00 -0.00000000000E+00 -0.17448746749E+03  0.17448746749E+03  0.00000000000E+00 0. -1.
         25    2    1    2    0    0  0.27490072794E+02  0.80166055863E+02 -0.54857770687E+01  0.15119482361E+03  0.12508988897E+03 0.  0.
          5    1    3    3  502    0 -0.20922052090E+02 -0.14771601509E+02  0.29181910991E+02  0.39051105028E+02  0.41800000000E+01 0.  1.
         -5    1    3    3    0  502  0.48412124884E+02  0.94937657371E+02 -0.34667688060E+02  0.11214371859E+03  0.41800000000E+01 0.  1.
        -11    1    1    2    0    0  0.65070921887E+01 -0.41373908017E+02  0.19159328118E+02  0.46056729881E+02  0.00000000000E+00 0.  1.
         11    1    1    2    0    0 -0.33997164983E+02 -0.38792147845E+02 -0.74655276105E+02  0.90741656430E+02  0.00000000000E+00 0. -1.
</event>
<event>
 7    1  0.2651429E-009  0.5190280E+02  0.7561462E-02  0.1435341E+00
          2   -1    0    0  501    0  0.00000000000E+00  0.00000000000E+00  0.10036910219E+03  0.10036910219E+03  0.00000000000E+00 0.  1.
         -2   -1    0    0    0  501 -0.00000000000E+00 -0.00000000000E+00 -0.16003465802E+03  0.16003465802E+03  0.00000000000E+00 0. -1.
         25    2    1    2    0    0 -0.64606629523E+01  0.19150822438E+02  0.30599520681E+02  0.13035471467E+03  0.12509007477E+03 0.  0.
          5    1    3    3  502    0  0.10544738540E+02  0.98918563313E+01  0.77759963050E+02  0.79203059197E+02  0.41800000000E+01 0. -1.
         -5    1    3    3    0  502 -0.17005401492E+02  0.92589661062E+01 -0.47160442370E+02  0.51151655474E+02  0.41800000000E+01 0. -1.
        -11    1    1    2    0    0 -0.19541873361E+02 -0.33843356272E+02 -0.46278575196E+01  0.39353203725E+02  0.00000000000E+00 0.  1.
         11    1    1    2    0    0  0.26002536313E+02  0.14692533834E+02 -0.85637218992E+02  0.90695841811E+02  0.00000000000E+00 0. -1.
</event>
<event>
 7    1  0.2651429E-009  0.9146081E+02  0.7561462E-02  0.1299352E+00
          2   -1    0    0  501    0  0.00000000000E+00  0.00000000000E+00  0.52640949689E+03  0.52640949689E+03  0.00000000000E+00 0. -1.
         -2   -1    0    0    0  501 -0.00000000000E+00 -0.00000000000E+00 -0.24967585535E+02  0.24967585535E+02  0.00000000000E+00 0.  1.
         25    2    1    2    0    0 -0.13784927157E+02 -0.95003494421E+01  0.36872532557E+03  0.38972502754E+03  0.12508777126E+03 0.  0.
          5    1    3    3  502    0 -0.40186863581E+02  0.46527822758E+02  0.22232503577E+03  0.23070699214E+03  0.41800000000E+01 0.  1.
         -5    1    3    3    0  502  0.26401936424E+02 -0.56028172200E+02  0.14640028980E+03  0.15901803540E+03  0.41800000000E+01 0.  1.
        -11    1    1    2    0    0 -0.20369072955E+02  0.14079835380E+02  0.23564454126E+00  0.24762803269E+02  0.00000000000E+00 0.  1.
         11    1    1    2    0    0  0.34154000112E+02 -0.45794859378E+01  0.13248094125E+03  0.13688925162E+03  0.00000000000E+00 0. -1.
</event>
<event>
 7    1  0.3240352E-009  0.3750124E+03  0.7561462E-02  0.1052793E+00
          2   -1    0    0  501    0  0.00000000000E+00  0.00000000000E+00  0.42838922372E+03  0.42838922372E+03  0.00000000000E+00 0. -1.
         -2   -1    0    0    0  501 -0.00000000000E+00 -0.00000000000E+00 -0.42108745911E+03  0.42108745911E+03  0.00000000000E+00 0.  1.
         25    2    1    2    0    0 -0.33480357844E+03 -0.14264265974E+03 -0.18599371250E+03  0.42742490214E+03  0.12513201575E+03 0.  0.
          5    1    3    3  502    0 -0.11660847799E+03 -0.48831846355E+01 -0.14777837948E+02  0.11771677674E+03  0.41800000000E+01 0.  1.
         -5    1    3    3    0  502 -0.21819510045E+03 -0.13775947510E+03 -0.17121587455E+03  0.30970812540E+03  0.41800000000E+01 0.  1.
        -11    1    1    2    0    0  0.22587989339E+03  0.48132560660E+02  0.12135123469E+03  0.26089191592E+03  0.00000000000E+00 0. -1.
         11    1    1    2    0    0  0.10892368505E+03  0.94510099081E+02  0.71944242420E+02  0.16115986476E+03  0.00000000000E+00 0.  1.
</event>
<event>
 7    1  0.2651429E-009  0.8011068E+02  0.7561462E-02  0.1328738E+00
         -1   -1    0    0    0  501 -0.00000000000E+00  0.00000000000E+00  0.42853876463E+03  0.42853876463E+03  0.00000000000E+00 0.  1.
          1   -1    0    0  501    0  0.00000000000E+00 -0.00000000000E+00 -0.27719585963E+02  0.27719585963E+02  0.00000000000E+00 0. -1.
         25    2    1    2    0    0 -0.13528350041E+02 -0.11364448274E+02  0.21176603524E+03  0.24658470493E+03  0.12508795339E+03 0.  0.
          5    1    3    3  502    0  0.30716303921E+01  0.32236614511E+02  0.19361652302E+03  0.19635036189E+03  0.41800000000E+01 0. -1.
         -5    1    3    3    0  502 -0.16599980433E+02 -0.43601062786E+02  0.18149512222E+02  0.50234343036E+02  0.41800000000E+01 0. -1.
        -11    1    1    2    0    0  0.26635235731E+02 -0.28354946360E+02  0.44100826959E+02  0.58807497005E+02  0.00000000000E+00 0. -1.
         11    1    1    2    0    0 -0.13106885690E+02  0.39719394635E+02  0.14495231647E+03  0.15086614866E+03  0.00000000000E+00 0.  1.
</event>
<event>
 7    1  0.2651429E-009  0.2181048E+03  0.7561462E-02  0.1135304E+00
          1   -1    0    0  501    0  0.00000000000E+00  0.00000000000E+00  0.24389583881E+03  0.24389583881E+03  0.00000000000E+00 0. -1.
         -1   -1    0    0    0  501 -0.00000000000E+00 -0.00000000000E+00 -0.23268984975E+03  0.23268984975E+03  0.00000000000E+00 0.  1.
         25    2    1    2    0    0 -0.26336812662E+02  0.19226780553E+03 -0.78940524599E+02  0.24400630360E+03  0.12508770134E+03 0.  0.
          5    1    3    3  502    0 -0.58278915355E+02  0.52956416242E+02  0.35393860823E+01  0.78935503102E+02  0.41800000000E+01 0. -1.
         -5    1    3    3    0  502  0.31942102693E+02  0.13931138929E+03 -0.82479910682E+02  0.16507080050E+03  0.41800000000E+01 0. -1.
        -11    1    1    2    0    0 -0.34197503435E+02 -0.65724625572E+02  0.29227855663E+02  0.79645861125E+02  0.00000000000E+00 0.  1.
         11    1    1    2    0    0  0.60534316097E+02 -0.12654317996E+03  0.60918657994E+02  0.15293352383E+03  0.00000000000E+00 0. -1.
</event>
<event>
 7    1  0.2651429E-009  0.1369945E+03  0.7561462E-02  0.1217431E+00
         -2   -1    0    0    0  501 -0.00000000000E+00  0.00000000000E+00  0.15371092765E+03  0.15371092765E+03  0.00000000000E+00 0. -1.
          2   -1    0    0  501    0  0.00000000000E+00 -0.00000000000E+00 -0.13820330895E+03  0.13820330895E+03  0.00000000000E+00 0.  1.
         25    2    1    2    0    0  0.29738436202E+02  0.86789020397E+02  0.38224153559E+02  0.15976890313E+03  0.12509319663E+03 0.  0.
          5    1    3    3  502    0  0.70259798000E+02  0.89400160751E+02  0.22263210770E+02  0.11593942777E+03  0.41800000000E+01 0. -1.
         -5    1    3    3    0  502 -0.40521361799E+02 -0.26111403542E+01  0.15960942789E+02  0.43829475364E+02  0.41800000000E+01 0. -1.
        -11    1    1    2    0    0  0.24492480182E+02 -0.12752504739E+02 -0.29142333833E+02  0.40147024595E+02  0.00000000000E+00 0.  1.
         11    1    1    2    0    0 -0.54230916384E+02 -0.74036515658E+02  0.64257989745E+01  0.91998308871E+02  0.00000000000E+00 0. -1.
</event>
<event>
 7    1  0.2651429E-009  0.1402790E+03  0.7561462E-02  0.1212954E+00
         -1   -1    0    0    0  501 -0.00000000000E+00  0.00000000000E+00  0.89913666599E+02  0.89913666599E+02  0.00000000000E+00 0.  1.
          1   -1    0    0  501    0  0.00000000000E+00 -0.00000000000E+00 -0.33120453843E+03  0.33120453843E+03  0.00000000000E+00 0. -1.
         25    2    1    2    0    0 -0.11891874724E+03 -0.58933966418E+02 -0.14425522006E+03  0.23254133931E+03  0.12510405721E+03 0.  0.
          5    1    3    3  502    0 -0.11179015788E+03 -0.36591583326E+02 -0.16381754502E+03  0.20171674156E+03  0.41800000000E+01 0. -1.
         -5    1    3    3    0  502 -0.71285893592E+01 -0.22342383092E+02  0.19562324961E+02  0.30824597748E+02  0.41800000000E+01 0. -1.
        -11    1    1    2    0    0  0.68621544057E+02  0.56141370124E+02 -0.11628266834E+02  0.89420279231E+02  0.00000000000E+00 0.  1.
         11    1    1    2    0    0  0.50297203184E+02  0.27925962942E+01 -0.85407384935E+02  0.99156586486E+02  0.00000000000E+00 0. -1.
</event>
<event>
 7    1  0.2651429E-009  0.5057165E+02  0.7561462E-02  0.1442282E+00
         -1   -1    0    0    0  501 -0.00000000000E+00  0.00000000000E+00  0.12547903394E+02  0.12547903394E+02  0.00000000000E+00 0.  1.
          1   -1    0    0  501    0  0.00000000000E+00 -0.00000000000E+00 -0.16304729797E+04  0.16304729797E+04  0.00000000000E+00 0. -1.
         25    2    1    2    0    0 -0.10318041250E+02 -0.14757022840E+02 -0.14047596513E+04  0.14104333130E+04  0.12509284888E+03 0.  0.
          5    1    3    3  502    0 -0.67448615834E+01 -0.73319228165E+01 -0.13999964049E+04  0.14000380910E+04  0.41800000000E+01 0.  1.
         -5    1    3    3    0  502 -0.35731796665E+01 -0.74251000231E+01 -0.47632463827E+01  0.10395221950E+02  0.41800000000E+01 0.  1.
        -11    1    1    2    0    0  0.25352861252E+02  0.42532917568E+02 -0.68548492582E+02  0.84561885539E+02  0.00000000000E+00 0.  1.
         11    1    1    2    0    0 -0.15034820002E+02 -0.27775894729E+02 -0.14461693243E+03  0.14802568455E+03  0.00000000000E+00 0. -1.
</event>
<event>
 7    1  0.2651429E-009  0.2996101E+03  0.7561462E-02  0.1085436E+00
         -2   -1    0    0    0  501 -0.00000000000E+00  0.00000000000E+00  0.98917633852E+03  0.98917633852E+03  0.00000000000E+00 0. -1.
          2   -1    0    0  501    0  0.00000000000E+00 -0.00000000000E+00 -0.96107865422E+02  0.96107865422E+02  0.00000000000E+00 0.  1.
         25    2    1    2    0    0 -0.16380439292E+02  0.28317635955E+03  0.36594786404E+03  0.47960947644E+03  0.12510092443E+03 0.  0.
          5    1    3    3  502    0  0.22384130810E+02  0.25609535123E+03  0.33746901595E+03  0.42425073643E+03  0.41800000000E+01 0. -1.
         -5    1    3    3    0  502 -0.38764570102E+02  0.27081008322E+02  0.28478848092E+02  0.55358740011E+02  0.41800000000E+01 0. -1.
        -11    1    1    2    0    0 -0.32384848989E+02 -0.12443694355E+03  0.27778281745E+03  0.30609904448E+03  0.00000000000E+00 0. -1.
         11    1    1    2    0    0  0.48765288281E+02 -0.15873941600E+03  0.24933779161E+03  0.29957568302E+03  0.00000000000E+00 0.  1.
</event>
<event>
 7    1  0.2651429E-009  0.1053253E+03  0.7561462E-02  0.1269480E+00
          1   -1    0    0  501    0  0.00000000000E+00  0.00000000000E+00  0.25798981511E+03  0.25798981511E+03  0.00000000000E+00 0. -1.
         -1   -1    0    0    0  501 -0.00000000000E+00 -0.00000000000E+00 -0.57828324304E+02  0.57828324304E+02  0.00000000000E+00 0.  1.
         25    2    1    2    0    0  0.47934701957E+00  0.53878936545E+02  0.83364790045E+02  0.15968835577E+03  0.12509002028E+03 0.  0.
          5    1    3    3  502    0  0.24257531220E+02 -0.31057097311E+02  0.53283111237E+02  0.66404318063E+02  0.41800000000E+01 0.  1.
         -5    1    3    3    0  502 -0.23778184201E+02  0.84936033856E+02  0.30081678808E+02  0.93284037708E+02  0.41800000000E+01 0.  1.
        -11    1    1    2    0    0  0.86430641052E+01 -0.66549398377E+02  0.40782084417E+02  0.78528360424E+02  0.00000000000E+00 0.  1.
         11    1    1    2    0    0 -0.91224111248E+01  0.12670461832E+02  0.76014616344E+02  0.77601423220E+02  0.00000000000E+00 0. -1.
</event>
<event>
 7    1  0.2651429E-009  0.8699324E+02  0.7561462E-02  0.1310301E+00
         -2   -1    0    0    0  501 -0.00000000000E+00  0.00000000000E+00  0.42092279148E+02  0.42092279148E+02  0.00000000000E+00 0. -1.
          2   -1    0    0  501    0  0.00000000000E+00 -0.00000000000E+00 -0.41447364871E+03  0.41447364871E+03  0.00000000000E+00 0.  1.
         25    2    1    2    0    0  0.68999070676E+02 -0.65806152094E+01 -0.19155070779E+03  0.23904295562E+03  0.12508271154E+03 0.  0.
          5    1    3    3  502    0  0.70861038255E+01  0.95100787810E+01  0.16838761167E+02  0.21015964015E+02  0.41800000000E+01 0. -1.
         -5    1    3    3    0  502  0.61912966850E+02 -0.16090693990E+02 -0.20838946895E+03  0.21802699160E+03  0.41800000000E+01 0. -1.
        -11    1    1    2    0    0 -0.66236975307E+02 -0.21077572212E+02 -0.54939948598E+02  0.88600219526E+02  0.00000000000E+00 0. -1.
         11    1    1    2    0    0 -0.27620953683E+01  0.27658187422E+02 -0.12589071318E+03  0.12892275271E+03  0.00000000000E+00 0.  1.
</event>
<event>
 7    1  0.2651429E-009  0.1240172E+03  0.7561462E-02  0.1236613E+00
         -1   -1    0    0    0  501 -0.00000000000E+00  0.00000000000E+00  0.12106637207E+02  0.12106637207E+02  0.00000000000E+00 0.  1.
          1   -1    0    0  501    0  0.00000000000E+00 -0.00000000000E+00 -0.14010817046E+04  0.14010817046E+04  0.00000000000E+00 0. -1.
         25    2    1    2    0    0 -0.46937135419E+02 -0.37910232100E+02 -0.97689673978E+03  0.98671917034E+03  0.12508877069E+03 0.  0.
          5    1    3    3  502    0 -0.85511103586E+02 -0.48802630534E+02 -0.68339906085E+03  0.69046766351E+03  0.41800000000E+01 0.  1.
         -5    1    3    3    0  502  0.38573968167E+02  0.10892398433E+02 -0.29349767893E+03  0.29625150683E+03  0.41800000000E+01 0.  1.
        -11    1    1    2    0    0  0.52038732639E+02 -0.16459810867E+02 -0.22937850317E+03  0.23578263885E+03  0.00000000000E+00 0. -1.
         11    1    1    2    0    0 -0.51015972200E+01  0.54370042967E+02 -0.18269982441E+03  0.19068653258E+03  0.00000000000E+00 0.  1.
</event>
<event>
 7    1  0.2651429E-009  0.2219875E+03  0.7561462E-02  0.1132410E+00
         -2   -1    0    0    0  501 -0.00000000000E+00  0.00000000000E+00  0.96809903936E+02  0.96809903936E+02  0.00000000000E+00 0.  1.
          2   -1    0    0  501    0  0.00000000000E+00 -0.00000000000E+00 -0.58443057903E+03  0.58443057903E+03  0.00000000000E+00 0. -1.
         25    2    1    2    0    0 -0.16422301741E+03  0.10673764366E+03 -0.13998960335E+03  0.27130486180E+03  0.12508842860E+03 0.  0.
          5    1    3    3  502    0  0.14727571654E+02  0.33881702077E+02 -0.10354980943E+02  0.38594936621E+02  0.41800000000E+01 0.  1.
         -5    1    3    3    0  502 -0.17895058907E+03  0.72855941582E+02 -0.12963462241E+03  0.23270992518E+03  0.41800000000E+01 0.  1.
        -11    1    1    2    0    0  0.22543686750E+02 -0.60403830404E+02 -0.72517601691E+02  0.97034236714E+02  0.00000000000E+00 0. -1.
         11    1    1    2    0    0  0.14167933066E+03 -0.46333813255E+02 -0.27511347005E+03  0.31290138445E+03  0.00000000000E+00 0.  1.
</event>
<event>
 7    1  0.2651429E-009  0.1044302E+03  0.7561462E-02  0.1271246E+00
         -2   -1    0    0    0  501 -0.00000000000E+00  0.00000000000E+00  0.27885801441E+03  0.27885801441E+03  0.00000000000E+00 0.  1.
          2   -1    0    0  501    0  0.00000000000E+00 -0.00000000000E+00 -0.90152919302E+02  0.90152919302E+02  0.00000000000E+00 0. -1.
         25    2    1    2    0    0  0.16853516125E+02  0.41009703751E+01  0.23224942874E+03  0.26436445950E+03  0.12509161176E+03 0.  0.
          5    1    3    3  502    0  0.67831774592E+02 -0.16818125978E+02  0.11295741906E+03  0.13289413052E+03  0.41800000000E+01 0. -1.
         -5    1    3    3    0  502 -0.50978258467E+02  0.20919096353E+02  0.11929200968E+03  0.13147032898E+03  0.41800000000E+01 0. -1.
        -11    1    1    2    0    0  0.32584074455E+02  0.59928064084E+01  0.62963807643E+01  0.33723582957E+02  0.00000000000E+00 0.  1.
         11    1    1    2    0    0 -0.49437590580E+02 -0.10093776783E+02 -0.49840714398E+02  0.70922891254E+02  0.00000000000E+00 0. -1.
</event>
<event>
 7    1  0.2651429E-009  0.1097780E+03  0.7561462E-02  0.1260981E+00
         -1   -1    0    0    0  501 -0.00000000000E+00  0.00000000000E+00  0.75222681829E+03  0.75222681829E+03  0.00000000000E+00 0.  1.
          1   -1    0    0  501    0  0.00000000000E+00 -0.00000000000E+00 -0.32525306217E+02  0.32525306217E+02  0.00000000000E+00 0. -1.
         25    2    1    2    0    0  0.96526398952E+02 -0.10213762553E+02  0.54679973108E+03  0.56926190497E+03  0.12508998321E+03 0.  0.
          5    1    3    3  502    0  0.91178761186E+02 -0.32600076873E+02  0.53374403859E+03  0.54247258238E+03  0.41800000000E+01 0.  1.
         -5    1    3    3    0  502  0.53476377657E+01  0.22386314319E+02  0.13055692494E+02  0.26789322593E+02  0.41800000000E+01 0.  1.
        -11    1    1    2    0    0 -0.43734481819E+02 -0.56978408332E+01  0.12448030468E+02  0.45827107182E+02  0.00000000000E+00 0. -1.
         11    1    1    2    0    0 -0.52791917133E+02  0.15911603386E+02  0.16045375052E+03  0.16966311236E+03  0.00000000000E+00 0.  1.
</event>
<event>
 7    1  0.2651429E-009  0.1001300E+03  0.7561462E-02  0.1280023E+00
          1   -1    0    0  501    0  0.00000000000E+00  0.00000000000E+00  0.14057638294E+03  0.14057638294E+03  0.00000000000E+00 0. -1.
         -1   -1    0    0    0  501 -0.00000000000E+00 -0.00000000000E+00 -0.85734615139E+02  0.85734615139E+02  0.00000000000E+00 0.  1.
         25    2    1    2    0    0  0.20554967048E+02  0.27188570453E+00  0.22261453177E+02  0.12870958485E+03  0.12509198353E+03 0.  0.
          5    1    3    3  502    0 -0.52793664680E+00  0.61425454674E+02  0.58728630413E+01  0.61849237015E+02  0.41800000000E+01 0. -1.
         -5    1    3    3    0  502  0.21082903694E+02 -0.61153568969E+02  0.16388590136E+02  0.66860347834E+02  0.41800000000E+01 0. -1.
        -11    1    1    2    0    0 -0.32853963697E+02 -0.28235897108E+02  0.46914713815E+02  0.63856395047E+02  0.00000000000E+00 0. -1.
         11    1    1    2    0    0  0.12298996649E+02  0.27964011403E+02 -0.14334399187E+02  0.33745018186E+02  0.00000000000E+00 0.  1.
</event>
<event>
 7    1  0.2651429E-009  0.2292783E+03  0.7561462E-02  0.1127149E+00
         -2   -1    0    0    0  501 -0.00000000000E+00  0.00000000000E+00  0.17252811423E+03  0.17252811423E+03  0.00000000000E+00 0.  1.
          2   -1    0    0  501    0  0.00000000000E+00 -0.00000000000E+00 -0.51177356298E+03  0.51177356298E+03  0.00000000000E+00 0. -1.
         25    2    1    2    0    0  0.20182523448E+03  0.94309682403E+02  0.14347475718E+02  0.25589223597E+03  0.12508894797E+03 0.  0.
          5    1    3    3  502    0  0.83918986016E+02 -0.11197373402E+01  0.52941843391E+02  0.99317476847E+02  0.41800000000E+01 0. -1.
         -5    1    3    3    0  502  0.11790624846E+03  0.95429419743E+02 -0.38594367674E+02  0.15657475913E+03  0.41800000000E+01 0. -1.
        -11    1    1    2    0    0 -0.78721382884E+02 -0.35666297725E+02 -0.61551482395E+02  0.10610243118E+03  0.00000000000E+00 0.  1.
         11    1    1    2    0    0 -0.12310385160E+03 -0.58643384679E+02 -0.29204144207E+03  0.32230701006E+03  0.00000000000E+00 0. -1.
</event>
<event>
 7    1  0.2651429E-009  0.7741263E+02  0.7561462E-02  0.1336559E+00
          1   -1    0    0  501    0  0.00000000000E+00  0.00000000000E+00  0.13128914066E+03  0.13128914066E+03  0.00000000000E+00 0. -1.
         -1   -1    0    0    0  501 -0.00000000000E+00 -0.00000000000E+00 -0.10797886132E+03  0.10797886132E+03  0.00000000000E+00 0.  1.
         25    2    1    2    0    0 -0.38243521725E+02  0.30228065505E+02  0.20663825777E+02  0.13583255769E+03  0.12508871706E+03 0.  0.
          5    1    3    3  502    0 -0.67510534108E+01 -0.33695716339E+02 -0.31986194084E+02  0.47133502243E+02  0.41800000000E+01 0. -1.
         -5    1    3    3    0  502 -0.31492468314E+02  0.63923781844E+02  0.52650019861E+02  0.88699055446E+02  0.41800000000E+01 0. -1.
        -11    1    1    2    0    0  0.25343512300E+02 -0.21652466039E+02  0.46336505545E+02  0.57080597819E+02  0.00000000000E+00 0. -1.
         11    1    1    2    0    0  0.12900009424E+02 -0.85755994662E+01 -0.43690051980E+02  0.46354846471E+02  0.00000000000E+00 0.  1.
</event>
<event>
 7    1  0.2651429E-009  0.1557722E+03  0.7561462E-02  0.1193554E+00
         -1   -1    0    0    0  501 -0.00000000000E+00  0.00000000000E+00  0.26303258690E+02  0.26303258690E+02  0.00000000000E+00 0.  1.
          1   -1    0    0  501    0  0.00000000000E+00 -0.00000000000E+00 -0.13206088250E+04  0.13206088250E+04  0.00000000000E+00 0. -1.
         25    2    1    2    0    0 -0.32412362199E+02  0.12311554140E+03 -0.97849677915E+03  0.99464127985E+03  0.12508929213E+03 0.  0.
          5    1    3    3  502    0  0.13830614451E+01  0.12316725583E+03 -0.50118169376E+03  0.51611301895E+03  0.41800000000E+01 0. -1.
         -5    1    3    3    0  502 -0.33795423644E+02 -0.51714437886E-01 -0.47731508539E+03  0.47852826090E+03  0.41800000000E+01 0. -1.
        -11    1    1    2    0    0  0.49792092130E+02 -0.12702169960E+03 -0.25902899875E+03  0.29276233843E+03  0.00000000000E+00 0.  1.
         11    1    1    2    0    0 -0.17379729931E+02  0.39061582081E+01 -0.56779788424E+02  0.59508465431E+02  0.00000000000E+00 0. -1.
</event>
<event>
 7    1  0.2651429E-009  0.1278038E+03  0.7561462E-02  0.1230751E+00
         -1   -1    0    0    0  501 -0.00000000000E+00  0.00000000000E+00  0.38736520353E+02  0.38736520353E+02  0.00000000000E+00 0.  1.
          1   -1    0    0  501    0  0.00000000000E+00 -0.00000000000E+00 -0.68651038964E+03  0.68651038964E+03  0.00000000000E+00 0. -1.
         25    2    1    2    0    0  0.48530392363E+02 -0.49607550257E+02 -0.56696679093E+03  0.58473472219E+03  0.12508894951E+03 0.  0.
          5    1    3    3  502    0 -0.31954432592E+02 -0.53136126946E+02 -0.23023410193E+03  0.23847378858E+03  0.41800000000E+01 0. -1.
         -5    1    3    3    0  502  0.80484824954E+02  0.35285766888E+01 -0.33673268900E+03  0.34626093361E+03  0.41800000000E+01 0. -1.
        -11    1    1    2    0    0 -0.46570989056E+02 -0.14406156184E+02 -0.21694258458E+02  0.53357616211E+02  0.00000000000E+00 0.  1.
         11    1    1    2    0    0 -0.19594033070E+01  0.64013706440E+02 -0.59112819905E+02  0.87154571599E+02  0.00000000000E+00 0. -1.
</event>
<event>
 7    1  0.2651429E-009  0.1090560E+03  0.7561462E-02  0.1262328E+00
          2   -1    0    0  501    0  0.00000000000E+00  0.00000000000E+00  0.19929831847E+03  0.19929831847E+03  0.00000000000E+00 0. -1.
         -2   -1    0    0    0  501 -0.00000000000E+00 -0.00000000000E+00 -0.75173735213E+02  0.75173735213E+02  0.00000000000E+00 0.  1.
         25    2    1    2    0    0  0.65726708989E+01  0.32307277466E+02  0.19551731471E+02  0.13083092699E+03  0.12508997192E+03 0.  0.
          5    1    3    3  502    0 -0.37775232775E+02 -0.27874824118E+02 -0.13439536411E+02  0.49010892358E+02  0.41800000000E+01 0.  1.
         -5    1    3    3    0  502  0.44347903674E+02  0.60182101584E+02  0.32991267882E+02  0.81820034636E+02  0.41800000000E+01 0.  1.
        -11    1    1    2    0    0  0.35447364255E+02 -0.39936522572E+02  0.42260938304E+02  0.68098666464E+02  0.00000000000E+00 0.  1.
         11    1    1    2    0    0 -0.42020035154E+02  0.76292451064E+01  0.62311913485E+02  0.75542460229E+02  0.00000000000E+00 0. -1.
</event>
<event>
 7    1  0.2651429E-009  0.1301341E+03  0.7561462E-02  0.1227257E+00
         -1   -1    0    0    0  501 -0.00000000000E+00  0.00000000000E+00  0.20418972145E+03  0.20418972145E+03  0.00000000000E+00 0.  1.
          1   -1    0    0  501    0  0.00000000000E+00 -0.00000000000E+00 -0.88536893044E+02  0.88536893044E+02  0.00000000000E+00 0. -1.
         25    2    1    2    0    0 -0.50863983813E+02  0.53836422294E+02  0.94011373149E+02  0.17310741867E+03  0.12507011994E+03 0.  0.
          5    1    3    3  502    0 -0.90657237018E+02  0.27028367191E+02  0.76934743487E+02  0.12200694411E+03  0.41800000000E+01 0.  1.
         -5    1    3    3    0  502  0.39793253205E+02  0.26808055103E+02  0.17076629662E+02  0.51100474554E+02  0.41800000000E+01 0.  1.
        -11    1    1    2    0    0  0.44420676645E+02  0.16048784941E+02  0.50262874555E+01  0.47497616543E+02  0.00000000000E+00 0.  1.
         11    1    1    2    0    0  0.64433071688E+01 -0.69885207235E+02  0.16615167805E+02  0.72121579286E+02  0.00000000000E+00 0. -1.
</event>
<event>
 7    1  0.2651429E-009  0.9243697E+02  0.7561462E-02  0.1297055E+00
         -1   -1    0    0    0  501 -0.00000000000E+00  0.00000000000E+00  0.24455293738E+02  0.24455293738E+02  0.00000000000E+00 0.  1.
          1   -1    0    0  501    0  0.00000000000E+00 -0.00000000000E+00 -0.46649333841E+03  0.46649333841E+03  0.00000000000E+00 0. -1.
         25    2    1    2    0    0 -0.44036538746E+01 -0.27735757597E+02 -0.26678475252E+03  0.29599036721E+03  0.12509008307E+03 0.  0.
          5    1    3    3  502    0  0.25052508536E+01 -0.74246711248E+02 -0.20601192099E+03  0.21903706171E+03  0.41800000000E+01 0.  1.
         -5    1    3    3    0  502 -0.69089047282E+01  0.46510953652E+02 -0.60772831536E+02  0.76953305498E+02  0.41800000000E+01 0.  1.
        -11    1    1    2    0    0 -0.25651485289E+02  0.65055610355E+01 -0.14761661780E+02  0.30302271869E+02  0.00000000000E+00 0.  1.
         11    1    1    2    0    0  0.30055139163E+02  0.21230196561E+02 -0.16049163036E+03  0.16465599307E+03  0.00000000000E+00 0. -1.
</event>
<event>
 7    1  0.2651429E-009  0.1782596E+03  0.7561462E-02  0.1169498E+00
         -2   -1    0    0    0  501 -0.00000000000E+00  0.00000000000E+00  0.26423729081E+02  0.26423729081E+02  0.00000000000E+00 0.  1.
          2   -1    0    0  501    0  0.00000000000E+00 -0.00000000000E+00 -0.13975922116E+04  0.13975922116E+04  0.00000000000E+00 0. -1.
         25    2    1    2    0    0 -0.80988000581E+01 -0.14281033443E+03 -0.46625558332E+03  0.50349104108E+03  0.12509427360E+03 0.  0.
          5    1    3    3  502    0 -0.55806206029E+02 -0.12764478548E+03 -0.35694970679E+03  0.38319458434E+03  0.41800000000E+01 0. -1.
         -5    1    3    3    0  502  0.47707405971E+02 -0.15165548949E+02 -0.10930587653E+03  0.12029645674E+03  0.41800000000E+01 0. -1.
        -11    1    1    2    0    0  0.27446231188E+02  0.51835109152E+01 -0.10626252472E+03  0.10987214638E+03  0.00000000000E+00 0.  1.
         11    1    1    2    0    0 -0.19347431130E+02  0.13762682351E+03 -0.79865037443E+03  0.81065275317E+03  0.00000000000E+00 0. -1.
</event>
<event>
 7    1  0.2651429E-009  0.3185949E+03  0.7561462E-02  0.1076298E+00
          2   -1    0    0  501    0  0.00000000000E+00  0.00000000000E+00  0.18741953687E+03  0.18741953687E+03  0.00000000000E+00 0. -1.
         -2   -1    0    0    0  501 -0.00000000000E+00 -0.00000000000E+00 -0.57033473013E+03  0.57033473013E+03  0.00000000000E+00 0.  1.
         25    2    1    2    0    0  0.30268335022E+03 -0.42180011420E+02 -0.24656432381E+03  0.41211473433E+03  0.12509286396E+03 0.  0.
          5    1    3    3  502    0  0.19593266078E+03 -0.86338064023E+02 -0.17048414883E+03  0.27372648074E+03  0.41800000000E+01 0. -1.
         -5    1    3    3    0  502  0.10675068945E+03  0.44158052602E+02 -0.76080174977E+02  0.13838825359E+03  0.41800000000E+01 0. -1.
        -11    1    1    2    0    0 -0.98015175807E+02  0.29584908463E+02 -0.87896315070E+02  0.13493703606E+03  0.00000000000E+00 0.  1.
         11    1    1    2    0    0 -0.20466817442E+03  0.12595102957E+02 -0.48454554382E+02  0.21070249661E+03  0.00000000000E+00 0. -1.
</event>
<event>
 7    1  0.2651429E-009  0.7582637E+02  0.7561462E-02  0.1341331E+00
          2   -1    0    0  501    0  0.00000000000E+00  0.00000000000E+00  0.74396546613E+02  0.74396546613E+02  0.00000000000E+00 0. -1.
         -2   -1    0    0    0  501 -0.00000000000E+00 -0.00000000000E+00 -0.20815718572E+03  0.20815718572E+03  0.00000000000E+00 0.  1.
         25    2    1    2    0    0 -0.17669480612E+02 -0.43102110743E+02 -0.11782438808E+03  0.17803811270E+03  0.12507989708E+03 0.  0.
          5    1    3    3  502    0 -0.46319757279E+02 -0.31774119519E+02 -0.15016350426E+00  0.56325922404E+02  0.41800000000E+01 0. -1.
         -5    1    3    3    0  502  0.28650276667E+02 -0.11327991225E+02 -0.11767422457E+03  0.12171219030E+03  0.41800000000E+01 0. -1.
        -11    1    1    2    0    0  0.32503164645E+02  0.32794812347E+02 -0.48695810270E+02  0.67106164893E+02  0.00000000000E+00 0.  1.
         11    1    1    2    0    0 -0.14833684033E+02  0.10307298396E+02  0.32759559240E+02  0.37409454738E+02  0.00000000000E+00 0. -1.
</event>
<event>
 7    1  0.2651429E-009  0.2309408E+03  0.7561462E-02  0.1125979E+00
         -1   -1    0    0    0  501 -0.00000000000E+00  0.00000000000E+00  0.10635749312E+03  0.10635749312E+03  0.00000000000E+00 0.  1.
          1   -1    0    0  501    0  0.00000000000E+00 -0.00000000000E+00 -0.63058994485E+03  0.63058994485E+03  0.00000000000E+00 0. -1.
         25    2    1    2    0    0 -0.70951777667E+02 -0.19710249902E+03 -0.11849095245E+03  0.27124026204E+03  0.12509046351E+03 0.  0.
          5    1    3    3  502    0  0.30608039976E+02 -0.76852338055E+02 -0.63821519721E+02  0.10456477779E+03  0.41800000000E+01 0.  1.
         -5    1    3    3    0  502 -0.10155981764E+03 -0.12025016097E+03 -0.54669432728E+02  0.16667548424E+03  0.41800000000E+01 0.  1.
        -11    1    1    2    0    0  0.36947103407E+02  0.21528767475E+02 -0.13175501830E+03  0.13852061625E+03  0.00000000000E+00 0. -1.
         11    1    1    2    0    0  0.34004674260E+02  0.17557373155E+03 -0.27398648099E+03  0.32718655969E+03  0.00000000000E+00 0.  1.
</event>
<event>
 7    1  0.2651429E-009  0.1346286E+03  0.7561462E-02  0.1220745E+00
         -1   -1    0    0    0  501 -0.00000000000E+00  0.00000000000E+00  0.53070317566E+03  0.53070317566E+03  0.00000000000E+00 0.  1.
          1   -1    0    0  501    0  0.00000000000E+00 -0.00000000000E+00 -0.45215915312E+02  0.45215915312E+02  0.00000000000E+00 0. -1.
         25    2    1    2    0    0 -0.94333753988E+02 -0.21188779133E+01  0.15584892823E+03  0.22102300222E+03  0.12513565557E+03 0.  0.
          5    1    3    3  502    0 -0.56237176625E+02  0.50662127243E+02  0.34573637939E+02  0.83319145530E+02  0.41800000000E+01 0.  1.
         -5    1    3    3    0  502 -0.38096577363E+02 -0.52781005156E+02  0.12127529029E+03  0.13770385669E+03  0.41800000000E+01 0.  1.
        -11    1    1    2    0    0  0.43739093318E+02 -0.42335662426E+02  0.11763016581E+03  0.13244724424E+03  0.00000000000E+00 0. -1.
         11    1    1    2    0    0  0.50594660671E+02  0.44454540339E+02  0.21200816631E+03  0.22244884452E+03  0.00000000000E+00 0.  1.
</event>
<event>
 7    1  0.2651429E-009  0.2351923E+03  0.7561462E-02  0.1123038E+00
          2   -1    0    0  501    0  0.00000000000E+00  0.00000000000E+00  0.61110769996E+03  0.61110769996E+03  0.00000000000E+00 0. -1.
         -2   -1    0    0    0  501 -0.00000000000E+00 -0.00000000000E+00 -0.10373715926E+03  0.10373715926E+03  0.00000000000E+00 0.  1.
         25    2    1    2    0    0  0.43429080060E+02  0.21652615159E+03  0.33472320552E+03  0.42006528326E+03  0.12508220723E+03 0.  0.
          5    1    3    3  502    0  0.77200518958E+01 -0.28009702284E+01 -0.75835497711E+01  0.11934289364E+02  0.41800000000E+01 0. -1.
         -5    1    3    3    0  502  0.35709028164E+02  0.21932712182E+03  0.34230675529E+03  0.40813099389E+03  0.41800000000E+01 0. -1.
        -11    1    1    2    0    0 -0.71897022081E+02 -0.16642195760E+03  0.13243868958E+03  0.22451159492E+03  0.00000000000E+00 0. -1.
         11    1    1    2    0    0  0.28467942021E+02 -0.50104193997E+02  0.40208645600E+02  0.70267981044E+02  0.00000000000E+00 0.  1.
</event>
<event>
 7    1  0.2651429E-009  0.1104031E+03  0.7561462E-02  0.1259825E+00
         -1   -1    0    0    0  501 -0.00000000000E+00  0.00000000000E+00  0.53694686342E+02  0.53694686342E+02  0.00000000000E+00 0.  1.
          1   -1    0    0  501    0  0.00000000000E+00 -0.00000000000E+00 -0.30190897695E+03  0.30190897695E+03  0.00000000000E+00 0. -1.
         25    2    1    2    0    0 -0.32681701007E+02  0.56098276377E+02 -0.15542791496E+03  0.20981168468E+03  0.12509195052E+03 0.  0.
          5    1    3    3  502    0 -0.46981807657E+02 -0.57739347414E+01 -0.66354788355E+01  0.47980522636E+02  0.41800000000E+01 0. -1.
         -5    1    3    3    0  502  0.14300106650E+02  0.61872211118E+02 -0.14879243613E+03  0.16183116204E+03  0.41800000000E+01 0. -1.
        -11    1    1    2    0    0  0.61889774743E+02 -0.50562006991E+02 -0.52094305671E+02  0.95397470889E+02  0.00000000000E+00 0. -1.
         11    1    1    2    0    0 -0.29208073736E+02 -0.55362693859E+01 -0.40692069969E+02  0.50394507721E+02  0.00000000000E+00 0.  1.
</event>
<event>
 7    1  0.2651429E-009  0.1436902E+03  0.7561462E-02  0.1208448E+00
         -1   -1    0    0    0  501 -0.00000000000E+00  0.00000000000E+00  0.48988902944E+02  0.48988902944E+02  0.00000000000E+00 0.  1.
          1   -1    0    0  501    0  0.00000000000E+00 -0.00000000000E+00 -0.49082467865E+03  0.49082467865E+03  0.00000000000E+00 0. -1.
         25    2    1    2    0    0  0.36021440486E+02  0.10137491656E+03 -0.27762878254E+03  0.32295969768E+03  0.12510318759E+03 0.  0.
          5    1    3    3  502    0 -0.14580684756E+02 -0.23368332996E+02 -0.71460479944E+02  0.76699073976E+02  0.41800000000E+01 0. -1.
         -5    1    3    3    0  502  0.50602125242E+02  0.12474324956E+03 -0.20616830260E+03  0.24626062370E+03  0.41800000000E+01 0. -1.
        -11    1    1    2    0    0 -0.53588963197E+02 -0.86817961831E+02 -0.16503379478E+03  0.19402393897E+03  0.00000000000E+00 0. -1.
         11    1    1    2    0    0  0.17567522711E+02 -0.14556954731E+02  0.82680162150E+00  0.22829944945E+02  0.00000000000E+00 0.  1.
</event>
<event>
 7    1  0.2651429E-009  0.1074805E+03  0.7561462E-02  0.1265308E+00
          2   -1    0    0  501    0  0.00000000000E+00  0.00000000000E+00  0.22673366784E+03  0.22673366784E+03  0.00000000000E+00 0. -1.
         -2   -1    0    0    0  501 -0.00000000000E+00 -0.00000000000E+00 -0.10944443567E+03  0.10944443567E+03  0.00000000000E+00 0.  1.
         25    2    1    2    0    0 -0.80289951745E+02  0.37728678675E+02  0.13784161284E+03  0.20619830395E+03  0.12508997073E+03 0.  0.
          5    1    3    3  502    0 -0.29288170575E+02  0.48283992140E+02 -0.22585317185E+01  0.56671987772E+02  0.41800000000E+01 0. -1.
         -5    1    3    3    0  502 -0.51001781170E+02 -0.10555313464E+02  0.14010014456E+03  0.14952631618E+03  0.41800000000E+01 0. -1.
        -11    1    1    2    0    0 -0.36004732290E+01 -0.20024727055E+02  0.25527262108E+02  0.32643440563E+02  0.00000000000E+00 0. -1.
         11    1    1    2    0    0  0.83890424974E+02 -0.17703951620E+02 -0.46079642774E+02  0.97336359000E+02  0.00000000000E+00 0.  1.
</event>
<event>
 7    1  0.2651429E-009  0.1068254E+03  0.7561462E-02  0.1266564E+00
         -1   -1    0    0    0  501 -0.00000000000E+00  0.00000000000E+00  0.29738068846E+02  0.29738068846E+02  0.00000000000E+00 0.  1.
          1   -1    0    0  501    0  0.00000000000E+00 -0.00000000000E+00 -0.56690632602E+03  0.56690632602E+03  0.00000000000E+00 0. -1.
         25    2    1    2    0    0 -0.72521286637E+02 -0.37949867962E+00 -0.29802624430E+03  0.33125064662E+03  0.12509143681E+03 0.  0.
          5    1    3    3  502    0  0.85603165494E+01  0.30999898816E+02 -0.18889344006E+03  0.19165718573E+03  0.41800000000E+01 0. -1.
         -5    1    3    3    0  502 -0.81081603186E+02 -0.31379397495E+02 -0.10913280424E+03  0.13959346089E+03  0.41800000000E+01 0. -1.
        -11    1    1    2    0    0  0.40478450109E+02 -0.29718191997E+02 -0.48732486793E+02  0.69975217955E+02  0.00000000000E+00 0.  1.
         11    1    1    2    0    0  0.32042836528E+02  0.30097690676E+02 -0.19040952608E+03  0.19541853028E+03  0.00000000000E+00 0. -1.
</event>
<event>
 7    1  0.2651429E-009  0.1694789E+03  0.7561462E-02  0.1178392E+00
         -1   -1    0    0    0  501 -0.00000000000E+00  0.00000000000E+00  0.16837455026E+03  0.16837455026E+03  0.00000000000E+00 0. -1.
          1   -1    0    0  501    0  0.00000000000E+00 -0.00000000000E+00 -0.18064451012E+03  0.18064451012E+03  0.00000000000E+00 0.  1.
         25    2    1    2    0    0  0.79158067638E+02 -0.99983588752E+02  0.13292979407E+02  0.17912657436E+03  0.12508760389E+03 0.  0.
          5    1    3    3  502    0 -0.19467017014E+02 -0.73715601326E+02  0.90232632626E+01  0.76888531721E+02  0.41800000000E+01 0.  1.
         -5    1    3    3    0  502  0.98625084652E+02 -0.26267987426E+02  0.42697161440E+01  0.10223804264E+03  0.41800000000E+01 0.  1.
        -11    1    1    2    0    0 -0.86294660864E+02  0.31910684417E+02 -0.39357388623E+02  0.10007029686E+03  0.00000000000E+00 0.  1.
         11    1    1    2    0    0  0.71365932259E+01  0.68072904335E+02  0.13794449351E+02  0.69822189169E+02  0.00000000000E+00 0. -1.
</event>
<event>
 7    1  0.2651429E-009  0.1183815E+03  0.7561462E-02  0.1245791E+00
          2   -1    0    0  501    0  0.00000000000E+00  0.00000000000E+00  0.11989430576E+03  0.11989430576E+03  0.00000000000E+00 0. -1.
         -2   -1    0    0    0  501 -0.00000000000E+00 -0.00000000000E+00 -0.14171973728E+03  0.14171973728E+03  0.00000000000E+00 0.  1.
         25    2    1    2    0    0 -0.25556398035E+02  0.64437058083E+02  0.27603405068E+01  0.14303677330E+03  0.12508651047E+03 0.  0.
          5    1    3    3  502    0  0.12500862590E+02 -0.28598424689E+02 -0.23226877968E+02  0.39129294912E+02  0.41800000000E+01 0.  1.
         -5    1    3    3    0  502 -0.38057260624E+02  0.93035482771E+02  0.25987218475E+02  0.10390747839E+03  0.41800000000E+01 0.  1.
        -11    1    1    2    0    0  0.51353125613E+02 -0.59155557329E+02  0.55813357120E+01  0.78534545147E+02  0.00000000000E+00 0. -1.
         11    1    1    2    0    0 -0.25796727579E+02 -0.52815007538E+01 -0.30167107735E+02  0.40042724596E+02  0.00000000000E+00 0.  1.
</event>
<event>
 7    1  0.2651429E-009  0.7374099E+02  0.7561462E-02  0.1347815E+00
          1   -1    0    0  501    0  0.00000000000E+00  0.00000000000E+00  0.46429515340E+03  0.46429515340E+03  0.00000000000E+00 0. -1.
         -1   -1    0    0    0  501 -0.00000000000E+00 -0.00000000000E+00 -0.42222141993E+02  0.42222141993E+02  0.00000000000E+00 0.  1.
         25    2    1    2    0    0  0.35251827957E+02  0.55288231623E+02  0.33112067844E+03  0.35998358810E+03  0.12509116708E+03 0.  0.
          5    1    3    3  502    0  0.43192614970E+02  0.28446389010E+02  0.35171455288E+02  0.62684150331E+02  0.41800000000E+01 0.  1.
         -5    1    3    3    0  502 -0.79407870133E+01  0.26841842613E+02  0.29594922315E+03  0.29729943776E+03  0.41800000000E+01 0.  1.
        -11    1    1    2    0    0 -0.13479663461E+02 -0.91980739013E+01  0.94060122039E+02  0.95465242096E+02  0.00000000000E+00 0. -1.
         11    1    1    2    0    0 -0.21772164496E+02 -0.46090157721E+02 -0.31077890633E+01  0.51068465206E+02  0.00000000000E+00 0.  1.
</event>
<event>
 7    1  0.2686721E-009  0.2037170E+03  0.7561462E-02  0.1146640E+00
          2   -1    0    0  501    0  0.00000000000E+00  0.00000000000E+00  0.12384139507E+04  0.12384139507E+04  0.00000000000E+00 0. -1.
         -2   -1    0    0    0  501 -0.00000000000E+00 -0.00000000000E+00 -0.46437031552E+02  0.46437031552E+02  0.00000000000E+00 0.  1.
         25    2    1    2    0    0 -0.12217759199E+03  0.14844998073E+03  0.86498187276E+03  0.89487741043E+03  0.12508868345E+03 0.  0.
          5    1    3    3  502    0 -0.66342225100E+01  0.31478772368E+02  0.31131509747E+02  0.44961865144E+02  0.41800000000E+01 0. -1.
         -5    1    3    3    0  502 -0.11554336948E+03  0.11697120836E+03  0.83385036302E+03  0.84991554529E+03  0.41800000000E+01 0. -1.
        -11    1    1    2    0    0 -0.69992944257E+01 -0.43579083903E+02  0.91971451787E+02  0.10201409030E+03  0.00000000000E+00 0. -1.
         11    1    1    2    0    0  0.12917688641E+03 -0.10487089682E+03  0.23502359463E+03  0.28795948155E+03  0.00000000000E+00 0.  1.
</event>
<event>
 7    1  0.2651429E-009  0.1267308E+03  0.7561462E-02  0.1232389E+00
          1   -1    0    0  501    0  0.00000000000E+00  0.00000000000E+00  0.88781226239E+02  0.88781226239E+02  0.00000000000E+00 0. -1.
         -1   -1    0    0    0  501 -0.00000000000E+00 -0.00000000000E+00 -0.21041723409E+03  0.21041723409E+03  0.00000000000E+00 0.  1.
         25    2    1    2    0    0  0.40409480179E+02 -0.69326813587E+02 -0.42731659845E+02  0.15462393492E+03  0.12507371158E+03 0.  0.
          5    1    3    3  502    0  0.84112944198E+02 -0.57319854759E+02 -0.38528944135E+02  0.10891512782E+03  0.41800000000E+01 0.  1.
         -5    1    3    3    0  502 -0.43703464020E+02 -0.12006958828E+02 -0.42027157094E+01  0.45708807105E+02  0.41800000000E+01 0.  1.
        -11    1    1    2    0    0 -0.11623184095E+02 -0.13835744066E+02 -0.48022275860E+02  0.51309504004E+02  0.00000000000E+00 0.  1.
         11    1    1    2    0    0 -0.28786296083E+02  0.83162557653E+02 -0.30882072151E+02  0.93265021406E+02  0.00000000000E+00 0. -1.
</event>
<event>
 7    1  0.2651429E-009  0.1089065E+03  0.7561462E-02  0.1262608E+00
          1   -1    0    0  501    0  0.00000000000E+00  0.00000000000E+00  0.18631987404E+03  0.18631987404E+03  0.00000000000E+00 0. -1.
         -1   -1    0    0    0  501 -0.00000000000E+00 -0.00000000000E+00 -0.11716893980E+03  0.11716893980E+03  0.00000000000E+00 0.  1.
         25    2    1    2    0    0 -0.58000787491E+02 -0.46247766469E+02  0.11022988651E+03  0.18248399612E+03  0.12508730434E+03 0.  0.
          5    1    3    3  502    0 -0.81100267434E+02  0.10557463102E+02  0.77947283374E+02  0.11305735178E+03  0.41800000000E+01 0. -1.
         -5    1    3    3    0  502  0.23099479943E+02 -0.56805229571E+02  0.32282603137E+02  0.69426644349E+02  0.41800000000E+01 0. -1.
        -11    1    1    2    0    0  0.19456330136E+02  0.11749084307E+02  0.27134405687E+02  0.35395843491E+02  0.00000000000E+00 0. -1.
         11    1    1    2    0    0  0.38544457354E+02  0.34498682162E+02 -0.68213357960E+02  0.85608974225E+02  0.00000000000E+00 0.  1.
</event>
<event>
 7    1  0.2651429E-009  0.1098637E+03  0.7561462E-02  0.1260822E+00
          1   -1    0    0  501    0  0.00000000000E+00  0.00000000000E+00  0.95247164011E+02  0.95247164011E+02  0.00000000000E+00 0. -1.
         -1   -1    0    0    0  501 -0.00000000000E+00 -0.00000000000E+00 -0.16000234610E+03  0.16000234610E+03  0.00000000000E+00 0.  1.
         25    2    1    2    0    0  0.55809526950E+02  0.11673834111E+02 -0.52238903331E+02  0.14707300770E+03  0.12510229763E+03 0.  0.
          5    1    3    3  502    0  0.24517176090E+01  0.61023887502E+02 -0.40323986083E+02  0.73303628960E+02  0.41800000000E+01 0.  1.
         -5    1    3    3    0  502  0.53357809341E+02 -0.49350053391E+02 -0.11914917248E+02  0.73769378745E+02  0.41800000000E+01 0.  1.
        -11    1    1    2    0    0 -0.32675060985E+02 -0.38361802384E+02 -0.39255513099E+02  0.63877091364E+02  0.00000000000E+00 0. -1.
         11    1    1    2    0    0 -0.23134465965E+02  0.26687968273E+02  0.26739234338E+02  0.44299411046E+02  0.00000000000E+00 0.  1.
</event>
<event>
 7    1  0.2651429E-009  0.2584611E+03  0.7561462E-02  0.1108071E+00
         -1   -1    0    0    0  501 -0.00000000000E+00  0.00000000000E+00  0.46098583500E+03  0.46098583500E+03  0.00000000000E+00 0.  1.
          1   -1    0    0  501    0  0.00000000000E+00 -0.00000000000E+00 -0.16301212466E+03  0.16301212466E+03  0.00000000000E+00 0. -1.
         25    2    1    2    0    0 -0.11932666432E+03  0.20888508543E+03  0.69554016480E+02  0.27992107943E+03  0.12508484228E+03 0.  0.
          5    1    3    3  502    0 -0.90278869757E+02  0.44568316547E+02  0.48008380882E+02  0.11161938093E+03  0.41800000000E+01 0. -1.
         -5    1    3    3    0  502 -0.29047794568E+02  0.16431676888E+03  0.21545635598E+02  0.16830169850E+03  0.41800000000E+01 0. -1.
        -11    1    1    2    0    0  0.51535331408E+02 -0.15279070504E+03  0.10469645888E+03  0.19225565904E+03  0.00000000000E+00 0. -1.
         11    1    1    2    0    0  0.67791332917E+02 -0.56094380385E+02  0.12372323498E+03  0.15182122119E+03  0.00000000000E+00 0.  1.
</event>
<event>
 7    1  0.2651429E-009  0.1019461E+03  0.7561462E-02  0.1276256E+00
          3   -1    0    0  501    0  0.00000000000E+00  0.00000000000E+00  0.25273408079E+03  0.25273408079E+03  0.00000000000E+00 0. -1.
         -3   -1    0    0    0  501 -0.00000000000E+00 -0.00000000000E+00 -0.11171494572E+03  0.11171494572E+03  0.00000000000E+00 0.  1.
         25    2    1    2    0    0 -0.35122391854E+01  0.21431837947E+01  0.21263599564E+03  0.24673537651E+03  0.12508936934E+03 0.  0.
          5    1    3    3  502    0 -0.57297041783E+02  0.27497132860E+02  0.88565681584E+02  0.10908893467E+03  0.41800000000E+01 0. -1.
         -5    1    3    3    0  502  0.53784802598E+02 -0.25353949066E+02  0.12407031405E+03  0.13764644185E+03  0.41800000000E+01 0. -1.
        -11    1    1    2    0    0  0.38519974732E+02  0.15341174021E+02 -0.66335864014E+02  0.78227788721E+02  0.00000000000E+00 0.  1.
         11    1    1    2    0    0 -0.35007735547E+02 -0.17484357815E+02 -0.52809965427E+01  0.39485861277E+02  0.00000000000E+00 0. -1.
</event>
<event>
 7    1  0.2651429E-009  0.1436039E+03  0.7561462E-02  0.1208560E+00
         -1   -1    0    0    0  501 -0.00000000000E+00  0.00000000000E+00  0.51758721454E+02  0.51758721454E+02  0.00000000000E+00 0.  1.
          1   -1    0    0  501    0  0.00000000000E+00 -0.00000000000E+00 -0.46099468505E+03  0.46099468505E+03  0.00000000000E+00 0. -1.
         25    2    1    2    0    0 -0.12381655558E+01  0.98910633092E+02 -0.14338666012E+03  0.21447131699E+03  0.12511340903E+03 0.  0.
          5    1    3    3  502    0 -0.59989039488E+02  0.72161200505E+02 -0.73760682609E+02  0.11943213310E+03  0.41800000000E+01 0.  1.
         -5    1    3    3    0  502  0.58750873932E+02  0.26749432587E+02 -0.69625977509E+02  0.95039183896E+02  0.41800000000E+01 0.  1.
        -11    1    1    2    0    0  0.15985448276E+02  0.98852250824E+01 -0.13673040743E+02  0.23242294953E+02  0.00000000000E+00 0.  1.
         11    1    1    2    0    0 -0.14747282720E+02 -0.10879585817E+03 -0.25217626273E+03  0.27503979455E+03  0.00000000000E+00 0. -1.
</event>
<event>
 7    1  0.2651429E-009  0.2060199E+03  0.7561462E-02  0.1144757E+00
         -2   -1    0    0    0  501 -0.00000000000E+00  0.00000000000E+00  0.47602279175E+02  0.47602279175E+02  0.00000000000E+00 0.  1.
          2   -1    0    0  501    0  0.00000000000E+00 -0.00000000000E+00 -0.14282279687E+04  0.14282279687E+04  0.00000000000E+00 0. -1.
         25    2    1    2    0    0  0.25703252137E+02 -0.19575657499E+03 -0.10325856944E+04  0.10587078423E+04  0.12509110781E+03 0.  0.
          5    1    3    3  502    0 -0.17373183508E+02 -0.53794991886E+02 -0.10499621051E+03  0.11932059872E+03  0.41800000000E+01 0.  1.
         -5    1    3    3    0  502  0.43076435646E+02 -0.14196158311E+03 -0.92758948390E+03  0.93938724360E+03  0.41800000000E+01 0.  1.
        -11    1    1    2    0    0  0.14699929022E+02  0.12167305068E+03 -0.11041995665E+03  0.16496358993E+03  0.00000000000E+00 0.  1.
         11    1    1    2    0    0 -0.40403181160E+02  0.74083524309E+02 -0.23762003850E+03  0.25215881566E+03  0.00000000000E+00 0. -1.
</event>
<event>
 7    1  0.2651429E-009  0.1038469E+03  0.7561462E-02  0.1272408E+00
         -2   -1    0    0    0  501 -0.00000000000E+00  0.00000000000E+00  0.52015230176E+02  0.52015230176E+02  0.00000000000E+00 0.  1.
          2   -1    0    0  501    0  0.00000000000E+00 -0.00000000000E+00 -0.25852333333E+03  0.25852333333E+03  0.00000000000E+00 0. -1.
         25    2    1    2    0    0 -0.12506727428E+01  0.39127919980E+02 -0.13235120080E+03  0.18627421630E+03  0.12509470413E+03 0.  0.
          5    1    3    3  502    0  0.19584800858E+02  0.72954744320E+02 -0.39831252634E+02  0.85498305421E+02  0.41800000000E+01 0. -1.
         -5    1    3    3    0  502 -0.20835473601E+02 -0.33826824340E+02 -0.92519948164E+02  0.10077591088E+03  0.41800000000E+01 0. -1.
        -11    1    1    2    0    0 -0.32777085065E+02  0.82135358290E+01 -0.55705222071E+01  0.34246608502E+02  0.00000000000E+00 0.  1.
         11    1    1    2    0    0  0.34027757808E+02 -0.47341455809E+02 -0.68586380151E+02  0.90017738706E+02  0.00000000000E+00 0. -1.
</event>
<event>
 7    1  0.2651429E-009  0.1412456E+03  0.7561462E-02  0.1211663E+00
          4   -1    0    0  501    0  0.00000000000E+00  0.00000000000E+00  0.17696538613E+03  0.17696538613E+03  0.00000000000E+00 0. -1.
         -4   -1    0    0    0  501 -0.00000000000E+00 -0.00000000000E+00 -0.12195725771E+03  0.12195725771E+03  0.00000000000E+00 0.  1.
         25    2    1    2    0    0 -0.28645888165E+02 -0.94979370965E+02  0.30531870066E+02  0.16254771966E+03  0.12509155951E+03 0.  0.
          5    1    3    3  502    0  0.40534761088E+02 -0.55196272268E+02 -0.15481844403E+02  0.70333883974E+02  0.41800000000E+01 0. -1.
         -5    1    3    3    0  502 -0.69180649253E+02 -0.39783098697E+02  0.46013714469E+02  0.92213835687E+02  0.41800000000E+01 0. -1.
        -11    1    1    2    0    0 -0.72033680905E+01  0.97748016880E+02  0.14662919932E+02  0.99103806873E+02  0.00000000000E+00 0.  1.
         11    1    1    2    0    0  0.35849256255E+02 -0.27686459155E+01  0.98133384220E+01  0.37271117306E+02  0.00000000000E+00 0. -1.
</event>
<event>
 7    1  0.2651429E-009  0.1047399E+03  0.7561462E-02  0.1270633E+00
         -2   -1    0    0    0  501 -0.00000000000E+00  0.00000000000E+00  0.52884811178E+02  0.52884811178E+02  0.00000000000E+00 0.  1.
          2   -1    0    0  501    0  0.00000000000E+00 -0.00000000000E+00 -0.36069309510E+03  0.36069309510E+03  0.00000000000E+00 0. -1.
         25    2    1    2    0    0 -0.41277935696E+02 -0.15394492254E+02 -0.57702266551E+02  0.14462980911E+03  0.12508945499E+03 0.  0.
          5    1    3    3  502    0 -0.21271025858E+01  0.44568059499E+02  0.10083890555E+02  0.45934668189E+02  0.41800000000E+01 0.  1.
         -5    1    3    3    0  502 -0.39150833110E+02 -0.59962551753E+02 -0.67786157106E+02  0.98695140920E+02  0.41800000000E+01 0.  1.
        -11    1    1    2    0    0  0.55024503151E+02  0.37720963578E+02 -0.13121498531E+03  0.14720033767E+03  0.00000000000E+00 0.  1.
         11    1    1    2    0    0 -0.13746567455E+02 -0.22326471323E+02 -0.11889103206E+03  0.12174775949E+03  0.00000000000E+00 0. -1.
</event>
<event>
 7    1  0.2651429E-009  0.9641047E+02  0.7561462E-02  0.1288031E+00
         -1   -1    0    0    0  501 -0.00000000000E+00  0.00000000000E+00  0.48307133229E+03  0.48307133229E+03  0.00000000000E+00 0.  1.
          1   -1    0    0  501    0  0.00000000000E+00 -0.00000000000E+00 -0.42674588885E+02  0.42674588885E+02  0.00000000000E+00 0. -1.
         25    2    1    2    0    0 -0.56138586487E+01 -0.28423293932E+02  0.40261508761E+03  0.42258742407E+03  0.12506727457E+03 0.  0.
          5    1    3    3  502    0  0.55039666916E+02 -0.20625178363E+02  0.12372011423E+03  0.13703613385E+03  0.41800000000E+01 0. -1.
         -5    1    3    3    0  502 -0.60653525564E+02 -0.77981155692E+01  0.27889497338E+03  0.28555129022E+03  0.41800000000E+01 0. -1.
        -11    1    1    2    0    0 -0.29303468606E+02  0.31011737542E+01  0.50256293949E+02  0.58258094996E+02  0.00000000000E+00 0.  1.
         11    1    1    2    0    0  0.34917327255E+02  0.25322120178E+02 -0.12474638147E+02  0.44900402112E+02  0.00000000000E+00 0. -1.
</event>
<event>
 7    1  0.2809587E-009  0.1196024E+03  0.7561462E-02  0.1243754E+00
          2   -1    0    0  501    0  0.00000000000E+00  0.00000000000E+00  0.13315284142E+04  0.13315284142E+04  0.00000000000E+00 0. -1.
         -2   -1    0    0    0  501 -0.00000000000E+00 -0.00000000000E+00 -0.12763828350E+02  0.12763828350E+02  0.00000000000E+00 0.  1.
         25    2    1    2    0    0 -0.13436997922E+02 -0.60562595784E+02  0.91598100523E+03  0.92656180750E+03  0.12508876949E+03 0.  0.
          5    1    3    3  502    0  0.49398038951E+02 -0.56220892566E+02  0.42784823742E+03  0.43436452626E+03  0.41800000000E+01 0.  1.
         -5    1    3    3    0  502 -0.62835036872E+02 -0.43417032174E+01  0.48813276782E+03  0.49219728124E+03  0.41800000000E+01 0.  1.
        -11    1    1    2    0    0  0.30030747364E+02 -0.75953159405E+01  0.56706995919E+02  0.64615926811E+02  0.00000000000E+00 0.  1.
         11    1    1    2    0    0 -0.16593749443E+02  0.68157911724E+02  0.34607658473E+03  0.35311450827E+03  0.00000000000E+00 0. -1.
</event>
<event>
 7    1  0.2651429E-009  0.2005720E+03  0.7561462E-02  0.1149257E+00
         -1   -1    0    0    0  501 -0.00000000000E+00  0.00000000000E+00  0.40925191214E+02  0.40925191214E+02  0.00000000000E+00 0.  1.
          1   -1    0    0  501    0  0.00000000000E+00 -0.00000000000E+00 -0.11758250331E+04  0.11758250331E+04  0.00000000000E+00 0. -1.
         25    2    1    2    0    0 -0.14900496616E+03 -0.11846184764E+03 -0.56047630418E+03  0.60499343436E+03  0.12509068225E+03 0.  0.
          5    1    3    3  502    0  0.43653240462E+01  0.80496665141E+01  0.22896593172E+00  0.10068664778E+02  0.41800000000E+01 0. -1.
         -5    1    3    3    0  502 -0.15337029021E+03 -0.12651151415E+03 -0.56070527012E+03  0.59492476959E+03  0.41800000000E+01 0. -1.
        -11    1    1    2    0    0  0.10951699950E+03  0.71180979097E+02 -0.49086106017E+03  0.50794220670E+03  0.00000000000E+00 0. -1.
         11    1    1    2    0    0  0.39487966663E+02  0.47280868539E+02 -0.83562477487E+02  0.10381458320E+03  0.00000000000E+00 0.  1.
</event>
<event>
 6    1  0.2651429E-009  0.1408693E+03  0.7561462E-02  0.1212164E+00
          1   -1    0    0  501    0  0.00000000000E+00  0.00000000000E+00  0.57868066919E+03  0.57868066919E+03  0.00000000000E+00 0.  1.
         -1   -1    0    0    0  501 -0.00000000000E+00 -0.00000000000E+00 -0.40575234846E+02  0.40575234846E+02  0.00000000000E+00 0. -1.
          5    1    1    2  502    0  0.44320049820E+02 -0.97269347085E+02  0.19084309034E+03  0.21877877006E+03  0.41800000000E+01 0. -1.
         -5    1    1    2    0  502  0.31234342997E+02  0.37929347024E+02  0.61437861318E+02  0.78780091085E+02  0.41800000000E+01 0. -1.
        -11    1    1    2    0    0 -0.62250575336E+02  0.79701923883E+02  0.27850294072E+03  0.29629616736E+03  0.00000000000E+00 0.  1.
         11    1    1    2    0    0 -0.13303817481E+02 -0.20361923821E+02  0.73215419719E+01  0.25400875539E+02  0.00000000000E+00 0. -1.
</event>
<event>
 7    1  0.2651429E-009  0.1015086E+03  0.7561462E-02  0.1277155E+00
          3   -1    0    0  501    0  0.00000000000E+00  0.00000000000E+00  0.18000490797E+03  0.18000490797E+03  0.00000000000E+00 0. -1.
         -3   -1    0    0    0  501 -0.00000000000E+00 -0.00000000000E+00 -0.90055961402E+02  0.90055961402E+02  0.00000000000E+00 0.  1.
         25    2    1    2    0    0  0.50735368659E+02  0.35276107533E+02  0.74027520193E+02  0.15791741038E+03  0.12505740026E+03 0.  0.
          5    1    3    3  502    0  0.76179922838E+02  0.50137401593E+02  0.86390769241E+02  0.12569000395E+03  0.41800000000E+01 0.  1.
         -5    1    3    3    0  502 -0.25444554179E+02 -0.14861294060E+02 -0.12363249048E+02  0.32227406435E+02  0.41800000000E+01 0.  1.
        -11    1    1    2    0    0 -0.59437944015E+02 -0.40394679072E+02 -0.20189829205E+02  0.74647360900E+02  0.00000000000E+00 0.  1.
         11    1    1    2    0    0  0.87025753554E+01  0.51185715387E+01  0.36111255577E+02  0.37496098087E+02  0.00000000000E+00 0. -1.
</event>
<event>
 7    1  0.2651429E-009  0.2126790E+03  0.7561462E-02  0.1139462E+00
         -2   -1    0    0    0  501 -0.00000000000E+00  0.00000000000E+00  0.48268101309E+02  0.48268101309E+02  0.00000000000E+00 0. -1.
          2   -1    0    0  501    0  0.00000000000E+00 -0.00000000000E+00 -0.10448601937E+04  0.10448601937E+04  0.00000000000E+00 0.  1.
         25    2    1    2    0    0  0.18560306611E+03  0.11093923103E+02 -0.36317436778E+03  0.42674204333E+03  0.12506628982E+03 0.  0.
          5    1    3    3  502    0  0.82674866273E+02  0.62554183048E+02 -0.21809474982E+03  0.24151801512E+03  0.41800000000E+01 0. -1.
         -5    1    3    3    0  502  0.10292819984E+03 -0.51460259945E+02 -0.14507961796E+03  0.18522402820E+03  0.41800000000E+01 0. -1.
        -11    1    1    2    0    0 -0.11509873977E+03  0.37233750731E+02 -0.39498863881E+03  0.41309816858E+03  0.00000000000E+00 0.  1.
         11    1    1    2    0    0 -0.70504326338E+02 -0.48327673833E+02 -0.23842908582E+03  0.25328808313E+03  0.00000000000E+00 0. -1.
</event>
<event>
 7    1  0.2651429E-009  0.2501141E+03  0.7561462E-02  0.1113233E+00
         -2   -1    0    0    0  501 -0.00000000000E+00  0.00000000000E+00  0.27243690697E+03  0.27243690697E+03  0.00000000000E+00 0.  1.
          2   -1    0    0  501    0  0.00000000000E+00 -0.00000000000E+00 -0.27583431210E+03  0.27583431210E+03  0.00000000000E+00 0. -1.
         25    2    1    2    0    0  0.23149281248E+03  0.90530048312E+02 -0.38627268862E+02  0.28093510441E+03  0.12509138704E+03 0.  0.
          5    1    3    3  502    0  0.34283596742E+02  0.25657598051E+02 -0.58189655491E+02  0.72368402977E+02  0.41800000000E+01 0.  1.
         -5    1    3    3    0  502  0.19720921574E+03  0.64872450261E+02  0.19562386628E+02  0.20856670143E+03  0.41800000000E+01 0.  1.
        -11    1    1    2    0    0 -0.16880302051E+03 -0.76431718118E+02  0.65197852451E+02  0.19643580944E+03  0.00000000000E+00 0.  1.
         11    1    1    2    0    0 -0.62689791972E+02 -0.14098330194E+02 -0.29967988721E+02  0.70900305216E+02  0.00000000000E+00 0. -1.
</event>
<event>
 7    1  0.8142017E-009  0.9217499E+02  0.7561462E-02  0.1297669E+00
          1   -1    0    0  501    0  0.00000000000E+00  0.00000000000E+00  0.18988422421E+03  0.18988422421E+03  0.00000000000E+00 0. -1.
         -1   -1    0    0    0  501 -0.00000000000E+00 -0.00000000000E+00 -0.79485256758E+02  0.79485256758E+02  0.00000000000E+00 0.  1.
         25    2    1    2    0    0 -0.11824343978E+02  0.39490010883E+02  0.17426576440E+02  0.13285518461E+03  0.12509012128E+03 0.  0.
          5    1    3    3  502    0 -0.35263097696E+02  0.77666919384E+02  0.24475168710E+01  0.85434765550E+02  0.41800000000E+01 0. -1.
         -5    1    3    3    0  502  0.23438753718E+02 -0.38176908501E+02  0.14979059569E+02  0.47420419063E+02  0.41800000000E+01 0. -1.
        -11    1    1    2    0    0  0.17723910406E+02 -0.42486456414E+01  0.98662918462E+02  0.10033224541E+03  0.00000000000E+00 0. -1.
         11    1    1    2    0    0 -0.58995664281E+01 -0.35241365242E+02 -0.56905274457E+01  0.36182050947E+02  0.00000000000E+00 0.  1.
</event>
<event>
 7    1  0.2651429E-009  0.1379587E+03  0.7561462E-02  0.1216102E+00
         -1   -1    0    0    0  501 -0.00000000000E+00  0.00000000000E+00  0.21676466330E+03  0.21676466330E+03  0.00000000000E+00 0.  1.
          1   -1    0    0  501    0  0.00000000000E+00 -0.00000000000E+00 -0.33900199337E+03  0.33900199337E+03  0.00000000000E+00 0. -1.
         25    2    1    2    0    0  0.78776781084E+02 -0.44069130030E+02 -0.29926292756E+03  0.33667938013E+03  0.12508731244E+03 0.  0.
          5    1    3    3  502    0 -0.65640388753E+01 -0.64695923361E+02 -0.10705991921E+03  0.12533135205E+03  0.41800000000E+01 0. -1.
         -5    1    3    3    0  502  0.85340819960E+02  0.20626793331E+02 -0.19220300835E+03  0.21134802808E+03  0.41800000000E+01 0. -1.
        -11    1    1    2    0    0 -0.22958002255E+02  0.60468016256E+02  0.59202077371E+02  0.87683161568E+02  0.00000000000E+00 0. -1.
         11    1    1    2    0    0 -0.55818778829E+02 -0.16398886226E+02  0.11782352012E+03  0.13140411497E+03  0.00000000000E+00 0.  1.
</event>
<event>
 7    1  0.2651429E-009  0.1247499E+03  0.7561462E-02  0.1235461E+00
          1   -1    0    0  501    0  0.00000000000E+00  0.00000000000E+00  0.19565986730E+03  0.19565986730E+03  0.00000000000E+00 0. -1.
         -1   -1    0    0    0  501 -0.00000000000E+00 -0.00000000000E+00 -0.14663517074E+03  0.14663517074E+03  0.00000000000E+00 0.  1.
         25    2    1    2    0    0  0.99914909462E+02 -0.35689521903E+02  0.10198490445E+03  0.19314234570E+03  0.12508522639E+03 0.  0.
          5    1    3    3  502    0  0.37803678097E+02 -0.29053290628E+02 -0.23191259280E+02  0.53183819729E+02  0.41800000000E+01 0. -1.
         -5    1    3    3    0  502  0.62111231366E+02 -0.66362312743E+01  0.12517616373E+03  0.13995852598E+03  0.41800000000E+01 0. -1.
        -11    1    1    2    0    0  0.15813326347E+02  0.14352420117E+02 -0.41609483453E+01  0.21756993002E+02  0.00000000000E+00 0. -1.
         11    1    1    2    0    0 -0.11572823581E+03  0.21337101786E+02 -0.48799259541E+02  0.12739569933E+03  0.00000000000E+00 0.  1.
</event>
<event>
 7    1  0.2651429E-009  0.1095070E+03  0.7561462E-02  0.1261485E+00
         -1   -1    0    0    0  501 -0.00000000000E+00  0.00000000000E+00  0.32586974811E+02  0.32586974811E+02  0.00000000000E+00 0.  1.
          1   -1    0    0  501    0  0.00000000000E+00 -0.00000000000E+00 -0.46279520140E+03  0.46279520140E+03  0.00000000000E+00 0. -1.
         25    2    1    2    0    0  0.43073843860E+02 -0.38478509126E+02 -0.24891964640E+03  0.28450636700E+03  0.12508769250E+03 0.  0.
          5    1    3    3  502    0  0.34055196368E+02  0.27923548194E+02 -0.25163102529E+02  0.50893369630E+02  0.41800000000E+01 0. -1.
         -5    1    3    3    0  502  0.90186474919E+01 -0.66402057320E+02 -0.22375654387E+03  0.23361299738E+03  0.41800000000E+01 0. -1.
        -11    1    1    2    0    0 -0.50343650042E+01 -0.29397916793E+02 -0.46596825386E+02  0.55324917341E+02  0.00000000000E+00 0. -1.
         11    1    1    2    0    0 -0.38039478856E+02  0.67876425919E+02 -0.13469175481E+03  0.15555089187E+03  0.00000000000E+00 0.  1.
</event>
<event>
 7    1  0.2651429E-009  0.2711575E+03  0.7561462E-02  0.1100619E+00
         -2   -1    0    0    0  501 -0.00000000000E+00  0.00000000000E+00  0.50278840489E+02  0.50278840489E+02  0.00000000000E+00 0.  1.
          2   -1    0    0  501    0  0.00000000000E+00 -0.00000000000E+00 -0.16716575001E+04  0.16716575001E+04  0.00000000000E+00 0. -1.
         25    2    1    2    0    0  0.13000629657E+03 -0.22513908131E+03 -0.10243763317E+04  0.10642287976E+04  0.12508725580E+03 0.  0.
          5    1    3    3  502    0  0.81950576983E+02 -0.21656325352E+03 -0.73154631316E+03  0.76732849585E+03  0.41800000000E+01 0.  1.
         -5    1    3    3    0  502  0.48055719589E+02 -0.85758277860E+01 -0.29283001855E+03  0.29690030174E+03  0.41800000000E+01 0.  1.
        -11    1    1    2    0    0 -0.60933246092E+02  0.76280166515E+02 -0.33155374487E+03  0.34562900634E+03  0.00000000000E+00 0.  1.
         11    1    1    2    0    0 -0.69073050480E+02  0.14885891479E+03 -0.26544858302E+03  0.31207853666E+03  0.00000000000E+00 0. -1.
</event>
<event>
 7    1  0.2651429E-009  0.1628848E+03  0.7561462E-02  0.1185478E+00
          1   -1    0    0  501    0  0.00000000000E+00  0.00000000000E+00  0.49751799157E+03  0.49751799157E+03  0.00000000000E+00 0. -1.
         -1   -1    0    0    0  501 -0.00000000000E+00 -0.00000000000E+00 -0.65567311031E+02  0.65567311031E+02  0.00000000000E+00 0.  1.
         25    2    1    2    0    0 -0.12575537681E+03  0.68812812986E+02  0.23484134451E+03  0.30223511031E+03  0.12508391898E+03 0.  0.
          5    1    3    3  502    0 -0.71393899524E+02 -0.18553354234E+02  0.15574899080E+03  0.17238484962E+03  0.41800000000E+01 0. -1.
         -5    1    3    3    0  502 -0.54361477290E+02  0.87366167220E+02  0.79092353705E+02  0.12985026069E+03  0.41800000000E+01 0. -1.
        -11    1    1    2    0    0  0.12313280774E+03 -0.55025330683E+02  0.11408794959E+03  0.17665088621E+03  0.00000000000E+00 0.  1.
         11    1    1    2    0    0  0.26225690771E+01 -0.13787482303E+02  0.83021386444E+02  0.84199306077E+02  0.00000000000E+00 0. -1.
</event>
<event>
 7    1  0.2651429E-009  0.1353168E+03  0.7561462E-02  0.1219773E+00
         -2   -1    0    0    0  501 -0.00000000000E+00  0.00000000000E+00  0.10701513317E+03  0.10701513317E+03  0.00000000000E+00 0.  1.
          2   -1    0    0  501    0  0.00000000000E+00 -0.00000000000E+00 -0.25255022149E+03  0.25255022149E+03  0.00000000000E+00 0. -1.
         25    2    1    2    0    0 -0.51026950874E+02 -0.98965289524E+02 -0.13566612852E+03  0.21553223842E+03  0.12510383337E+03 0.  0.
          5    1    3    3  502    0 -0.86184829801E+02 -0.71947947915E+02 -0.12805152545E+03  0.17034963360E+03  0.41800000000E+01 0.  1.
         -5    1    3    3    0  502  0.35157878927E+02 -0.27017341609E+02 -0.76146030705E+01  0.45182604818E+02  0.41800000000E+01 0.  1.
        -11    1    1    2    0    0  0.31100519288E+02  0.35331734958E+02  0.39190735496E+02  0.61249388110E+02  0.00000000000E+00 0.  1.
         11    1    1    2    0    0  0.19926431586E+02  0.63633554566E+02 -0.49059695292E+02  0.82783728139E+02  0.00000000000E+00 0. -1.
</event>
<event>
 7    1  0.2651429E-009  0.1613423E+03  0.7561462E-02  0.1187190E+00
          2   -1    0    0  501    0  0.00000000000E+00  0.00000000000E+00  0.39842562473E+03  0.39842562473E+03  0.00000000000E+00 0. -1.
         -2   -1    0    0    0  501 -0.00000000000E+00 -0.00000000000E+00 -0.76482415027E+02  0.76482415027E+02  0.00000000000E+00 0.  1.
         25    2    1    2    0    0  0.10027351529E+03 -0.87059141333E+02  0.21355194448E+03  0.28086626668E+03  0.12508938728E+03 0.  0.
          5    1    3    3  502    0  0.95211350861E+02 -0.10727833021E+03  0.21615420406E+03  0.25944932800E+03  0.41800000000E+01 0. -1.
         -5    1    3    3    0  502  0.50621644248E+01  0.20219188874E+02 -0.26022595868E+01  0.21416938678E+02  0.41800000000E+01 0. -1.
        -11    1    1    2    0    0 -0.11202624978E+03  0.57081867257E+02  0.69886475616E+02  0.14384832179E+03  0.00000000000E+00 0.  1.
         11    1    1    2    0    0  0.11752734492E+02  0.29977274076E+02  0.38504789607E+02  0.50193451284E+02  0.00000000000E+00 0. -1.
</event>
<event>
 7    1  0.2651429E-009  0.1052754E+03  0.7561462E-02  0.1269578E+00
          4   -1    0    0  501    0  0.00000000000E+00  0.00000000000E+00  0.22734081451E+02  0.22734081451E+02  0.00000000000E+00 0. -1.
         -4   -1    0    0    0  501 -0.00000000000E+00 -0.00000000000E+00 -0.68499244268E+03  0.68499244268E+03  0.00000000000E+00 0.  1.
         25    2    1    2    0    0 -0.42954693223E+02 -0.47784183397E+02 -0.53019358743E+03  0.54852591535E+03  0.12508799226E+03 0.  0.
          5    1    3    3  502    0 -0.69534628564E+02  0.32422914425E+01 -0.17007949499E+03  0.18382079327E+03  0.41800000000E+01 0.  1.
         -5    1    3    3    0  502  0.26579935340E+02 -0.51026474840E+02 -0.36011409244E+03  0.36470512208E+03  0.41800000000E+01 0.  1.
        -11    1    1    2    0    0 -0.10427380216E+02 -0.14275590893E+01 -0.27182356324E+01  0.10870004051E+02  0.00000000000E+00 0. -1.
         11    1    1    2    0    0  0.53382073439E+02  0.49211742487E+02 -0.12934653817E+03  0.14833060473E+03  0.00000000000E+00 0.  1.
</event>
<event>
 7    1  0.3527234E-009  0.1839836E+03  0.7561462E-02  0.1164002E+00
          2   -1    0    0  501    0  0.00000000000E+00  0.00000000000E+00  0.10637552286E+04  0.10637552286E+04  0.00000000000E+00 0.  1.
         -2   -1    0    0    0  501 -0.00000000000E+00 -0.00000000000E+00 -0.34655574069E+02  0.34655574069E+02  0.00000000000E+00 0. -1.
         25    2    1    2    0    0  0.43522993528E+02 -0.15182815575E+03  0.52954135415E+03  0.56657262629E+03  0.12507779682E+03 0.  0.
          5    1    3    3  502    0 -0.28761620316E+02 -0.73213859691E+02  0.33970313687E+03  0.34871649467E+03  0.41800000000E+01 0. -1.
         -5    1    3    3    0  502  0.72284613844E+02 -0.78614296055E+02  0.18983821728E+03  0.21785613162E+03  0.41800000000E+01 0. -1.
        -11    1    1    2    0    0  0.23213683668E+02  0.84059395281E+02  0.24960142922E+03  0.26439691850E+03  0.00000000000E+00 0. -1.
         11    1    1    2    0    0 -0.66736677196E+02  0.67768760465E+02  0.24995687117E+03  0.26744125789E+03  0.00000000000E+00 0.  1.
</event>
<event>
 7    1  0.2651429E-009  0.1220239E+03  0.7561462E-02  0.1239795E+00
          2   -1    0    0  501    0  0.00000000000E+00  0.00000000000E+00  0.39151108901E+03  0.39151108901E+03  0.00000000000E+00 0. -1.
         -2   -1    0    0    0  501 -0.00000000000E+00 -0.00000000000E+00 -0.49385077397E+02  0.49385077397E+02  0.00000000000E+00 0.  1.
         25    2    1    2    0    0  0.63447818434E+02  0.58697945668E+02  0.20216592221E+03  0.25296018980E+03  0.12508686196E+03 0.  0.
          5    1    3    3  502    0  0.30041186182E+02 -0.27538348131E+02  0.12782822454E+03  0.13423248814E+03  0.41800000000E+01 0.  1.
         -5    1    3    3    0  502  0.33406632252E+02  0.86236293799E+02  0.74337697671E+02  0.11872770166E+03  0.41800000000E+01 0.  1.
        -11    1    1    2    0    0 -0.62084634073E+02 -0.11320386756E+02  0.12180109549E+03  0.13717929803E+03  0.00000000000E+00 0. -1.
         11    1    1    2    0    0 -0.13631843612E+01 -0.47377558912E+02  0.18158993913E+02  0.50756678575E+02  0.00000000000E+00 0.  1.
</event>
<event>
 7    1  0.2651429E-009  0.9195607E+02  0.7561462E-02  0.1298183E+00
         -2   -1    0    0    0  501 -0.00000000000E+00  0.00000000000E+00  0.33734808387E+03  0.33734808387E+03  0.00000000000E+00 0. -1.
          2   -1    0    0  501    0  0.00000000000E+00 -0.00000000000E+00 -0.38525101566E+02  0.38525101566E+02  0.00000000000E+00 0.  1.
         25    2    1    2    0    0  0.35164068197E+02 -0.16180602293E+01  0.12489609959E+03  0.18023540791E+03  0.12508651710E+03 0.  0.
          5    1    3    3  502    0 -0.85495125645E+00  0.41668770309E+02  0.11566815040E+03  0.12301874157E+03  0.41800000000E+01 0.  1.
         -5    1    3    3    0  502  0.36019019453E+02 -0.43286830538E+02  0.92279491878E+01  0.57216666336E+02  0.41800000000E+01 0.  1.
        -11    1    1    2    0    0 -0.18861592394E+02 -0.38160995462E+02  0.57608933945E+02  0.71629676200E+02  0.00000000000E+00 0.  1.
         11    1    1    2    0    0 -0.16302475802E+02  0.39779055692E+02  0.11631794877E+03  0.12400810133E+03  0.00000000000E+00 0. -1.
</event>
<event>
 7    1  0.2651429E-009  0.7196095E+02  0.7561462E-02  0.1353549E+00
         -1   -1    0    0    0  501 -0.00000000000E+00  0.00000000000E+00  0.28918160605E+03  0.28918160605E+03  0.00000000000E+00 0.  1.
          1   -1    0    0  501    0  0.00000000000E+00 -0.00000000000E+00 -0.50138068192E+02  0.50138068192E+02  0.00000000000E+00 0. -1.
         25    2    1    2    0    0  0.43600766462E+02  0.40898102422E+01  0.11217516536E+03  0.17363171486E+03  0.12508777437E+03 0.  0.
          5    1    3    3  502    0  0.25862746312E+02  0.77395077050E+01 -0.23897735526E+02  0.36295396258E+02  0.41800000000E+01 0. -1.
         -5    1    3    3    0  502  0.17738020150E+02 -0.36496974628E+01  0.13607290088E+03  0.13733631860E+03  0.41800000000E+01 0. -1.
        -11    1    1    2    0    0 -0.61486695324E+02 -0.28488784712E+02  0.53539802725E+02  0.86363968367E+02  0.00000000000E+00 0. -1.
         11    1    1    2    0    0  0.17885928863E+02  0.24398974470E+02  0.73328569778E+02  0.79323991025E+02  0.00000000000E+00 0.  1.
</event>
<event>
 7    1  0.2651429E-009  0.9235638E+02  0.7561462E-02  0.1297244E+00
         -2   -1    0    0    0  501 -0.00000000000E+00  0.00000000000E+00  0.86542402304E+02  0.86542402304E+02  0.00000000000E+00 0.  1.
          2   -1    0    0  501    0  0.00000000000E+00 -0.00000000000E+00 -0.16782434663E+03  0.16782434663E+03  0.00000000000E+00 0. -1.
         25    2    1    2    0    0  0.45143332181E+02 -0.22644749374E+02 -0.63561472010E+02  0.14912611795E+03  0.12509129952E+03 0.  0.
          5    1    3    3  502    0  0.60407908427E+02  0.30846723294E+02 -0.48349361910E+01  0.68128443007E+02  0.41800000000E+01 0.  1.
         -5    1    3    3    0  502 -0.15264576247E+02 -0.53491472668E+02 -0.58726535819E+02  0.80997674939E+02  0.41800000000E+01 0.  1.
        -11    1    1    2    0    0 -0.72024191827E+01  0.21868009222E+02 -0.50239989117E+02  0.55264284813E+02  0.00000000000E+00 0. -1.
         11    1    1    2    0    0 -0.37940912998E+02  0.77674015183E+00  0.32519516799E+02  0.49976346177E+02  0.00000000000E+00 0.  1.
</event>
<event>
 7    1  0.2651429E-009  0.1493876E+03  0.7561462E-02  0.1201228E+00
         -1   -1    0    0    0  501 -0.00000000000E+00  0.00000000000E+00  0.23857201227E+03  0.23857201227E+03  0.00000000000E+00 0.  1.
          1   -1    0    0  501    0  0.00000000000E+00 -0.00000000000E+00 -0.11740502107E+03  0.11740502107E+03  0.00000000000E+00 0. -1.
         25    2    1    2    0    0  0.12158231426E+03 -0.53458076540E+01  0.10317098202E+03  0.20273759816E+03  0.12508974928E+03 0.  0.
          5    1    3    3  502    0  0.13778514182E+03 -0.17050397043E+01  0.49623271630E+02  0.14651823761E+03  0.41800000000E+01 0.  1.
         -5    1    3    3    0  502 -0.16202827559E+02 -0.36407679496E+01  0.53547710386E+02  0.56219360542E+02  0.41800000000E+01 0.  1.
        -11    1    1    2    0    0 -0.31831610274E+02 -0.33306486329E+02  0.29709491202E+02  0.54819953591E+02  0.00000000000E+00 0.  1.
         11    1    1    2    0    0 -0.89750703985E+02  0.38652293983E+02 -0.11713482018E+02  0.98419481592E+02  0.00000000000E+00 0. -1.
</event>
<event>
 7    1  0.2651429E-009  0.1132724E+03  0.7561462E-02  0.1254627E+00
         -1   -1    0    0    0  501 -0.00000000000E+00  0.00000000000E+00  0.21498592973E+03  0.21498592973E+03  0.00000000000E+00 0.  1.
          1   -1    0    0  501    0  0.00000000000E+00 -0.00000000000E+00 -0.94061360011E+02  0.94061360011E+02  0.00000000000E+00 0. -1.
         25    2    1    2    0    0 -0.47072545265E+02  0.42198421872E+02  0.13882079917E+03  0.19726788617E+03  0.12508746262E+03 0.  0.
          5    1    3    3  502    0 -0.32230610437E+02  0.74691068024E+02  0.13922159641E+03  0.16130000992E+03  0.41800000000E+01 0.  1.
         -5    1    3    3    0  502 -0.14841934827E+02 -0.32492646151E+02 -0.40079724275E+00  0.35967876248E+02  0.41800000000E+01 0.  1.
        -11    1    1    2    0    0  0.58199892266E+02  0.70574446237E+01 -0.13541814261E+01  0.58641868931E+02  0.00000000000E+00 0.  1.
         11    1    1    2    0    0 -0.11127347001E+02 -0.49255866496E+02 -0.16542048023E+02  0.53137534647E+02  0.00000000000E+00 0. -1.
</event>
<event>
 7    1  0.2651429E-009  0.1706332E+03  0.7561462E-02  0.1177189E+00
          1   -1    0    0  501    0  0.00000000000E+00  0.00000000000E+00  0.38573538537E+03  0.38573538537E+03  0.00000000000E+00 0. -1.
         -1   -1    0    0    0  501 -0.00000000000E+00 -0.00000000000E+00 -0.83763753739E+02  0.83763753739E+02  0.00000000000E+00 0.  1.
         25    2    1    2    0    0 -0.12766562989E+03 -0.35687849918E+02  0.23203326102E+03  0.29506160912E+03  0.12509909381E+03 0.  0.
          5    1    3    3  502    0 -0.13365904604E+03 -0.67189410520E+02  0.18436816101E+03  0.23746209944E+03  0.41800000000E+01 0.  1.
         -5    1    3    3    0  502  0.59934161445E+01  0.31501560602E+02  0.47665100002E+02  0.57599509682E+02  0.41800000000E+01 0.  1.
        -11    1    1    2    0    0  0.27449604987E+02  0.50977286336E+02  0.18658538669E+02  0.60830137279E+02  0.00000000000E+00 0.  1.
         11    1    1    2    0    0  0.10021602491E+03 -0.15289436417E+02  0.51279831950E+02  0.11360739271E+03  0.00000000000E+00 0. -1.
</event>
<event>
 7    1  0.2651429E-009  0.1088405E+03  0.7561462E-02  0.1262732E+00
         -1   -1    0    0    0  501 -0.00000000000E+00  0.00000000000E+00  0.14083307800E+02  0.14083307800E+02  0.00000000000E+00 0.  1.
          1   -1    0    0  501    0  0.00000000000E+00 -0.00000000000E+00 -0.11854904318E+04  0.11854904318E+04  0.00000000000E+00 0. -1.
         25    2    1    2    0    0  0.68112282026E+02  0.10465771805E+01 -0.56750650655E+03  0.58510748811E+03  0.12508700722E+03 0.  0.
          5    1    3    3  502    0  0.22223040844E+02 -0.37738559516E+02 -0.45818668264E+03  0.46029400492E+03  0.41800000000E+01 0. -1.
         -5    1    3    3    0  502  0.45889241182E+02  0.38785136696E+02 -0.10931982391E+03  0.12481348319E+03  0.41800000000E+01 0. -1.
        -11    1    1    2    0    0 -0.87008360827E+02  0.15454265236E+02 -0.46900379502E+03  0.47725658603E+03  0.00000000000E+00 0.  1.
         11    1    1    2    0    0  0.18896078801E+02 -0.16500842417E+02 -0.13489682239E+03  0.13720966542E+03  0.00000000000E+00 0. -1.
</event>
<event>
 7    1  0.2651429E-009  0.1466552E+03  0.7561462E-02  0.1204644E+00
         -2   -1    0    0    0  501 -0.00000000000E+00  0.00000000000E+00  0.12875179980E+02  0.12875179980E+02  0.00000000000E+00 0.  1.
          2   -1    0    0  501    0  0.00000000000E+00 -0.00000000000E+00 -0.19666095258E+04  0.19666095258E+04  0.00000000000E+00 0. -1.
         25    2    1    2    0    0 -0.83198449183E+02 -0.72736489070E+02 -0.13045373293E+04  0.13151723808E+04  0.12509264158E+03 0.  0.
          5    1    3    3  502    0  0.28996036647E+02 -0.31422931782E+02 -0.49247466639E+03  0.49434496075E+03  0.41800000000E+01 0. -1.
         -5    1    3    3    0  502 -0.11219448583E+03 -0.41313557287E+02 -0.81206266291E+03  0.82082742009E+03  0.41800000000E+01 0. -1.
        -11    1    1    2    0    0 -0.18317716936E+01  0.39310051385E+02 -0.98197624245E+02  0.10578945569E+03  0.00000000000E+00 0. -1.
         11    1    1    2    0    0  0.85030220877E+02  0.33426437685E+02 -0.55099939226E+03  0.55852286924E+03  0.00000000000E+00 0.  1.
</event>
<event>
 7    1  0.2651429E-009  0.1460778E+03  0.7561462E-02  0.1205377E+00
          1   -1    0    0  501    0  0.00000000000E+00  0.00000000000E+00  0.65704486849E+03  0.65704486849E+03  0.00000000000E+00 0. -1.
         -1   -1    0    0    0  501 -0.00000000000E+00 -0.00000000000E+00 -0.39285766930E+02  0.39285766930E+02  0.00000000000E+00 0.  1.
         25    2    1    2    0    0 -0.24960565603E+02  0.11408698156E+03  0.35827249187E+03  0.39704555021E+03  0.12508845395E+03 0.  0.
          5    1    3    3  502    0 -0.14774722373E+02 -0.14357541878E+02  0.15446259367E+03  0.15588648650E+03  0.41800000000E+01 0.  1.
         -5    1    3    3    0  502 -0.10185843230E+02  0.12844452344E+03  0.20380989821E+03  0.24115906371E+03  0.41800000000E+01 0.  1.
        -11    1    1    2    0    0  0.50012966960E+02 -0.40096205130E+02  0.73300480704E+02  0.97375371636E+02  0.00000000000E+00 0.  1.
         11    1    1    2    0    0 -0.25052401357E+02 -0.73990776430E+02  0.18618612898E+03  0.20190971358E+03  0.00000000000E+00 0. -1.
</event>
<event>
 7    1  0.2651429E-009  0.1114211E+03  0.7561462E-02  0.1257961E+00
         -2   -1    0    0    0  501 -0.00000000000E+00  0.00000000000E+00  0.27338835514E+02  0.27338835514E+02  0.00000000000E+00 0.  1.
          2   -1    0    0  501    0  0.00000000000E+00 -0.00000000000E+00 -0.49988104113E+03  0.49988104113E+03  0.00000000000E+00 0. -1.
         25    2    1    2    0    0  0.10254906431E+02 -0.39985888215E+02 -0.25809065524E+03  0.28976279786E+03  0.12509060051E+03 0.  0.
          5    1    3    3  502    0 -0.18874489587E+02 -0.77049634845E+02 -0.19752251392E+03  0.21289788278E+03  0.41800000000E+01 0.  1.
         -5    1    3    3    0  502  0.29129396018E+02  0.37063746631E+02 -0.60568141322E+02  0.76864915077E+02  0.41800000000E+01 0.  1.
        -11    1    1    2    0    0  0.10264904116E+01 -0.27569179181E+02 -0.10310475271E+03  0.10673192285E+03  0.00000000000E+00 0. -1.
         11    1    1    2    0    0 -0.11281396843E+02  0.67555067396E+02 -0.11134679767E+03  0.13072515595E+03  0.00000000000E+00 0.  1.
</event>
<event>
 7    1  0.2651429E-009  0.7197259E+02  0.7561462E-02  0.1353511E+00
         -1   -1    0    0    0  501 -0.00000000000E+00  0.00000000000E+00  0.27713085284E+03  0.27713085284E+03  0.00000000000E+00 0.  1.
          1   -1    0    0  501    0  0.00000000000E+00 -0.00000000000E+00 -0.47688568115E+02  0.47688568115E+02  0.00000000000E+00 0. -1.
         25    2    1    2    0    0  0.50718877383E+01  0.13259428127E+02  0.18206403371E+03  0.22135028229E+03  0.12508836325E+03 0.  0.
          5    1    3    3  502    0 -0.11884664181E+02 -0.20945383677E+02 -0.93139691107E+01  0.26156772750E+02  0.41800000000E+01 0. -1.
         -5    1    3    3    0  502  0.16956551920E+02  0.34204811804E+02  0.19137800282E+03  0.19519350954E+03  0.41800000000E+01 0. -1.
        -11    1    1    2    0    0  0.36532803794E+02  0.24760409917E+01  0.46228528293E+02  0.58973327532E+02  0.00000000000E+00 0.  1.
         11    1    1    2    0    0 -0.41604691533E+02 -0.15735469119E+02  0.11497227226E+01  0.44495811132E+02  0.00000000000E+00 0. -1.
</event>
<event>
 7    1  0.2651429E-009  0.9172935E+02  0.7561462E-02  0.1298717E+00
         -2   -1    0    0    0  501 -0.00000000000E+00  0.00000000000E+00  0.44505475769E+03  0.44505475769E+03  0.00000000000E+00 0.  1.
          2   -1    0    0  501    0  0.00000000000E+00 -0.00000000000E+00 -0.48728951904E+02  0.48728951904E+02  0.00000000000E+00 0. -1.
         25    2    1    2    0    0 -0.14209928315E+02 -0.36846461940E+02  0.36883251309E+03  0.39146323912E+03  0.12508581477E+03 0.  0.
          5    1    3    3  502    0 -0.60017285610E+02 -0.19899812042E+02  0.10137808356E+03  0.11955360855E+03  0.41800000000E+01 0. -1.
         -5    1    3    3    0  502  0.45807357294E+02 -0.16946649898E+02  0.26745442953E+03  0.27190963057E+03  0.41800000000E+01 0. -1.
        -11    1    1    2    0    0  0.41960272331E+00 -0.16227996929E+02  0.42477146574E+02  0.45473420058E+02  0.00000000000E+00 0.  1.
         11    1    1    2    0    0  0.13790325592E+02  0.53074458869E+02 -0.14983853869E+02  0.56847050416E+02  0.00000000000E+00 0. -1.
</event>
<event>
 7    1  0.2651429E-009  0.5517871E+02  0.7561462E-02  0.1419256E+00
         -1   -1    0    0    0  501 -0.00000000000E+00  0.00000000000E+00  0.30905350910E+02  0.30905350910E+02  0.00000000000E+00 0.  1.
          1   -1    0    0  501    0  0.00000000000E+00 -0.00000000000E+00 -0.45195284270E+03  0.45195284270E+03  0.00000000000E+00 0. -1.
         25    2    1    2    0    0 -0.21855950248E+02 -0.29354075248E+02 -0.30421697438E+03  0.33095820240E+03  0.12508405151E+03 0.  0.
          5    1    3    3  502    0  0.12905444944E+02 -0.31484597577E+02 -0.29171147367E+03  0.29371906078E+03  0.41800000000E+01 0. -1.
         -5    1    3    3    0  502 -0.34761395191E+02  0.21305223286E+01 -0.12505500715E+02  0.37239141627E+02  0.41800000000E+01 0. -1.
        -11    1    1    2    0    0  0.17469329057E+02  0.80281178925E+01  0.11052876555E+02  0.22176433769E+02  0.00000000000E+00 0.  1.
         11    1    1    2    0    0  0.43866211906E+01  0.21325957356E+02 -0.12788339396E+03  0.12972355744E+03  0.00000000000E+00 0. -1.
</event>
<event>
 7    1  0.3227161E-009  0.9564488E+02  0.7561462E-02  0.1289730E+00
          1   -1    0    0  501    0  0.00000000000E+00  0.00000000000E+00  0.20465156381E+03  0.20465156381E+03  0.00000000000E+00 0. -1.
         -1   -1    0    0    0  501 -0.00000000000E+00 -0.00000000000E+00 -0.11060404762E+03  0.11060404762E+03  0.00000000000E+00 0.  1.
         25    2    1    2    0    0 -0.61436883321E+02 -0.45710785818E+02 -0.22461591218E+02  0.14837706024E+03  0.12508901772E+03 0.  0.
          5    1    3    3  502    0 -0.78339771362E+01  0.10467428138E+02  0.43995405225E+02  0.46086943168E+02  0.41800000000E+01 0. -1.
         -5    1    3    3    0  502 -0.53602906185E+02 -0.56178213956E+02 -0.66456996443E+02  0.10229011707E+03  0.41800000000E+01 0. -1.
        -11    1    1    2    0    0  0.22479027113E+02 -0.15458279913E+02 -0.26248020314E+01  0.27407200943E+02  0.00000000000E+00 0.  1.
         11    1    1    2    0    0  0.38957856208E+02  0.61169065731E+02  0.11913390943E+03  0.13947135025E+03  0.00000000000E+00 0. -1.
</event>
<event>
 7    1  0.2651429E-009  0.1022859E+03  0.7561462E-02  0.1275561E+00
          1   -1    0    0  501    0  0.00000000000E+00  0.00000000000E+00  0.84111537171E+03  0.84111537171E+03  0.00000000000E+00 0. -1.
         -1   -1    0    0    0  501 -0.00000000000E+00 -0.00000000000E+00 -0.32322307470E+02  0.32322307470E+02  0.00000000000E+00 0.  1.
         25    2    1    2    0    0  0.77773004794E+02  0.17036395773E+02  0.68063015194E+03  0.69660026045E+03  0.12512250026E+03 0.  0.
          5    1    3    3  502    0  0.65203747047E+02  0.22951794924E+02  0.67839698131E+03  0.68192246639E+03  0.41800000000E+01 0. -1.
         -5    1    3    3    0  502  0.12569257747E+02 -0.59153991511E+01  0.22331706339E+01  0.14677794061E+02  0.41800000000E+01 0. -1.
        -11    1    1    2    0    0 -0.96822658546E+02 -0.25261344243E+02  0.96734604417E+02  0.13917739189E+03  0.00000000000E+00 0.  1.
         11    1    1    2    0    0  0.19049653752E+02  0.82249484703E+01  0.31428307881E+02  0.37660026841E+02  0.00000000000E+00 0. -1.
</event>
<event>
 7    1  0.2651429E-009  0.1058819E+03  0.7561462E-02  0.1268392E+00
         -2   -1    0    0    0  501 -0.00000000000E+00  0.00000000000E+00  0.17422210515E+02  0.17422210515E+02  0.00000000000E+00 0.  1.
          2   -1    0    0  501    0  0.00000000000E+00 -0.00000000000E+00 -0.10578747279E+04  0.10578747279E+04  0.00000000000E+00 0. -1.
         25    2    1    2    0    0 -0.68906343615E+02  0.16551632705E+02 -0.74326156277E+03  0.75703918076E+03  0.12509408370E+03 0.  0.
          5    1    3    3  502    0 -0.61387380756E+02 -0.19861203705E+02 -0.68336573985E+03  0.68641757315E+03  0.41800000000E+01 0.  1.
         -5    1    3    3    0  502 -0.75189628596E+01  0.36412836410E+02 -0.59895822919E+02  0.70621607607E+02  0.41800000000E+01 0.  1.
        -11    1    1    2    0    0 -0.19280359821E+02 -0.87155414015E+01 -0.29481007988E+02  0.36288052700E+02  0.00000000000E+00 0.  1.
         11    1    1    2    0    0  0.88186703436E+02 -0.78360913035E+01 -0.26770994662E+03  0.28196970495E+03  0.00000000000E+00 0. -1.
</event>
<event>
 7    1  0.2651429E-009  0.9533002E+02  0.7561462E-02  0.1290435E+00
          2   -1    0    0  501    0  0.00000000000E+00  0.00000000000E+00  0.13707866565E+03  0.13707866565E+03  0.00000000000E+00 0. -1.
         -2   -1    0    0    0  501 -0.00000000000E+00 -0.00000000000E+00 -0.97213906809E+02  0.97213906809E+02  0.00000000000E+00 0.  1.
         25    2    1    2    0    0  0.17950274977E+02 -0.98345476045E+01  0.55747855669E+02  0.13846971319E+03  0.12508839819E+03 0.  0.
          5    1    3    3  502    0  0.41569697515E+02  0.29301030977E+02 -0.15838270553E+02  0.53431389481E+02  0.41800000000E+01 0.  1.
         -5    1    3    3    0  502 -0.23619422538E+02 -0.39135578581E+02  0.71586126222E+02  0.85038323710E+02  0.41800000000E+01 0.  1.
        -11    1    1    2    0    0 -0.37054119954E+02  0.42191610179E+02 -0.15470049697E+02  0.58244847092E+02  0.00000000000E+00 0. -1.
         11    1    1    2    0    0  0.19103844977E+02 -0.32357062574E+02 -0.41304712914E+00  0.37578012179E+02  0.00000000000E+00 0.  1.
</event>
<event>
 7    1  0.2651429E-009  0.5846157E+02  0.7561462E-02  0.1404404E+00
         -2   -1    0    0    0  501 -0.00000000000E+00  0.00000000000E+00  0.91790333312E+02  0.91790333312E+02  0.00000000000E+00 0.  1.
          2   -1    0    0  501    0  0.00000000000E+00 -0.00000000000E+00 -0.15344238559E+03  0.15344238559E+03  0.00000000000E+00 0. -1.
         25    2    1    2    0    0  0.27423403324E+01  0.28871505132E+02 -0.72972400474E+02  0.14769535364E+03  0.12509141465E+03 0.  0.
          5    1    3    3  502    0  0.49861061462E+01  0.50075560559E+02 -0.10059096441E+03  0.11255415381E+03  0.41800000000E+01 0.  1.
         -5    1    3    3    0  502 -0.22437658138E+01 -0.21204055427E+02  0.27618563936E+02  0.35141199830E+02  0.41800000000E+01 0.  1.
        -11    1    1    2    0    0  0.13598489741E+02 -0.24105632544E+02 -0.37057632755E+02  0.46252227936E+02  0.00000000000E+00 0. -1.
         11    1    1    2    0    0 -0.16340830073E+02 -0.47658725875E+01  0.48377980952E+02  0.51285137321E+02  0.00000000000E+00 0.  1.
</event>
<event>
 7    1  0.2651429E-009  0.1033718E+03  0.7561462E-02  0.1273361E+00
          1   -1    0    0  501    0  0.00000000000E+00  0.00000000000E+00  0.17919487764E+03  0.17919487764E+03  0.00000000000E+00 0. -1.
         -1   -1    0    0    0  501 -0.00000000000E+00 -0.00000000000E+00 -0.71663134090E+02  0.71663134090E+02  0.00000000000E+00 0.  1.
         25    2    1    2    0    0  0.16741946310E+01  0.21357149491E+02  0.92959748876E+02  0.15731499914E+03  0.12509022056E+03 0.  0.
          5    1    3    3  502    0 -0.44007791952E+02 -0.24380924559E+02  0.90153163292E+01  0.51282195384E+02  0.41800000000E+01 0. -1.
         -5    1    3    3    0  502  0.45681986583E+02  0.45738074050E+02  0.83944432547E+02  0.10603280375E+03  0.41800000000E+01 0. -1.
        -11    1    1    2    0    0 -0.45236042440E+02 -0.13581683716E+02  0.14098080840E+02  0.49290136453E+02  0.00000000000E+00 0. -1.
         11    1    1    2    0    0  0.43561847809E+02 -0.77754657747E+01  0.47391383553E+00  0.44252876142E+02  0.00000000000E+00 0.  1.
</event>
<event>
 7    1  0.2651429E-009  0.9079544E+02  0.7561462E-02  0.1300937E+00
         -1   -1    0    0    0  501 -0.00000000000E+00  0.00000000000E+00  0.94206692150E+02  0.94206692150E+02  0.00000000000E+00 0.  1.
          1   -1    0    0  501    0  0.00000000000E+00 -0.00000000000E+00 -0.16619378156E+03  0.16619378156E+03  0.00000000000E+00 0. -1.
         25    2    1    2    0    0 -0.34709367401E+01  0.54565694566E+02 -0.88255428684E+01  0.13680059019E+03  0.12508816428E+03 0.  0.
          5    1    3    3  502    0  0.30276689588E+02  0.65625698229E+01  0.46508761013E+02  0.56038223616E+02  0.41800000000E+01 0. -1.
         -5    1    3    3    0  502 -0.33747626328E+02  0.48003124743E+02 -0.55334303882E+02  0.80762366570E+02  0.41800000000E+01 0. -1.
        -11    1    1    2    0    0  0.38371142261E+02 -0.31782360615E+02 -0.64978106282E+02  0.81881727514E+02  0.00000000000E+00 0.  1.
         11    1    1    2    0    0 -0.34900205521E+02 -0.22783333951E+02  0.18165597437E+01  0.41718156007E+02  0.00000000000E+00 0. -1.
</event>
<event>
 7    1  0.2651429E-009  0.1378896E+03  0.7561462E-02  0.1216197E+00
         -2   -1    0    0    0  501 -0.00000000000E+00  0.00000000000E+00  0.13114116829E+03  0.13114116829E+03  0.00000000000E+00 0.  1.
          2   -1    0    0  501    0  0.00000000000E+00 -0.00000000000E+00 -0.15659112944E+03  0.15659112944E+03  0.00000000000E+00 0. -1.
         25    2    1    2    0    0  0.86118670767E+02 -0.29981866516E+02 -0.33155000126E+02  0.15830662866E+03  0.12508555820E+03 0.  0.
          5    1    3    3  502    0  0.11230659917E+03 -0.81148942470E+01 -0.45873047206E+02  0.12165702851E+03  0.41800000000E+01 0. -1.
         -5    1    3    3    0  502 -0.26187928400E+02 -0.21866972269E+02  0.12718047080E+02  0.36649600157E+02  0.41800000000E+01 0. -1.
        -11    1    1    2    0    0 -0.23406984958E+02 -0.32600820664E+02  0.75031939688E+01  0.40828891395E+02  0.00000000000E+00 0.  1.
         11    1    1    2    0    0 -0.62711685809E+02  0.62582687180E+02  0.20184501281E+00  0.88596777668E+02  0.00000000000E+00 0. -1.
</event>
<event>
 7    1  0.2651429E-009  0.8086473E+02  0.7561462E-02  0.1326615E+00
          1   -1    0    0  501    0  0.00000000000E+00  0.00000000000E+00  0.50887865982E+03  0.50887865982E+03  0.00000000000E+00 0. -1.
         -1   -1    0    0    0  501 -0.00000000000E+00 -0.00000000000E+00 -0.30411884166E+02  0.30411884166E+02  0.00000000000E+00 0.  1.
         25    2    1    2    0    0 -0.39042278602E+02  0.34284823303E+02  0.33284968688E+03  0.35935627768E+03  0.12509305186E+03 0.  0.
          5    1    3    3  502    0 -0.39087071999E+02  0.39044766944E+02  0.44839818942E+02  0.71276747863E+02  0.41800000000E+01 0.  1.
         -5    1    3    3    0  502  0.44793396415E-01 -0.47599436412E+01  0.28800986794E+03  0.28807952982E+03  0.41800000000E+01 0.  1.
        -11    1    1    2    0    0 -0.21864843477E+02 -0.32356465562E+02  0.30012082826E+02  0.49251775191E+02  0.00000000000E+00 0.  1.
         11    1    1    2    0    0  0.60907122079E+02 -0.19283577408E+01  0.11560500594E+03  0.13068249111E+03  0.00000000000E+00 0. -1.
</event>
<event>
 7    1  0.3098718E-009  0.1534358E+03  0.7561462E-02  0.1196314E+00
         -2   -1    0    0    0  501 -0.00000000000E+00  0.00000000000E+00  0.28103105124E+02  0.28103105124E+02  0.00000000000E+00 0.  1.
          2   -1    0    0  501    0  0.00000000000E+00 -0.00000000000E+00 -0.11327869248E+04  0.11327869248E+04  0.00000000000E+00 0. -1.
         25    2    1    2    0    0  0.12608459788E+03 -0.36741939458E+02 -0.41508029318E+03  0.45297494745E+03  0.12508939721E+03 0.  0.
          5    1    3    3  502    0  0.10411954073E+03 -0.11992847373E+00 -0.13975810592E+03  0.17432926810E+03  0.41800000000E+01 0.  1.
         -5    1    3    3    0  502  0.21965057145E+02 -0.36622010984E+02 -0.27532218726E+03  0.27864567936E+03  0.41800000000E+01 0.  1.
        -11    1    1    2    0    0 -0.99594360961E+02  0.66626041903E+02 -0.53251764643E+03  0.54583249258E+03  0.00000000000E+00 0. -1.
         11    1    1    2    0    0 -0.26490236918E+02 -0.29884102445E+02 -0.15708588010E+03  0.16208258993E+03  0.00000000000E+00 0.  1.
</event>
<event>
 7    1  0.2651429E-009  0.1344389E+03  0.7561462E-02  0.1221014E+00
         -2   -1    0    0    0  501 -0.00000000000E+00  0.00000000000E+00  0.32875288083E+02  0.32875288083E+02  0.00000000000E+00 0.  1.
          2   -1    0    0  501    0  0.00000000000E+00 -0.00000000000E+00 -0.56245243417E+03  0.56245243417E+03  0.00000000000E+00 0. -1.
         25    2    1    2    0    0 -0.49069429902E+02  0.65997316435E+02 -0.28673852761E+03  0.32346769946E+03  0.12509562202E+03 0.  0.
          5    1    3    3  502    0 -0.86699318438E+02  0.23875760372E+02 -0.20633974122E+03  0.22512304404E+03  0.41800000000E+01 0.  1.
         -5    1    3    3    0  502  0.37629888536E+02  0.42121556063E+02 -0.80398786389E+02  0.98344655417E+02  0.41800000000E+01 0.  1.
        -11    1    1    2    0    0  0.24969669103E+02  0.20574121199E+02 -0.64745392381E+02  0.72379172921E+02  0.00000000000E+00 0.  1.
         11    1    1    2    0    0  0.24099760799E+02 -0.86571437634E+02 -0.17809322610E+03  0.19948084987E+03  0.00000000000E+00 0. -1.
</event>
<event>
 7    1  0.2651429E-009  0.9955661E+02  0.7561462E-02  0.1281231E+00
         -3   -1    0    0    0  501 -0.00000000000E+00  0.00000000000E+00  0.30811125593E+02  0.30811125593E+02  0.00000000000E+00 0.  1.
          3   -1    0    0  501    0  0.00000000000E+00 -0.00000000000E+00 -0.45535119726E+03  0.45535119726E+03  0.00000000000E+00 0. -1.
         25    2    1    2    0    0  0.13665266852E+02  0.46157541133E+02 -0.25010202981E+03  0.28375377331E+03  0.12509164814E+03 0.  0.
          5    1    3    3  502    0 -0.33336426431E+02 -0.19883091148E+02 -0.14938379885E+03  0.15440092746E+03  0.41800000000E+01 0.  1.
         -5    1    3    3    0  502  0.47001693283E+02  0.66040632281E+02 -0.10071823096E+03  0.12935284586E+03  0.41800000000E+01 0.  1.
        -11    1    1    2    0    0 -0.36028230939E+02 -0.11798365842E+02 -0.20486566067E+02  0.43092159964E+02  0.00000000000E+00 0.  1.
         11    1    1    2    0    0  0.22362964087E+02 -0.34359175291E+02 -0.15395147579E+03  0.15931638958E+03  0.00000000000E+00 0. -1.
</event>
<event>
 7    1  0.2651429E-009  0.4300133E+02  0.7561462E-02  0.1487219E+00
         -2   -1    0    0    0  501 -0.00000000000E+00  0.00000000000E+00  0.10242467683E+03  0.10242467683E+03  0.00000000000E+00 0.  1.
          2   -1    0    0  501    0  0.00000000000E+00 -0.00000000000E+00 -0.11808029782E+03  0.11808029782E+03  0.00000000000E+00 0. -1.
         25    2    1    2    0    0  0.10142295251E+01  0.16055964173E+02  0.21303850436E+01  0.12618259662E+03  0.12513467346E+03 0.  0.
          5    1    3    3  502    0  0.14079484998E+01  0.12431199630E+02 -0.61202242169E+02  0.62607538602E+02  0.41800000000E+01 0. -1.
         -5    1    3    3    0  502 -0.39371897477E+00  0.36247645431E+01  0.63332627213E+02  0.63575058020E+02  0.41800000000E+01 0. -1.
        -11    1    1    2    0    0  0.38257839210E+01  0.25319960605E+02 -0.39707527556E+02  0.47248542541E+02  0.00000000000E+00 0. -1.
         11    1    1    2    0    0 -0.48400134461E+01 -0.41375924777E+02  0.21921521519E+02  0.47073835483E+02  0.00000000000E+00 0.  1.
</event>
<event>
 7    1  0.2651429E-009  0.6567706E+02  0.7561462E-02  0.1375443E+00
         -2   -1    0    0    0  501 -0.00000000000E+00  0.00000000000E+00  0.11034494328E+02  0.11034494328E+02  0.00000000000E+00 0. -1.
          2   -1    0    0  501    0  0.00000000000E+00 -0.00000000000E+00 -0.11947003233E+04  0.11947003233E+04  0.00000000000E+00 0.  1.
         25    2    1    2    0    0 -0.25387322858E+01  0.24011703691E+02 -0.83920522206E+03  0.84882092261E+03  0.12509415194E+03 0.  0.
          5    1    3    3  502    0 -0.83679828002E+01 -0.45895693658E+01 -0.14183505370E+01  0.10515293688E+02  0.41800000000E+01 0. -1.
         -5    1    3    3    0  502  0.58292505145E+01  0.28601273057E+02 -0.83778687153E+03  0.83830562892E+03  0.41800000000E+01 0. -1.
        -11    1    1    2    0    0 -0.21596351566E+02 -0.50914623314E+02 -0.24281777176E+03  0.24903648639E+03  0.00000000000E+00 0. -1.
         11    1    1    2    0    0  0.24135083851E+02  0.26902919623E+02 -0.10164283518E+03  0.10787740867E+03  0.00000000000E+00 0.  1.
</event>
<event>
 7    1  0.2651429E-009  0.1104140E+03  0.7561462E-02  0.1259805E+00
          2   -1    0    0  501    0  0.00000000000E+00  0.00000000000E+00  0.15471448316E+04  0.15471448316E+04  0.00000000000E+00 0. -1.
         -2   -1    0    0    0  501 -0.00000000000E+00 -0.00000000000E+00 -0.92351150202E+01  0.92351150202E+01  0.00000000000E+00 0.  1.
         25    2    1    2    0    0 -0.11064763116E+02 -0.27535224627E+02  0.11285517800E+04  0.11358510353E+04  0.12509131354E+03 0.  0.
          5    1    3    3  502    0 -0.13840317299E+02 -0.76486760404E+02  0.60375563668E+03  0.60875292206E+03  0.41800000000E+01 0. -1.
         -5    1    3    3    0  502  0.27755541829E+01  0.48951535777E+02  0.52479614330E+03  0.52709811324E+03  0.41800000000E+01 0. -1.
        -11    1    1    2    0    0  0.46175083327E+02 -0.43127359534E+01  0.25020349425E+03  0.25446517748E+03  0.00000000000E+00 0. -1.
         11    1    1    2    0    0 -0.35110320211E+02  0.31847960580E+02  0.15915444234E+03  0.16606373383E+03  0.00000000000E+00 0.  1.
</event>
<event>
 7    1  0.2651429E-009  0.1491924E+03  0.7561462E-02  0.1201469E+00
         -2   -1    0    0    0  501 -0.00000000000E+00  0.00000000000E+00  0.54773430250E+02  0.54773430250E+02  0.00000000000E+00 0.  1.
          2   -1    0    0  501    0  0.00000000000E+00 -0.00000000000E+00 -0.44975740374E+03  0.44975740374E+03  0.00000000000E+00 0. -1.
         25    2    1    2    0    0  0.10361055336E+03  0.28592509396E+02 -0.15750067020E+03  0.22804957425E+03  0.12508984309E+03 0.  0.
          5    1    3    3  502    0  0.56467684711E+02  0.76801188555E+02 -0.74665683864E+02  0.12115881613E+03  0.41800000000E+01 0. -1.
         -5    1    3    3    0  502  0.47142868653E+02 -0.48208679160E+02 -0.82834986332E+02  0.10689075812E+03  0.41800000000E+01 0. -1.
        -11    1    1    2    0    0 -0.32319698558E+02  0.29261295002E+02 -0.42125822617E+02  0.60624840051E+02  0.00000000000E+00 0. -1.
         11    1    1    2    0    0 -0.71290854806E+02 -0.57853804398E+02 -0.19535748068E+03  0.21585641969E+03  0.00000000000E+00 0.  1.
</event>
<event>
 7    1  0.2651429E-009  0.1644089E+03  0.7561462E-02  0.1183807E+00
         -2   -1    0    0    0  501 -0.00000000000E+00  0.00000000000E+00  0.11259443436E+03  0.11259443436E+03  0.00000000000E+00 0.  1.
          2   -1    0    0  501    0  0.00000000000E+00 -0.00000000000E+00 -0.34721728294E+03  0.34721728294E+03  0.00000000000E+00 0. -1.
         25    2    1    2    0    0 -0.15284356388E+03  0.58863995948E+02 -0.14624191582E+03  0.25272517029E+03  0.12512868863E+03 0.  0.
          5    1    3    3  502    0 -0.88257797784E+02  0.25936444340E+02 -0.15427419084E+03  0.17966673697E+03  0.41800000000E+01 0.  1.
         -5    1    3    3    0  502 -0.64585766096E+02  0.32927551608E+02  0.80322750212E+01  0.73058433319E+02  0.41800000000E+01 0.  1.
        -11    1    1    2    0    0  0.10048389137E+03 -0.43951541235E+02 -0.79510149899E+01  0.10996348958E+03  0.00000000000E+00 0.  1.
         11    1    1    2    0    0  0.52359672511E+02 -0.14912454714E+02 -0.80429917775E+02  0.97123057429E+02  0.00000000000E+00 0. -1.
</event>
<event>
 7    1  0.2651429E-009  0.7901281E+02  0.7561462E-02  0.1331877E+00
         -1   -1    0    0    0  501 -0.00000000000E+00  0.00000000000E+00  0.47257291585E+02  0.47257291585E+02  0.00000000000E+00 0.  1.
          1   -1    0    0  501    0  0.00000000000E+00 -0.00000000000E+00 -0.32742533578E+03  0.32742533578E+03  0.00000000000E+00 0. -1.
         25    2    1    2    0    0 -0.80046562627E+01 -0.24602088328E+02 -0.24312118901E+03  0.27463480130E+03  0.12508806603E+03 0.  0.
          5    1    3    3  502    0 -0.10902937660E+02  0.18958492137E+02  0.48727034612E+01  0.22792852230E+02  0.41800000000E+01 0.  1.
         -5    1    3    3    0  502  0.28982813975E+01 -0.43560580465E+02 -0.24799389247E+03  0.25184194907E+03  0.41800000000E+01 0.  1.
        -11    1    1    2    0    0  0.22119095756E+02  0.54512839494E+02 -0.16454037152E+02  0.61087145992E+02  0.00000000000E+00 0. -1.
         11    1    1    2    0    0 -0.14114439493E+02 -0.29910751166E+02 -0.20592818029E+02  0.38960680075E+02  0.00000000000E+00 0.  1.
</event>
<event>
 7    1  0.2651429E-009  0.1054358E+03  0.7561462E-02  0.1269263E+00
         -1   -1    0    0    0  501 -0.00000000000E+00  0.00000000000E+00  0.16293076496E+03  0.16293076496E+03  0.00000000000E+00 0.  1.
          1   -1    0    0  501    0  0.00000000000E+00 -0.00000000000E+00 -0.94959045128E+02  0.94959045128E+02  0.00000000000E+00 0. -1.
         25    2    1    2    0    0  0.49852847473E+02  0.92431044389E+01  0.26825488995E+01  0.13500150271E+03  0.12508984085E+03 0.  0.
          5    1    3    3  502    0 -0.96418683396E+01  0.43740628197E+02  0.36797647902E+02  0.58118391850E+02  0.41800000000E+01 0.  1.
         -5    1    3    3    0  502  0.59494715813E+02 -0.34497523758E+02 -0.34115099002E+02  0.76883110856E+02  0.41800000000E+01 0.  1.
        -11    1    1    2    0    0 -0.30283322053E+02 -0.46157906452E+02  0.14415003066E+02  0.57056325118E+02  0.00000000000E+00 0. -1.
         11    1    1    2    0    0 -0.19569525420E+02  0.36914802013E+02  0.50874167869E+02  0.65831982266E+02  0.00000000000E+00 0.  1.
</event>
<event>
 7    1  0.2651429E-009  0.9426273E+02  0.7561462E-02  0.1292845E+00
         -1   -1    0    0    0  501 -0.00000000000E+00  0.00000000000E+00  0.84144205635E+02  0.84144205635E+02  0.00000000000E+00 0.  1.
          1   -1    0    0  501    0  0.00000000000E+00 -0.00000000000E+00 -0.20287582255E+03  0.20287582255E+03  0.00000000000E+00 0. -1.
         25    2    1    2    0    0  0.13915238460E+02  0.36004070789E+02 -0.13352368574E+03  0.18699065759E+03  0.12508798662E+03 0.  0.
          5    1    3    3  502    0 -0.51638088636E+02 -0.37367013455E+01 -0.37574793137E+02  0.64107664239E+02  0.41800000000E+01 0.  1.
         -5    1    3    3    0  502  0.65553327096E+02  0.39740772135E+02 -0.95948892601E+02  0.12288299335E+03  0.41800000000E+01 0.  1.
        -11    1    1    2    0    0 -0.30526568150E+02 -0.27783699954E+02  0.47195748957E+02  0.62699633698E+02  0.00000000000E+00 0.  1.
         11    1    1    2    0    0  0.16611329690E+02 -0.82203708355E+01 -0.32403680137E+02  0.37329736902E+02  0.00000000000E+00 0. -1.
</event>
<event>
 7    1  0.2651429E-009  0.2004485E+03  0.7561462E-02  0.1149361E+00
          2   -1    0    0  501    0  0.00000000000E+00  0.00000000000E+00  0.11585648000E+04  0.11585648000E+04  0.00000000000E+00 0. -1.
         -2   -1    0    0    0  501 -0.00000000000E+00 -0.00000000000E+00 -0.55613007128E+02  0.55613007128E+02  0.00000000000E+00 0.  1.
         25    2    1    2    0    0  0.18675331851E+03 -0.32692814497E+02  0.87616711767E+03  0.90513086102E+03  0.12508970934E+03 0.  0.
          5    1    3    3  502    0  0.12217696591E+03  0.23626959815E+02  0.67574899673E+03  0.68712416870E+03  0.41800000000E+01 0. -1.
         -5    1    3    3    0  502  0.64576352600E+02 -0.56319774312E+02  0.20041812094E+03  0.21800669231E+03  0.41800000000E+01 0. -1.
        -11    1    1    2    0    0 -0.40350145790E+02 -0.10245515298E+01  0.11473564776E+03  0.12162833896E+03  0.00000000000E+00 0. -1.
         11    1    1    2    0    0 -0.14640317272E+03  0.33717366027E+02  0.11204902743E+03  0.18741860714E+03  0.00000000000E+00 0.  1.
</event>
<event>
 7    1  0.2651429E-009  0.8111415E+02  0.7561462E-02  0.1325919E+00
         -2   -1    0    0    0  501 -0.00000000000E+00  0.00000000000E+00  0.15305293091E+03  0.15305293091E+03  0.00000000000E+00 0.  1.
          2   -1    0    0  501    0  0.00000000000E+00 -0.00000000000E+00 -0.86220348439E+02  0.86220348439E+02  0.00000000000E+00 0. -1.
         25    2    1    2    0    0 -0.19508074190E+02  0.11784249565E+02  0.66260157247E+02  0.14338066090E+03  0.12509265360E+03 0.  0.
          5    1    3    3  502    0 -0.63736969984E+01  0.63143032603E+02  0.63892094035E+02  0.90151753504E+02  0.41800000000E+01 0.  1.
         -5    1    3    3    0  502 -0.13134377192E+02 -0.51358783037E+02  0.23680632118E+01  0.53228907397E+02  0.41800000000E+01 0.  1.
        -11    1    1    2    0    0 -0.10935218753E+02 -0.10219499341E+02  0.41926242106E+02  0.44517715048E+02  0.00000000000E+00 0.  1.
         11    1    1    2    0    0  0.30443292944E+02 -0.15647502241E+01 -0.41353816882E+02  0.51374903399E+02  0.00000000000E+00 0. -1.
</event>
<event>
 7    1  0.2651429E-009  0.9911869E+02  0.7561462E-02  0.1282160E+00
         -1   -1    0    0    0  501 -0.00000000000E+00  0.00000000000E+00  0.11032122157E+03  0.11032122157E+03  0.00000000000E+00 0.  1.
          1   -1    0    0  501    0  0.00000000000E+00 -0.00000000000E+00 -0.22488446849E+03  0.22488446849E+03  0.00000000000E+00 0. -1.
         25    2    1    2    0    0 -0.93213118232E+02 -0.20829797394E+01 -0.13062686012E+03  0.20347669608E+03  0.12508543100E+03 0.  0.
          5    1    3    3  502    0 -0.43380983365E+02  0.88948521937E+00  0.17602654439E+02  0.47010921550E+02  0.41800000000E+01 0.  1.
         -5    1    3    3    0  502 -0.49832134867E+02 -0.29724649588E+01 -0.14822951455E+03  0.15646577453E+03  0.41800000000E+01 0.  1.
        -11    1    1    2    0    0  0.14463978490E+02  0.19125350973E+02  0.40904208858E+02  0.47414555000E+02  0.00000000000E+00 0.  1.
         11    1    1    2    0    0  0.78749139743E+02 -0.17042371234E+02 -0.24840595669E+02  0.84314438981E+02  0.00000000000E+00 0. -1.
</event>
<event>
 7    1  0.2651429E-009  0.1539281E+03  0.7561462E-02  0.1195728E+00
         -3   -1    0    0    0  501 -0.00000000000E+00  0.00000000000E+00  0.55777527964E+02  0.55777527964E+02  0.00000000000E+00 0.  1.
          3   -1    0    0  501    0  0.00000000000E+00 -0.00000000000E+00 -0.72005636583E+03  0.72005636583E+03  0.00000000000E+00 0. -1.
         25    2    1    2    0    0 -0.10994894383E+03 -0.31366842466E+02 -0.56116323725E+03  0.58619482576E+03  0.12509015093E+03 0.  0.
          5    1    3    3  502    0 -0.66051067815E+01  0.34377892665E+02 -0.23756012128E+03  0.24016192572E+03  0.41800000000E+01 0.  1.
         -5    1    3    3    0  502 -0.10334383705E+03 -0.65744735132E+02 -0.32360311596E+03  0.34603290005E+03  0.41800000000E+01 0.  1.
        -11    1    1    2    0    0  0.85092510421E+02  0.65808749319E+02 -0.42586629677E+02  0.11569419970E+03  0.00000000000E+00 0.  1.
         11    1    1    2    0    0  0.24856433409E+02 -0.34441906853E+02 -0.60528970943E+02  0.73944868333E+02  0.00000000000E+00 0. -1.
</event>
<event>
 7    1  0.2651429E-009  0.1034285E+03  0.7561462E-02  0.1273247E+00
          1   -1    0    0  501    0  0.00000000000E+00  0.00000000000E+00  0.50066806934E+02  0.50066806934E+02  0.00000000000E+00 0. -1.
         -1   -1    0    0    0  501 -0.00000000000E+00 -0.00000000000E+00 -0.40121128909E+03  0.40121128909E+03  0.00000000000E+00 0.  1.
         25    2    1    2    0    0  0.39563976045E+02  0.30420391318E+02 -0.70587713878E+02  0.15205326299E+03  0.12508741355E+03 0.  0.
          5    1    3    3  502    0  0.69626689024E+02  0.10906951869E+02  0.23922779178E+01  0.70640164334E+02  0.41800000000E+01 0.  1.
         -5    1    3    3    0  502 -0.30062712979E+02  0.19513439449E+02 -0.72979991796E+02  0.81413098659E+02  0.41800000000E+01 0.  1.
        -11    1    1    2    0    0  0.22326802311E+02 -0.31093891050E+02 -0.70288475176E+02  0.80036153734E+02  0.00000000000E+00 0.  1.
         11    1    1    2    0    0 -0.61890778355E+02  0.67349973149E+00 -0.21026829310E+03  0.21918867930E+03  0.00000000000E+00 0. -1.
</event>
<event>
 7    1  0.2651429E-009  0.1434776E+03  0.7561462E-02  0.1208725E+00
         -2   -1    0    0    0  501 -0.00000000000E+00  0.00000000000E+00  0.13979825745E+03  0.13979825745E+03  0.00000000000E+00 0.  1.
          2   -1    0    0  501    0  0.00000000000E+00 -0.00000000000E+00 -0.23113789736E+03  0.23113789736E+03  0.00000000000E+00 0. -1.
         25    2    1    2    0    0 -0.72958458635E+02 -0.90465960716E+02 -0.13379206916E+03  0.21691940764E+03  0.12508670955E+03 0.  0.
          5    1    3    3  502    0 -0.97787403898E+02 -0.90587021945E+02 -0.75101358108E+02  0.15305577838E+03  0.41800000000E+01 0. -1.
         -5    1    3    3    0  502  0.24828945264E+02  0.12106122927E+00 -0.58690711048E+02  0.63863629258E+02  0.41800000000E+01 0. -1.
        -11    1    1    2    0    0  0.37385234143E+02  0.84422581556E+02  0.63672905717E+02  0.11215643954E+03  0.00000000000E+00 0.  1.
         11    1    1    2    0    0  0.35573224492E+02  0.60433791603E+01 -0.21220476472E+02  0.41860307621E+02  0.00000000000E+00 0. -1.
</event>
<event>
 7    1  0.2651429E-009  0.1316346E+03  0.7561462E-02  0.1225050E+00
         -2   -1    0    0    0  501 -0.00000000000E+00  0.00000000000E+00  0.20853185488E+03  0.20853185488E+03  0.00000000000E+00 0.  1.
          2   -1    0    0  501    0  0.00000000000E+00 -0.00000000000E+00 -0.15136206166E+03  0.15136206166E+03  0.00000000000E+00 0. -1.
         25    2    1    2    0    0 -0.12745831464E+02 -0.11646479411E+03 -0.46510829371E+02  0.17758724771E+03  0.12508984297E+03 0.  0.
          5    1    3    3  502    0  0.89640268269E+01 -0.12270367835E+03  0.28586928683E+01  0.12313484878E+03  0.41800000000E+01 0. -1.
         -5    1    3    3    0  502 -0.21709858291E+02  0.62388842427E+01 -0.49369522240E+02  0.54452398935E+02  0.41800000000E+01 0. -1.
        -11    1    1    2    0    0  0.47120781290E+01  0.31321808244E+02  0.90364639863E+02  0.95755038977E+02  0.00000000000E+00 0.  1.
         11    1    1    2    0    0  0.80337533352E+01  0.85142985866E+02  0.13315982724E+02  0.86551629856E+02  0.00000000000E+00 0. -1.
</event>
<event>
 6    1  0.2651429E-009  0.1044768E+03  0.7561462E-02  0.1271154E+00
          3   -1    0    0  501    0  0.00000000000E+00  0.00000000000E+00  0.82434544469E+02  0.82434544469E+02  0.00000000000E+00 0. -1.
         -3   -1    0    0    0  501 -0.00000000000E+00 -0.00000000000E+00 -0.17731945487E+03  0.17731945487E+03  0.00000000000E+00 0.  1.
          5    1    1    2  502    0  0.24007467629E+02  0.56932971253E+02 -0.15359343799E+02  0.63805200098E+02  0.41800000000E+01 0. -1.
         -5    1    1    2    0  502  0.11332359685E+02 -0.54807921999E+02 -0.78236359362E+02  0.96284635411E+02  0.41800000000E+01 0. -1.
        -11    1    1    2    0    0  0.15246131685E+02 -0.29629419608E+02  0.19307584482E+02  0.38511425008E+02  0.00000000000E+00 0.  1.
         11    1    1    2    0    0 -0.50585958999E+02  0.27504370354E+02 -0.20596791725E+02  0.61152738825E+02  0.00000000000E+00 0. -1.
</event>
<event>
 7    1  0.2651429E-009  0.1057845E+03  0.7561462E-02  0.1268582E+00
          2   -1    0    0  501    0  0.00000000000E+00  0.00000000000E+00  0.24703290575E+03  0.24703290575E+03  0.00000000000E+00 0. -1.
         -2   -1    0    0    0  501 -0.00000000000E+00 -0.00000000000E+00 -0.52237564248E+02  0.52237564248E+02  0.00000000000E+00 0.  1.
         25    2    1    2    0    0  0.12188950432E+02 -0.14623809740E+02  0.14652980419E+03  0.19359186295E+03  0.12507757417E+03 0.  0.
          5    1    3    3  502    0 -0.51931705728E+02 -0.13876954622E+01  0.30741610262E+02  0.60509063453E+02  0.41800000000E+01 0. -1.
         -5    1    3    3    0  502  0.64120656160E+02 -0.13236114278E+02  0.11578819393E+03  0.13308279949E+03  0.41800000000E+01 0. -1.
        -11    1    1    2    0    0  0.13309780996E+02 -0.35333192285E+02  0.22529397785E+02  0.43967698504E+02  0.00000000000E+00 0. -1.
         11    1    1    2    0    0 -0.25498731428E+02  0.49957002025E+02  0.25736139522E+02  0.61710908544E+02  0.00000000000E+00 0.  1.
</event>
<event>
 7    1  0.2651429E-009  0.1903796E+03  0.7561462E-02  0.1158119E+00
         -1   -1    0    0    0  501 -0.00000000000E+00  0.00000000000E+00  0.40447731728E+02  0.40447731728E+02  0.00000000000E+00 0.  1.
          1   -1    0    0  501    0  0.00000000000E+00 -0.00000000000E+00 -0.13238115245E+04  0.13238115245E+04  0.00000000000E+00 0. -1.
         25    2    1    2    0    0  0.30541516635E+02  0.15914755768E+03 -0.10301976031E+04  0.10503405068E+04  0.12508936631E+03 0.  0.
          5    1    3    3  502    0 -0.41941241286E+02  0.50875466722E+02 -0.21945064542E+03  0.22917992715E+03  0.41800000000E+01 0.  1.
         -5    1    3    3    0  502  0.72482757921E+02  0.10827209096E+03 -0.81074695766E+03  0.82116057968E+03  0.41800000000E+01 0.  1.
        -11    1    1    2    0    0 -0.40636665546E+02 -0.20865047889E+02 -0.47682279438E+02  0.66032481269E+02  0.00000000000E+00 0.  1.
         11    1    1    2    0    0  0.10095148911E+02 -0.13828250979E+03 -0.20548391022E+03  0.24788626808E+03  0.00000000000E+00 0. -1.
</event>
<event>
 7    1  0.2651429E-009  0.9791182E+02  0.7561462E-02  0.1284749E+00
          4   -1    0    0  501    0  0.00000000000E+00  0.00000000000E+00  0.73453381184E+02  0.73453381184E+02  0.00000000000E+00 0. -1.
         -4   -1    0    0    0  501 -0.00000000000E+00 -0.00000000000E+00 -0.17670543723E+03  0.17670543723E+03  0.00000000000E+00 0.  1.
         25    2    1    2    0    0  0.83565101396E+00  0.16019701212E+02 -0.30921169718E+02  0.12984765758E+03  0.12508783435E+03 0.  0.
          5    1    3    3  502    0 -0.40061961635E+02  0.43114235039E+02 -0.49706810785E+02  0.77149448938E+02  0.41800000000E+01 0.  1.
         -5    1    3    3    0  502  0.40897612649E+02 -0.27094533827E+02  0.18785641067E+02  0.52698208642E+02  0.41800000000E+01 0.  1.
        -11    1    1    2    0    0  0.36446197986E+02 -0.30565185830E+02 -0.14021441157E+02  0.49589885507E+02  0.00000000000E+00 0. -1.
         11    1    1    2    0    0 -0.37281849000E+02  0.14545484619E+02 -0.58309445173E+02  0.70721275328E+02  0.00000000000E+00 0.  1.
</event>
<event>
 7    1  0.2651429E-009  0.9049654E+02  0.7561462E-02  0.1301654E+00
          1   -1    0    0  501    0  0.00000000000E+00  0.00000000000E+00  0.18260843137E+04  0.18260843137E+04  0.00000000000E+00 0. -1.
         -1   -1    0    0    0  501 -0.00000000000E+00 -0.00000000000E+00 -0.87099018874E+01  0.87099018874E+01  0.00000000000E+00 0.  1.
         25    2    1    2    0    0 -0.40599278020E+02  0.16048586723E+02  0.14076277636E+04  0.14138491014E+04  0.12508997617E+03 0.  0.
          5    1    3    3  502    0 -0.11463103301E+02 -0.28694520300E+02  0.11634113372E+04  0.11638291069E+04  0.41800000000E+01 0. -1.
         -5    1    3    3    0  502 -0.29136174719E+02  0.44743107023E+02  0.24421642646E+03  0.25001999452E+03  0.41800000000E+01 0. -1.
        -11    1    1    2    0    0  0.64419859728E+02 -0.27233066793E+02  0.30925160477E+03  0.31706168691E+03  0.00000000000E+00 0. -1.
         11    1    1    2    0    0 -0.23820581708E+02  0.11184480070E+02  0.10049504337E+03  0.10388342721E+03  0.00000000000E+00 0.  1.
</event>
<event>
 7    1  0.2651429E-009  0.1369923E+03  0.7561462E-02  0.1217434E+00
         -2   -1    0    0    0  501 -0.00000000000E+00  0.00000000000E+00  0.50469948026E+03  0.50469948026E+03  0.00000000000E+00 0. -1.
          2   -1    0    0  501    0  0.00000000000E+00 -0.00000000000E+00 -0.48690934175E+02  0.48690934175E+02  0.00000000000E+00 0.  1.
         25    2    1    2    0    0  0.80402355351E+02  0.58809667100E+02  0.15235761723E+03  0.22085313438E+03  0.12506057630E+03 0.  0.
          5    1    3    3  502    0  0.69593400846E+02 -0.20946484770E+02  0.41500234912E+02  0.83795814712E+02  0.41800000000E+01 0.  1.
         -5    1    3    3    0  502  0.10808954505E+02  0.79756151870E+02  0.11085738232E+03  0.13705731966E+03  0.41800000000E+01 0.  1.
        -11    1    1    2    0    0 -0.49220688891E+02 -0.71603421331E+02  0.13495422227E+03  0.16050659884E+03  0.00000000000E+00 0.  1.
         11    1    1    2    0    0 -0.31181666461E+02  0.12793754230E+02  0.16869670658E+03  0.17203068122E+03  0.00000000000E+00 0. -1.
</event>
<event>
 7    1  0.2651429E-009  0.7757629E+02  0.7561462E-02  0.1336074E+00
          2   -1    0    0  501    0  0.00000000000E+00  0.00000000000E+00  0.30021419974E+03  0.30021419974E+03  0.00000000000E+00 0. -1.
         -2   -1    0    0    0  501 -0.00000000000E+00 -0.00000000000E+00 -0.39332481475E+02  0.39332481475E+02  0.00000000000E+00 0.  1.
         25    2    1    2    0    0  0.52151026706E+01  0.16334640122E+02  0.16861198851E+03  0.21064728514E+03  0.12509299862E+03 0.  0.
          5    1    3    3  502    0  0.41034644142E+02  0.19975058804E+02  0.86603703236E+01  0.46640319555E+02  0.41800000000E+01 0. -1.
         -5    1    3    3    0  502 -0.35819541472E+02 -0.36404186814E+01  0.15995161819E+03  0.16400696558E+03  0.41800000000E+01 0. -1.
        -11    1    1    2    0    0  0.17648400097E+02  0.22145365478E+02  0.23002675803E+01  0.28410816058E+02  0.00000000000E+00 0.  1.
         11    1    1    2    0    0 -0.22863502768E+02 -0.38480005601E+02  0.89969462173E+02  0.10048858002E+03  0.00000000000E+00 0. -1.
</event>
<event>
 7    1  0.2651429E-009  0.2096714E+03  0.7561462E-02  0.1141826E+00
         -2   -1    0    0    0  501 -0.00000000000E+00  0.00000000000E+00  0.89433515422E+02  0.89433515422E+02  0.00000000000E+00 0.  1.
          2   -1    0    0  501    0  0.00000000000E+00 -0.00000000000E+00 -0.69675449172E+03  0.69675449172E+03  0.00000000000E+00 0. -1.
         25    2    1    2    0    0  0.17096615767E+03 -0.71959563799E+02 -0.11295536077E+03  0.25062967259E+03  0.12509481749E+03 0.  0.
          5    1    3    3  502    0  0.18799707595E+03 -0.68644293698E+02 -0.85036576147E+02  0.21749397993E+03  0.41800000000E+01 0.  1.
         -5    1    3    3    0  502 -0.17030918277E+02 -0.33152701004E+01 -0.27918784622E+02  0.33135692659E+02  0.41800000000E+01 0.  1.
        -11    1    1    2    0    0  0.80036943287E+01  0.78451901085E+01 -0.92800635287E+01  0.14550797567E+02  0.00000000000E+00 0.  1.
         11    1    1    2    0    0 -0.17896985200E+03  0.64114373690E+02 -0.48508555200E+03  0.52100753698E+03  0.00000000000E+00 0. -1.
</event>
<event>
 7    1  0.2651429E-009  0.1187312E+03  0.7561462E-02  0.1245205E+00
          2   -1    0    0  501    0  0.00000000000E+00  0.00000000000E+00  0.75628097563E+03  0.75628097563E+03  0.00000000000E+00 0. -1.
         -2   -1    0    0    0  501 -0.00000000000E+00 -0.00000000000E+00 -0.21523844623E+02  0.21523844623E+02  0.00000000000E+00 0.  1.
         25    2    1    2    0    0  0.15728747446E+02  0.61453175529E+02  0.31986540825E+03  0.34926408138E+03  0.12509049873E+03 0.  0.
          5    1    3    3  502    0 -0.49817619945E+02  0.21625078205E+02  0.19676308268E+03  0.20416322482E+03  0.41800000000E+01 0. -1.
         -5    1    3    3    0  502  0.65546367391E+02  0.39828097323E+02  0.12310232557E+03  0.14510085656E+03  0.41800000000E+01 0. -1.
        -11    1    1    2    0    0 -0.47451941421E+02 -0.14691204759E+02  0.16365223190E+03  0.17102506029E+03  0.00000000000E+00 0.  1.
         11    1    1    2    0    0  0.31723193975E+02 -0.46761970770E+02  0.25123949086E+03  0.25751567858E+03  0.00000000000E+00 0. -1.
</event>
<event>
 7    1  0.2651429E-009  0.1088254E+03  0.7561462E-02  0.1262761E+00
          2   -1    0    0  501    0  0.00000000000E+00  0.00000000000E+00  0.32911849851E+03  0.32911849851E+03  0.00000000000E+00 0. -1.
         -2   -1    0    0    0  501 -0.00000000000E+00 -0.00000000000E+00 -0.61333948401E+02  0.61333948401E+02  0.00000000000E+00 0.  1.
         25    2    1    2    0    0 -0.42028050928E+02  0.47197863745E+02  0.23807834516E+03  0.27626715986E+03  0.12509296454E+03 0.  0.
          5    1    3    3  502    0 -0.47070251962E+02  0.73042408749E+02  0.23354643376E+03  0.24922321565E+03  0.41800000000E+01 0. -1.
         -5    1    3    3    0  502  0.50422010337E+01 -0.25844545004E+02  0.45319113966E+01  0.27043944213E+02  0.41800000000E+01 0. -1.
        -11    1    1    2    0    0 -0.85362981080E+01 -0.52465456783E+02  0.34107620989E+02  0.63157124303E+02  0.00000000000E+00 0. -1.
         11    1    1    2    0    0  0.50564349037E+02  0.52675930376E+01 -0.44014160389E+01  0.51028162744E+02  0.00000000000E+00 0.  1.
</event>
<event>
 7    1  0.2651429E-009  0.9867093E+02  0.7561462E-02  0.1283116E+00
          1   -1    0    0  501    0  0.00000000000E+00  0.00000000000E+00  0.76495906115E+02  0.76495906115E+02  0.00000000000E+00 0. -1.
         -1   -1    0    0    0  501 -0.00000000000E+00 -0.00000000000E+00 -0.15932122769E+03  0.15932122769E+03  0.00000000000E+00 0.  1.
         25    2    1    2    0    0 -0.10396481130E+02  0.54550147733E+01 -0.30135081267E+02  0.12920449303E+03  0.12509130221E+03 0.  0.
          5    1    3    3  502    0  0.41968617863E+01 -0.56579944201E+02  0.35507462187E+01  0.56999859065E+02  0.41800000000E+01 0. -1.
         -5    1    3    3    0  502 -0.14593342916E+02  0.62034958975E+02 -0.33685827486E+02  0.72204633964E+02  0.41800000000E+01 0. -1.
        -11    1    1    2    0    0  0.27126843751E+02 -0.34003209093E+02 -0.58620377021E+02  0.72996112791E+02  0.00000000000E+00 0.  1.
         11    1    1    2    0    0 -0.16730362622E+02  0.28548194320E+02  0.59301367128E+01  0.33616527985E+02  0.00000000000E+00 0. -1.
</event>
<event>
 7    1  0.2651429E-009  0.1144849E+03  0.7561462E-02  0.1252483E+00
         -1   -1    0    0    0  501 -0.00000000000E+00  0.00000000000E+00  0.11415282689E+03  0.11415282689E+03  0.00000000000E+00 0.  1.
          1   -1    0    0  501    0  0.00000000000E+00 -0.00000000000E+00 -0.75006344320E+03  0.75006344320E+03  0.00000000000E+00 0. -1.
         25    2    1    2    0    0 -0.46018920773E+02  0.82898778147E+02 -0.70001408438E+03  0.71739649581E+03  0.12509222750E+03 0.  0.
          5    1    3    3  502    0 -0.64656502870E+02  0.22377449696E+02 -0.16558459758E+03  0.17921201124E+03  0.41800000000E+01 0.  1.
         -5    1    3    3    0  502  0.18637582098E+02  0.60521328452E+02 -0.53442948680E+03  0.53818448457E+03  0.41800000000E+01 0.  1.
        -11    1    1    2    0    0  0.33593938604E+02 -0.75147132254E+02  0.12928139584E+01  0.82324453019E+02  0.00000000000E+00 0. -1.
         11    1    1    2    0    0  0.12424982169E+02 -0.77516458927E+01  0.62810654110E+02  0.64495321269E+02  0.00000000000E+00 0.  1.
</event>
<event>
 7    1  0.2651429E-009  0.1527167E+03  0.7561462E-02  0.1197174E+00
          2   -1    0    0  501    0  0.00000000000E+00  0.00000000000E+00  0.77127389326E+03  0.77127389326E+03  0.00000000000E+00 0. -1.
         -2   -1    0    0    0  501 -0.00000000000E+00 -0.00000000000E+00 -0.61151127144E+02  0.61151127144E+02  0.00000000000E+00 0.  1.
         25    2    1    2    0    0 -0.12614939153E+03 -0.49382163279E+02  0.11762534507E+03  0.21871297281E+03  0.12508947055E+03 0.  0.
          5    1    3    3  502    0 -0.76316856106E+01 -0.25772322694E+02  0.90890939698E+02  0.94874077394E+02  0.41800000000E+01 0. -1.
         -5    1    3    3    0  502 -0.11851770592E+03 -0.23609840586E+02  0.26734405372E+02  0.12383889542E+03  0.41800000000E+01 0. -1.
        -11    1    1    2    0    0  0.11157504285E+03  0.62105267597E+01  0.46745275766E+03  0.48062422064E+03  0.00000000000E+00 0. -1.
         11    1    1    2    0    0  0.14574348681E+02  0.43171636520E+02  0.12504466339E+03  0.13308782695E+03  0.00000000000E+00 0.  1.
</event>
<event>
 7    1  0.2651429E-009  0.4280243E+03  0.7561462E-02  0.1034486E+00
         -1   -1    0    0    0  501 -0.00000000000E+00  0.00000000000E+00  0.16406322425E+03  0.16406322425E+03  0.00000000000E+00 0.  1.
          1   -1    0    0  501    0  0.00000000000E+00 -0.00000000000E+00 -0.17645680144E+04  0.17645680144E+04  0.00000000000E+00 0. -1.
         25    2    1    2    0    0 -0.30436606792E+03 -0.28749481740E+03 -0.13788850425E+04  0.14464664766E+04  0.12509729986E+03 0.  0.
          5    1    3    3  502    0 -0.20305033550E+03 -0.26162520636E+03 -0.10017957024E+04  0.10551252481E+04  0.41800000000E+01 0.  1.
         -5    1    3    3    0  502 -0.10131573241E+03 -0.25869611043E+02 -0.37708934001E+03  0.39134122854E+03  0.41800000000E+01 0.  1.
        -11    1    1    2    0    0  0.96749848321E+02  0.69288020934E+02 -0.22525669787E+02  0.12111469273E+03  0.00000000000E+00 0.  1.
         11    1    1    2    0    0  0.20761621960E+03  0.21820679647E+03 -0.19909407793E+03  0.36105006929E+03  0.00000000000E+00 0. -1.
</event>
<event>
 7    1  0.2651429E-009  0.2053928E+03  0.7561462E-02  0.1145267E+00
          2   -1    0    0  501    0  0.00000000000E+00  0.00000000000E+00  0.70943880275E+03  0.70943880275E+03  0.00000000000E+00 0.  1.
         -2   -1    0    0    0  501 -0.00000000000E+00 -0.00000000000E+00 -0.64873355820E+02  0.64873355820E+02  0.00000000000E+00 0. -1.
         25    2    1    2    0    0  0.78996189396E+02  0.15953414432E+03  0.43530107566E+03  0.48664832583E+03  0.12509206777E+03 0.  0.
          5    1    3    3  502    0  0.44548963754E+01 -0.19265768418E+02  0.73520282110E+02  0.76247755482E+02  0.41800000000E+01 0.  1.
         -5    1    3    3    0  502  0.74541293020E+02  0.17879991274E+03  0.36178079355E+03  0.41040057035E+03  0.41800000000E+01 0.  1.
        -11    1    1    2    0    0 -0.36796685707E+02 -0.56251742430E+01  0.48496727185E+02  0.61135678714E+02  0.00000000000E+00 0.  1.
         11    1    1    2    0    0 -0.42199503689E+02 -0.15390897008E+03  0.16076764409E+03  0.22652815403E+03  0.00000000000E+00 0. -1.
</event>
<event>
 7    1  0.2651429E-009  0.7812767E+02  0.7561462E-02  0.1334450E+00
         -2   -1    0    0    0  501 -0.00000000000E+00  0.00000000000E+00  0.93662916244E+02  0.93662916244E+02  0.00000000000E+00 0.  1.
          2   -1    0    0  501    0  0.00000000000E+00 -0.00000000000E+00 -0.16738501551E+03  0.16738501551E+03  0.00000000000E+00 0. -1.
         25    2    1    2    0    0  0.44798257879E+02  0.13761406740E+02  0.19841323256E+01  0.13360507905E+03  0.12510044022E+03 0.  0.
          5    1    3    3  502    0  0.33539709076E+02 -0.20736963114E+01 -0.59789624374E+02  0.68713054685E+02  0.41800000000E+01 0. -1.
         -5    1    3    3    0  502  0.11258548803E+02  0.15835103052E+02  0.61773756700E+02  0.64892024368E+02  0.41800000000E+01 0. -1.
        -11    1    1    2    0    0 -0.15983475426E+02  0.39140460130E+02 -0.31489781732E+02  0.52716728459E+02  0.00000000000E+00 0. -1.
         11    1    1    2    0    0 -0.28814782453E+02 -0.52901866870E+02 -0.44216449861E+02  0.74726124244E+02  0.00000000000E+00 0.  1.
</event>
<event>
 7    1  0.2651429E-009  0.1327710E+03  0.7561462E-02  0.1223401E+00
         -1   -1    0    0    0  501 -0.00000000000E+00  0.00000000000E+00  0.62543794077E+02  0.62543794077E+02  0.00000000000E+00 0.  1.
          1   -1    0    0  501    0  0.00000000000E+00 -0.00000000000E+00 -0.47609141410E+03  0.47609141410E+03  0.00000000000E+00 0. -1.
         25    2    1    2    0    0 -0.79842244267E+02 -0.72154367139E+02 -0.34533565196E+03  0.38273364445E+03  0.12508914186E+03 0.  0.
          5    1    3    3  502    0  0.10016827726E+02 -0.50355266163E+02 -0.44801490908E+02  0.68268848354E+02  0.41800000000E+01 0.  1.
         -5    1    3    3    0  502 -0.89859071993E+02 -0.21799100975E+02 -0.30053416105E+03  0.31446479609E+03  0.41800000000E+01 0.  1.
        -11    1    1    2    0    0  0.32627199083E+02 -0.29472260258E+01  0.13368140199E+02  0.35382586588E+02  0.00000000000E+00 0.  1.
         11    1    1    2    0    0  0.47215045184E+02  0.75101593164E+02 -0.81580108266E+02  0.12051897715E+03  0.00000000000E+00 0. -1.
</event>
<event>
 7    1  0.2651429E-009  0.8947877E+02  0.7561462E-02  0.1304119E+00
          2   -1    0    0  501    0  0.00000000000E+00  0.00000000000E+00  0.62341939841E+03  0.62341939841E+03  0.00000000000E+00 0.  1.
         -2   -1    0    0    0  501 -0.00000000000E+00 -0.00000000000E+00 -0.22553800899E+02  0.22553800899E+02  0.00000000000E+00 0. -1.
         25    2    1    2    0    0  0.24951346941E+02 -0.38711798008E+02  0.30315272397E+03  0.33116499383E+03  0.12508999189E+03 0.  0.
          5    1    3    3  502    0 -0.17059041815E+01 -0.52469147653E+02  0.29518616770E+03  0.29984707363E+03  0.41800000000E+01 0.  1.
         -5    1    3    3    0  502  0.26657251122E+02  0.13757349645E+02  0.79665562652E+01  0.31317920195E+02  0.41800000000E+01 0.  1.
        -11    1    1    2    0    0 -0.47409464810E+02 -0.41777146575E+01  0.20220485877E+03  0.20773039152E+03  0.00000000000E+00 0.  1.
         11    1    1    2    0    0  0.22458117869E+02  0.42889512665E+02  0.95508014776E+02  0.10707781395E+03  0.00000000000E+00 0. -1.
</event>
<event>
 7    1  0.2834297E-009  0.9079515E+02  0.7561462E-02  0.1300937E+00
          2   -1    0    0  501    0  0.00000000000E+00  0.00000000000E+00  0.27501140305E+03  0.27501140305E+03  0.00000000000E+00 0. -1.
         -2   -1    0    0    0  501 -0.00000000000E+00 -0.00000000000E+00 -0.76058530785E+02  0.76058530785E+02  0.00000000000E+00 0.  1.
         25    2    1    2    0    0  0.31910119421E+01 -0.72632607756E+02  0.18159573212E+03  0.23218588431E+03  0.12509035408E+03 0.  0.
          5    1    3    3  502    0  0.11010045396E+02 -0.76401980405E+01 -0.17574164081E+02  0.22492606983E+02  0.41800000000E+01 0. -1.
         -5    1    3    3    0  502 -0.78190334542E+01 -0.64992409716E+02  0.19916989620E+03  0.20969327733E+03  0.41800000000E+01 0. -1.
        -11    1    1    2    0    0  0.25632190886E+02  0.68120922024E+02  0.38985462262E+02  0.82567157483E+02  0.00000000000E+00 0. -1.
         11    1    1    2    0    0 -0.28823202828E+02  0.45116857323E+01 -0.21628322121E+02  0.36316892036E+02  0.00000000000E+00 0.  1.
</event>
<event>
 7    1  0.2651429E-009  0.1010611E+03  0.7561462E-02  0.1278080E+00
         -3   -1    0    0    0  501 -0.00000000000E+00  0.00000000000E+00  0.12417769291E+03  0.12417769291E+03  0.00000000000E+00 0.  1.
          3   -1    0    0  501    0  0.00000000000E+00 -0.00000000000E+00 -0.10907291975E+03  0.10907291975E+03  0.00000000000E+00 0. -1.
         25    2    1    2    0    0  0.23057129381E+02 -0.36046414522E+02  0.50779656097E+01  0.13230485946E+03  0.12509122626E+03 0.  0.
          5    1    3    3  502    0  0.68367358837E+02 -0.28445462415E+02  0.29841978237E+02  0.79945332268E+02  0.41800000000E+01 0.  1.
         -5    1    3    3    0  502 -0.45310229456E+02 -0.76009521067E+01 -0.24764012627E+02  0.52359527191E+02  0.41800000000E+01 0.  1.
        -11    1    1    2    0    0 -0.28448931349E+01 -0.21056463121E+02  0.30353819074E+02  0.37051617893E+02  0.00000000000E+00 0.  1.
         11    1    1    2    0    0 -0.20212236247E+02  0.57102877643E+02 -0.20327011528E+02  0.63894135309E+02  0.00000000000E+00 0. -1.
</event>
<event>
 7    1  0.2651429E-009  0.9203613E+02  0.7561462E-02  0.1297995E+00
         -1   -1    0    0    0  501 -0.00000000000E+00  0.00000000000E+00  0.48731290777E+03  0.48731290777E+03  0.00000000000E+00 0.  1.
          1   -1    0    0  501    0  0.00000000000E+00 -0.00000000000E+00 -0.28048189526E+02  0.28048189526E+02  0.00000000000E+00 0. -1.
         25    2    1    2    0    0 -0.98900185662E+01 -0.51706981024E+01  0.36198844399E+03  0.38314201411E+03  0.12505047305E+03 0.  0.
          5    1    3    3  502    0 -0.50654892918E+02  0.22229330723E+02  0.83003408083E+02  0.99835361843E+02  0.41800000000E+01 0.  1.
         -5    1    3    3    0  502  0.40764874352E+02 -0.27400028825E+02  0.27898503591E+03  0.28330665227E+03  0.41800000000E+01 0.  1.
        -11    1    1    2    0    0  0.42416664554E+02 -0.97393475190E+01  0.82955682931E+02  0.93678565598E+02  0.00000000000E+00 0.  1.
         11    1    1    2    0    0 -0.32526645988E+02  0.14910045621E+02  0.14320591318E+02  0.38540517580E+02  0.00000000000E+00 0. -1.
</event>
<event>
 7    1  0.2651429E-009  0.1405206E+03  0.7561462E-02  0.1212630E+00
          4   -1    0    0  501    0  0.00000000000E+00  0.00000000000E+00  0.38090209111E+02  0.38090209111E+02  0.00000000000E+00 0. -1.
         -4   -1    0    0    0  501 -0.00000000000E+00 -0.00000000000E+00 -0.81250737761E+03  0.81250737761E+03  0.00000000000E+00 0.  1.
         25    2    1    2    0    0  0.13755908666E+03 -0.67399599966E+01 -0.49042189009E+03  0.52452785858E+03  0.12509162547E+03 0.  0.
          5    1    3    3  502    0  0.46840920819E+02 -0.93406433189E+01 -0.33081846167E+02  0.58251183908E+02  0.41800000000E+01 0.  1.
         -5    1    3    3    0  502  0.90718165836E+02  0.26006833223E+01 -0.45734004392E+03  0.46627667467E+03  0.41800000000E+01 0.  1.
        -11    1    1    2    0    0 -0.54473704493E+02 -0.14728168127E+02 -0.19262250419E+03  0.20071804238E+03  0.00000000000E+00 0.  1.
         11    1    1    2    0    0 -0.83085382163E+02  0.21468128123E+02 -0.91372774214E+02  0.12535168576E+03  0.00000000000E+00 0. -1.
</event>
<event>
 7    1  0.2651429E-009  0.8869935E+02  0.7561462E-02  0.1306032E+00
          2   -1    0    0  501    0  0.00000000000E+00  0.00000000000E+00  0.61426811931E+03  0.61426811931E+03  0.00000000000E+00 0. -1.
         -2   -1    0    0    0  501 -0.00000000000E+00 -0.00000000000E+00 -0.21023088664E+02  0.21023088664E+02  0.00000000000E+00 0.  1.
         25    2    1    2    0    0 -0.34481788708E+02 -0.69789900842E+01  0.33130921123E+03  0.35588026258E+03  0.12508903948E+03 0.  0.
          5    1    3    3  502    0 -0.31550484325E+02 -0.51983171665E+02  0.80276159167E+02  0.10079393498E+03  0.41800000000E+01 0. -1.
         -5    1    3    3    0  502 -0.29313043832E+01  0.45004181581E+02  0.25103305206E+03  0.25508632761E+03  0.41800000000E+01 0. -1.
        -11    1    1    2    0    0  0.10938389936E+02 -0.27390465583E+02  0.24483536981E+02  0.38331834842E+02  0.00000000000E+00 0.  1.
         11    1    1    2    0    0  0.23543398772E+02  0.34369455667E+02  0.23745228244E+03  0.24107911055E+03  0.00000000000E+00 0. -1.
</event>
<event>
 7    1  0.2651429E-009  0.1359242E+03  0.7561462E-02  0.1218921E+00
          1   -1    0    0  501    0  0.00000000000E+00  0.00000000000E+00  0.19608571662E+03  0.19608571662E+03  0.00000000000E+00 0. -1.
         -1   -1    0    0    0  501 -0.00000000000E+00 -0.00000000000E+00 -0.11201173973E+03  0.11201173973E+03  0.00000000000E+00 0.  1.
         25    2    1    2    0    0 -0.36557873188E+02 -0.89973933848E+02  0.17155407127E+02  0.15929068667E+03  0.12508967984E+03 0.  0.
          5    1    3    3  502    0 -0.54105778681E+02 -0.77877611176E+01 -0.30350714796E+02  0.62663568352E+02  0.41800000000E+01 0. -1.
         -5    1    3    3    0  502  0.17547905493E+02 -0.82186172730E+02  0.47506121924E+02  0.96627118323E+02  0.41800000000E+01 0. -1.
        -11    1    1    2    0    0  0.65449412831E+02  0.44993792673E+02  0.38493466294E+02  0.88259922765E+02  0.00000000000E+00 0.  1.
         11    1    1    2    0    0 -0.28891539643E+02  0.44980141175E+02  0.28425103471E+02  0.60546846907E+02  0.00000000000E+00 0. -1.
</event>
<event>
 7    1  0.2651429E-009  0.9918914E+02  0.7561462E-02  0.1282010E+00
         -2   -1    0    0    0  501 -0.00000000000E+00  0.00000000000E+00  0.40594718841E+02  0.40594718841E+02  0.00000000000E+00 0.  1.
          2   -1    0    0  501    0  0.00000000000E+00 -0.00000000000E+00 -0.38721621893E+03  0.38721621893E+03  0.00000000000E+00 0. -1.
         25    2    1    2    0    0 -0.14277152023E+01 -0.26383937679E+02 -0.10155230222E+03  0.16328199935E+03  0.12509992280E+03 0.  0.
          5    1    3    3  502    0  0.67228815812E+01  0.40268337577E+02 -0.84403957929E+02  0.93852206485E+02  0.41800000000E+01 0. -1.
         -5    1    3    3    0  502 -0.81505967835E+01 -0.66652275256E+02 -0.17148344294E+02  0.69429792861E+02  0.41800000000E+01 0. -1.
        -11    1    1    2    0    0 -0.32616673027E+02  0.41523103229E+02 -0.84082261002E+02  0.99286666156E+02  0.00000000000E+00 0.  1.
         11    1    1    2    0    0  0.34044388230E+02 -0.15139165550E+02 -0.16098693686E+03  0.16524227227E+03  0.00000000000E+00 0. -1.
</event>
<event>
 7    1  0.2651429E-009  0.1092000E+03  0.7561462E-02  0.1262059E+00
         -2   -1    0    0    0  501 -0.00000000000E+00  0.00000000000E+00  0.59109042929E+02  0.59109042929E+02  0.00000000000E+00 0.  1.
          2   -1    0    0  501    0  0.00000000000E+00 -0.00000000000E+00 -0.25740843748E+03  0.25740843748E+03  0.00000000000E+00 0. -1.
         25    2    1    2    0    0 -0.14008809354E+02  0.55751836639E+02 -0.12874171640E+03  0.18848000234E+03  0.12508304327E+03 0.  0.
          5    1    3    3  502    0  0.63597537263E+01  0.83597205172E+02 -0.39621880519E+02  0.92824053972E+02  0.41800000000E+01 0.  1.
         -5    1    3    3    0  502 -0.20368563080E+02 -0.27845368533E+02 -0.89119835884E+02  0.95655948371E+02  0.41800000000E+01 0.  1.
        -11    1    1    2    0    0 -0.33172577197E+02 -0.34809664503E+02 -0.57632565682E+02  0.75057612857E+02  0.00000000000E+00 0. -1.
         11    1    1    2    0    0  0.47181386551E+02 -0.20942172135E+02 -0.11925112470E+02  0.52979865214E+02  0.00000000000E+00 0.  1.
</event>
<event>
 7    1  0.2651429E-009  0.9233420E+02  0.7561462E-02  0.1297296E+00
          4   -1    0    0  501    0  0.00000000000E+00  0.00000000000E+00  0.12525962003E+03  0.12525962003E+03  0.00000000000E+00 0. -1.
         -4   -1    0    0    0  501 -0.00000000000E+00 -0.00000000000E+00 -0.11064018378E+03  0.11064018378E+03  0.00000000000E+00 0.  1.
         25    2    1    2    0    0 -0.43875793494E+02 -0.68578267760E+01 -0.11380791449E+02  0.13321765812E+03  0.12508120154E+03 0.  0.
          5    1    3    3  502    0  0.16394320959E+02  0.13457638169E+02  0.43842862751E+02  0.48883031811E+02  0.41800000000E+01 0.  1.
         -5    1    3    3    0  502 -0.60270114454E+02 -0.20315464945E+02 -0.55223654200E+02  0.84334626313E+02  0.41800000000E+01 0.  1.
        -11    1    1    2    0    0  0.44294254534E+02  0.43843048055E+02  0.17427793328E+02  0.64714154771E+02  0.00000000000E+00 0. -1.
         11    1    1    2    0    0 -0.41846103965E+00 -0.36985221279E+02  0.85724343758E+01  0.37967990911E+02  0.00000000000E+00 0.  1.
</event>
<event>
 7    1  0.2651429E-009  0.9251715E+02  0.7561462E-02  0.1296868E+00
         -1   -1    0    0    0  501 -0.00000000000E+00  0.00000000000E+00  0.16988664884E+02  0.16988664884E+02  0.00000000000E+00 0.  1.
          1   -1    0    0  501    0  0.00000000000E+00 -0.00000000000E+00 -0.32512271922E+04  0.32512271922E+04  0.00000000000E+00 0. -1.
         25    2    1    2    0    0 -0.51150592377E+02  0.94324761106E+01 -0.30689934019E+04  0.30719819834E+04  0.12508977123E+03 0.  0.
          5    1    3    3  502    0  0.32956400525E+02  0.21853383761E+02 -0.16217772631E+04  0.16222646696E+04  0.41800000000E+01 0. -1.
         -5    1    3    3    0  502 -0.84106992902E+02 -0.12420907650E+02 -0.14472161388E+04  0.14497173138E+04  0.41800000000E+01 0. -1.
        -11    1    1    2    0    0  0.31933887311E+02 -0.20523977783E+02 -0.16945093223E+03  0.17365087174E+03  0.00000000000E+00 0. -1.
         11    1    1    2    0    0  0.19216705066E+02  0.11091501672E+02  0.42058068479E+01  0.22583001886E+02  0.00000000000E+00 0.  1.
</event>
<event>
 7    1  0.2651429E-009  0.1784295E+03  0.7561462E-02  0.1169332E+00
         -2   -1    0    0    0  501 -0.00000000000E+00  0.00000000000E+00  0.11287041114E+03  0.11287041114E+03  0.00000000000E+00 0.  1.
          2   -1    0    0  501    0  0.00000000000E+00 -0.00000000000E+00 -0.31494637329E+03  0.31494637329E+03  0.00000000000E+00 0. -1.
         25    2    1    2    0    0 -0.96703120915E+02  0.12042548652E+03 -0.10957763581E+03  0.22695432179E+03  0.12508882649E+03 0.  0.
          5    1    3    3  502    0 -0.36300093140E+02  0.13046044764E+03 -0.89525603058E+02  0.16238821128E+03  0.41800000000E+01 0.  1.
         -5    1    3    3    0  502 -0.60403027776E+02 -0.10034961121E+02 -0.20052032751E+02  0.64566110512E+02  0.41800000000E+01 0.  1.
        -11    1    1    2    0    0  0.28365535391E+02 -0.68614996746E+02 -0.87788321655E+02  0.11497569654E+03  0.00000000000E+00 0. -1.
         11    1    1    2    0    0  0.68337585524E+02 -0.51810489771E+02 -0.47100046840E+01  0.85886766092E+02  0.00000000000E+00 0.  1.
</event>
<event>
 7    1  0.2651429E-009  0.1002459E+03  0.7561462E-02  0.1279780E+00
         -1   -1    0    0    0  501 -0.00000000000E+00  0.00000000000E+00  0.14345740987E+02  0.14345740987E+02  0.00000000000E+00 0.  1.
          1   -1    0    0  501    0  0.00000000000E+00 -0.00000000000E+00 -0.87150216286E+03  0.87150216286E+03  0.00000000000E+00 0. -1.
         25    2    1    2    0    0 -0.67540498399E+01 -0.39654155477E+02 -0.56804709223E+03  0.58304624529E+03  0.12508939169E+03 0.  0.
          5    1    3    3  502    0 -0.54910626633E+02 -0.55535641348E+02 -0.28885401461E+03  0.29925490561E+03  0.41800000000E+01 0. -1.
         -5    1    3    3    0  502  0.48156576794E+02  0.15881485870E+02 -0.27919307762E+03  0.28379133968E+03  0.41800000000E+01 0. -1.
        -11    1    1    2    0    0  0.22081888363E+02  0.48792375406E+02 -0.27468060205E+03  0.27985306651E+03  0.00000000000E+00 0. -1.
         11    1    1    2    0    0 -0.15327838523E+02 -0.91382199290E+01 -0.14428727592E+02  0.22948592052E+02  0.00000000000E+00 0.  1.
</event>
<event>
 7    1  0.2651429E-009  0.1555512E+03  0.7561462E-02  0.1193813E+00
         -1   -1    0    0    0  501 -0.00000000000E+00  0.00000000000E+00  0.41408104551E+02  0.41408104551E+02  0.00000000000E+00 0.  1.
          1   -1    0    0  501    0  0.00000000000E+00 -0.00000000000E+00 -0.11638516094E+04  0.11638516094E+04  0.00000000000E+00 0. -1.
         25    2    1    2    0    0  0.91847637096E+02  0.40960254393E+02 -0.90153832299E+03  0.91571443344E+03  0.12509134632E+03 0.  0.
          5    1    3    3  502    0  0.43789803468E+02 -0.31858675790E+02 -0.57952472746E+03  0.58206434717E+03  0.41800000000E+01 0.  1.
         -5    1    3    3    0  502  0.48057833628E+02  0.72818930183E+02 -0.32201359553E+03  0.33365008627E+03  0.41800000000E+01 0.  1.
        -11    1    1    2    0    0 -0.12668189274E+03 -0.18581203140E+02 -0.10219260090E+03  0.16381968971E+03  0.00000000000E+00 0. -1.
         11    1    1    2    0    0  0.34834255646E+02 -0.22379051253E+02 -0.11871258094E+03  0.12572559077E+03  0.00000000000E+00 0.  1.
</event>
<event>
 7    1  0.2651429E-009  0.1114657E+03  0.7561462E-02  0.1257879E+00
          3   -1    0    0  501    0  0.00000000000E+00  0.00000000000E+00  0.71163623551E+03  0.71163623551E+03  0.00000000000E+00 0. -1.
         -3   -1    0    0    0  501 -0.00000000000E+00 -0.00000000000E+00 -0.19470164681E+02  0.19470164681E+02  0.00000000000E+00 0.  1.
         25    2    1    2    0    0  0.99081415687E+00 -0.30340161339E+02  0.28873210814E+03  0.31612540067E+03  0.12509009385E+03 0.  0.
          5    1    3    3  502    0  0.42953098520E+02 -0.62233215373E+02  0.17658491957E+03  0.19213965751E+03  0.41800000000E+01 0. -1.
         -5    1    3    3    0  502 -0.41962284363E+02  0.31893054034E+02  0.11214718857E+03  0.12398574316E+03  0.41800000000E+01 0. -1.
        -11    1    1    2    0    0 -0.42847748260E+02  0.37508176461E+00  0.23432860251E+03  0.23821411413E+03  0.00000000000E+00 0.  1.
         11    1    1    2    0    0  0.41856934103E+02  0.29965079575E+02  0.16910536018E+03  0.17676688538E+03  0.00000000000E+00 0. -1.
</event>
<event>
 7    1  0.2651429E-009  0.1672295E+03  0.7561462E-02  0.1180768E+00
          1   -1    0    0  501    0  0.00000000000E+00  0.00000000000E+00  0.15269136787E+03  0.15269136787E+03  0.00000000000E+00 0.  1.
         -1   -1    0    0    0  501 -0.00000000000E+00 -0.00000000000E+00 -0.18698436402E+03  0.18698436402E+03  0.00000000000E+00 0. -1.
         25    2    1    2    0    0  0.54123488724E+02  0.11484580856E+03 -0.39811818319E+02  0.18262711607E+03  0.12509504735E+03 0.  0.
          5    1    3    3  502    0 -0.24088830154E+02  0.93367644214E+02 -0.14774027204E+02  0.97639812597E+02  0.41800000000E+01 0. -1.
         -5    1    3    3    0  502  0.78212318878E+02  0.21478164345E+02 -0.25037791115E+02  0.84987303474E+02  0.41800000000E+01 0. -1.
        -11    1    1    2    0    0 -0.80058937700E+02 -0.78913351575E+02  0.77305346913E+01  0.11267879893E+03  0.00000000000E+00 0.  1.
         11    1    1    2    0    0  0.25935448977E+02 -0.35932456983E+02 -0.22117125206E+01  0.44369816889E+02  0.00000000000E+00 0. -1.
</event>
<event>
 7    1  0.3437276E-009  0.8218044E+02  0.7561462E-02  0.1322975E+00
         -2   -1    0    0    0  501 -0.00000000000E+00  0.00000000000E+00  0.18831651661E+02  0.18831651661E+02  0.00000000000E+00 0.  1.
          2   -1    0    0  501    0  0.00000000000E+00 -0.00000000000E+00 -0.11124461034E+04  0.11124461034E+04  0.00000000000E+00 0. -1.
         25    2    1    2    0    0 -0.72587170484E+02 -0.23220868310E+02 -0.81876579660E+03  0.83176551563E+03  0.12509331428E+03 0.  0.
          5    1    3    3  502    0 -0.77868425865E+01 -0.10618045299E+02 -0.65499794562E+03  0.65514361706E+03  0.41800000000E+01 0.  1.
         -5    1    3    3    0  502 -0.64800327898E+02 -0.12602823012E+02 -0.16376785097E+03  0.17662189857E+03  0.41800000000E+01 0.  1.
        -11    1    1    2    0    0  0.26298733168E+02  0.27330745537E+02 -0.25111351735E+02  0.45488163338E+02  0.00000000000E+00 0.  1.
         11    1    1    2    0    0  0.46288437316E+02 -0.41098772268E+01 -0.24973730340E+03  0.25402407608E+03  0.00000000000E+00 0. -1.
</event>
<event>
 7    1  0.2651429E-009  0.1882652E+03  0.7561462E-02  0.1160035E+00
         -1   -1    0    0    0  501 -0.00000000000E+00  0.00000000000E+00  0.53166333954E+02  0.53166333954E+02  0.00000000000E+00 0.  1.
          1   -1    0    0  501    0  0.00000000000E+00 -0.00000000000E+00 -0.10736303585E+04  0.10736303585E+04  0.00000000000E+00 0. -1.
         25    2    1    2    0    0 -0.35646422253E+02 -0.14983899874E+03 -0.87309297992E+03  0.89535587035E+03  0.12509352512E+03 0.  0.
          5    1    3    3  502    0  0.35840976889E+02 -0.11146916448E+03 -0.52103077073E+03  0.53404165259E+03  0.41800000000E+01 0.  1.
         -5    1    3    3    0  502 -0.71487399141E+02 -0.38369834260E+02 -0.35206220919E+03  0.36131421776E+03  0.41800000000E+01 0.  1.
        -11    1    1    2    0    0 -0.12218663485E+02  0.12228806441E+03 -0.95052202691E+02  0.15536597977E+03  0.00000000000E+00 0.  1.
         11    1    1    2    0    0  0.47865085738E+02  0.27550934332E+02 -0.52318841953E+02  0.76074842350E+02  0.00000000000E+00 0. -1.
</event>
<event>
 7    1  0.2651429E-009  0.1340237E+03  0.7561462E-02  0.1221605E+00
         -1   -1    0    0    0  501 -0.00000000000E+00  0.00000000000E+00  0.56258568424E+02  0.56258568424E+02  0.00000000000E+00 0.  1.
          1   -1    0    0  501    0  0.00000000000E+00 -0.00000000000E+00 -0.41725855992E+03  0.41725855992E+03  0.00000000000E+00 0. -1.
         25    2    1    2    0    0 -0.57652939459E+02  0.59372807542E+02 -0.30412910298E+03  0.33910200287E+03  0.12508663146E+03 0.  0.
          5    1    3    3  502    0 -0.67812136696E+02  0.90696997726E+02 -0.20077749631E+03  0.23055044287E+03  0.41800000000E+01 0.  1.
         -5    1    3    3    0  502  0.10159197237E+02 -0.31324190184E+02 -0.10335160667E+03  0.10855156000E+03  0.41800000000E+01 0.  1.
        -11    1    1    2    0    0  0.16987531464E+02  0.23629372931E+02 -0.17436935150E+02  0.33925951686E+02  0.00000000000E+00 0.  1.
         11    1    1    2    0    0  0.40665407995E+02 -0.83002180474E+02 -0.39433953371E+02  0.10048917379E+03  0.00000000000E+00 0. -1.
</event>
<event>
 7    1  0.2651429E-009  0.9366545E+02  0.7561462E-02  0.1294210E+00
          2   -1    0    0  501    0  0.00000000000E+00  0.00000000000E+00  0.19461475435E+04  0.19461475435E+04  0.00000000000E+00 0. -1.
         -2   -1    0    0    0  501 -0.00000000000E+00 -0.00000000000E+00 -0.94975891724E+01  0.94975891724E+01  0.00000000000E+00 0.  1.
         25    2    1    2    0    0  0.26459243467E+01 -0.20513655008E+00  0.16537373927E+04  0.16584637305E+04  0.12509011997E+03 0.  0.
          5    1    3    3  502    0  0.32595968605E+02  0.36481718821E+02  0.30820764755E+03  0.31209427964E+03  0.41800000000E+01 0.  1.
         -5    1    3    3    0  502 -0.29950044258E+02 -0.36686855371E+02  0.13455297452E+04  0.13463694508E+04  0.41800000000E+01 0.  1.
        -11    1    1    2    0    0  0.30122454608E+02  0.32754425895E+02  0.15075635334E+03  0.15718680848E+03  0.00000000000E+00 0. -1.
         11    1    1    2    0    0 -0.32768378955E+02 -0.32549289345E+02  0.13215620828E+03  0.13999459376E+03  0.00000000000E+00 0.  1.
</event>
<event>
 7    1  0.2651429E-009  0.1041896E+03  0.7561462E-02  0.1271725E+00
          3   -1    0    0  501    0  0.00000000000E+00  0.00000000000E+00  0.22257935447E+02  0.22257935447E+02  0.00000000000E+00 0. -1.
         -3   -1    0    0    0  501 -0.00000000000E+00 -0.00000000000E+00 -0.71105817385E+03  0.71105817385E+03  0.00000000000E+00 0.  1.
         25    2    1    2    0    0 -0.46928769943E+02  0.17019620175E+02 -0.49151866733E+03  0.50963720776E+03  0.12508999271E+03 0.  0.
          5    1    3    3  502    0 -0.14450409968E+02 -0.37156173521E+02 -0.37409784424E+03  0.37623937200E+03  0.41800000000E+01 0. -1.
         -5    1    3    3    0  502 -0.32478359975E+02  0.54175793695E+02 -0.11742082309E+03  0.13339783576E+03  0.41800000000E+01 0. -1.
        -11    1    1    2    0    0  0.13025919580E+02  0.38107395829E+02 -0.85612949466E+02  0.94611972361E+02  0.00000000000E+00 0.  1.
         11    1    1    2    0    0  0.33902850363E+02 -0.55127016003E+02 -0.11166862161E+03  0.12906692918E+03  0.00000000000E+00 0. -1.
</event>
<event>
 7    1  0.2651429E-009  0.1003238E+03  0.7561462E-02  0.1279616E+00
          2   -1    0    0  501    0  0.00000000000E+00  0.00000000000E+00  0.79556954262E+02  0.79556954262E+02  0.00000000000E+00 0. -1.
         -2   -1    0    0    0  501 -0.00000000000E+00 -0.00000000000E+00 -0.22939451162E+03  0.22939451162E+03  0.00000000000E+00 0.  1.
         25    2    1    2    0    0 -0.79388466147E+02  0.66941985268E+01 -0.74307072003E+02  0.16588122296E+03  0.12509076037E+03 0.  0.
          5    1    3    3  502    0  0.38889415293E+01  0.36321160207E+01  0.30883681505E+02  0.31616298270E+02  0.41800000000E+01 0.  1.
         -5    1    3    3    0  502 -0.83277407677E+02  0.30620825060E+01 -0.10519075351E+03  0.13426492469E+03  0.41800000000E+01 0.  1.
        -11    1    1    2    0    0  0.80558124294E+02  0.20578286517E+02 -0.27052725938E+02  0.87435274612E+02  0.00000000000E+00 0. -1.
         11    1    1    2    0    0 -0.11696581472E+01 -0.27272485044E+02 -0.48477759417E+02  0.55634968309E+02  0.00000000000E+00 0.  1.
</event>
<event>
 7    1  0.2651429E-009  0.1048252E+03  0.7561462E-02  0.1270464E+00
         -3   -1    0    0    0  501 -0.00000000000E+00  0.00000000000E+00  0.25605075749E+03  0.25605075749E+03  0.00000000000E+00 0.  1.
          3   -1    0    0  501    0  0.00000000000E+00 -0.00000000000E+00 -0.55945094826E+02  0.55945094826E+02  0.00000000000E+00 0. -1.
         25    2    1    2    0    0  0.41362232143E+02  0.27386978094E+02  0.13075842576E+03  0.18762910118E+03  0.12508410324E+03 0.  0.
          5    1    3    3  502    0 -0.19075806686E+02 -0.21344160706E+02  0.99858290536E+02  0.10396446598E+03  0.41800000000E+01 0. -1.
         -5    1    3    3    0  502  0.60438038829E+02  0.48731138801E+02  0.30900135224E+02  0.83664635200E+02  0.41800000000E+01 0. -1.
        -11    1    1    2    0    0 -0.70270358377E+02 -0.21319548788E+02  0.53420128170E+02  0.90808350501E+02  0.00000000000E+00 0. -1.
         11    1    1    2    0    0  0.28908126234E+02 -0.60674293062E+01  0.15927108731E+02  0.33558400636E+02  0.00000000000E+00 0.  1.
</event>
<event>
 7    1  0.2651429E-009  0.1175367E+03  0.7561462E-02  0.1247217E+00
         -1   -1    0    0    0  501 -0.00000000000E+00  0.00000000000E+00  0.75566089477E+02  0.75566089477E+02  0.00000000000E+00 0.  1.
          1   -1    0    0  501    0  0.00000000000E+00 -0.00000000000E+00 -0.32100119226E+03  0.32100119226E+03  0.00000000000E+00 0. -1.
         25    2    1    2    0    0 -0.70406874442E+02 -0.75049583607E+02 -0.84325193987E+02  0.18262552259E+03  0.12510705492E+03 0.  0.
          5    1    3    3  502    0 -0.39647044929E+01  0.14550384571E+02 -0.68042534354E+02  0.69818990642E+02  0.41800000000E+01 0. -1.
         -5    1    3    3    0  502 -0.66442169949E+02 -0.89599968178E+02 -0.16282659633E+02  0.11280653195E+03  0.41800000000E+01 0. -1.
        -11    1    1    2    0    0  0.30728890921E+02  0.11361488168E+02 -0.12764227335E+03  0.13177973326E+03  0.00000000000E+00 0. -1.
         11    1    1    2    0    0  0.39677983520E+02  0.63688095440E+02 -0.33467635447E+02  0.82162025896E+02  0.00000000000E+00 0.  1.
</event>
<event>
 7    1  0.2651429E-009  0.8438678E+02  0.7561462E-02  0.1317044E+00
          1   -1    0    0  501    0  0.00000000000E+00  0.00000000000E+00  0.50112278961E+02  0.50112278961E+02  0.00000000000E+00 0. -1.
         -1   -1    0    0    0  501 -0.00000000000E+00 -0.00000000000E+00 -0.31572839919E+03  0.31572839919E+03  0.00000000000E+00 0.  1.
         25    2    1    2    0    0 -0.28967765470E+02 -0.20337969392E+02 -0.70562504189E+02  0.14791855445E+03  0.12509223525E+03 0.  0.
          5    1    3    3  502    0 -0.17668793290E+02  0.38284439549E+02  0.13730163638E+02  0.44540704546E+02  0.41800000000E+01 0.  1.
         -5    1    3    3    0  502 -0.11298972180E+02 -0.58622408941E+02 -0.84292667827E+02  0.10337784991E+03  0.41800000000E+01 0.  1.
        -11    1    1    2    0    0  0.96754585570E+01  0.38717755703E+02 -0.18529720853E+03  0.18954612788E+03  0.00000000000E+00 0.  1.
         11    1    1    2    0    0  0.19292306913E+02 -0.18379786312E+02 -0.97564075055E+01  0.28375995812E+02  0.00000000000E+00 0. -1.
</event>
<event>
 7    1  0.2651429E-009  0.8751463E+02  0.7561462E-02  0.1308984E+00
          2   -1    0    0  501    0  0.00000000000E+00  0.00000000000E+00  0.24390466943E+03  0.24390466943E+03  0.00000000000E+00 0. -1.
         -2   -1    0    0    0  501 -0.00000000000E+00 -0.00000000000E+00 -0.64564307090E+02  0.64564307090E+02  0.00000000000E+00 0.  1.
         25    2    1    2    0    0  0.44089769486E+02  0.46493505490E+02  0.11135408094E+03  0.17933852187E+03  0.12512801547E+03 0.  0.
          5    1    3    3  502    0  0.34026710162E+02  0.52107573833E+02 -0.47824814596E+01  0.62556860408E+02  0.41800000000E+01 0.  1.
         -5    1    3    3    0  502  0.10063059324E+02 -0.56140683429E+01  0.11613656240E+03  0.11678166146E+03  0.41800000000E+01 0.  1.
        -11    1    1    2    0    0  0.21928100506E+02 -0.18501310001E+02 -0.22208760564E+01  0.28776246350E+02  0.00000000000E+00 0.  1.
         11    1    1    2    0    0 -0.66017869992E+02 -0.27992195489E+02  0.70207157456E+02  0.10035420831E+03  0.00000000000E+00 0. -1.
</event>
<event>
 7    1  0.2651429E-009  0.9558839E+02  0.7561462E-02  0.1289856E+00
         -2   -1    0    0    0  501 -0.00000000000E+00  0.00000000000E+00  0.72409436045E+02  0.72409436045E+02  0.00000000000E+00 0. -1.
          2   -1    0    0  501    0  0.00000000000E+00 -0.00000000000E+00 -0.30866994457E+03  0.30866994457E+03  0.00000000000E+00 0.  1.
         25    2    1    2    0    0 -0.81832174683E+02 -0.19541655126E+02 -0.18902076840E+03  0.24177393725E+03  0.12508958689E+03 0.  0.
          5    1    3    3  502    0 -0.53490961012E+02 -0.38461120032E+02 -0.19593154298E+03  0.20675391798E+03  0.41800000000E+01 0. -1.
         -5    1    3    3    0  502 -0.28341213671E+02  0.18919464906E+02  0.69107745788E+01  0.35020019274E+02  0.41800000000E+01 0. -1.
        -11    1    1    2    0    0  0.90972031126E+01 -0.89050900177E+01 -0.58970982339E+02  0.60329399887E+02  0.00000000000E+00 0.  1.
         11    1    1    2    0    0  0.72734971570E+02  0.28446745144E+02  0.11731242219E+02  0.78976043473E+02  0.00000000000E+00 0. -1.
</event>
<event>
 7    1  0.2651429E-009  0.2086291E+03  0.7561462E-02  0.1142656E+00
          3   -1    0    0  501    0  0.00000000000E+00  0.00000000000E+00  0.91470360506E+02  0.91470360506E+02  0.00000000000E+00 0. -1.
         -3   -1    0    0    0  501 -0.00000000000E+00 -0.00000000000E+00 -0.52121484718E+03  0.52121484718E+03  0.00000000000E+00 0.  1.
         25    2    1    2    0    0 -0.10552948563E+03 -0.15568240765E+03 -0.24790582235E+03  0.33537740404E+03  0.12508885641E+03 0.  0.
          5    1    3    3  502    0 -0.12631815467E+03 -0.15811237455E+03 -0.23607677417E+03  0.31097510333E+03  0.41800000000E+01 0.  1.
         -5    1    3    3    0  502  0.20788669040E+02  0.24299668960E+01 -0.11829048178E+02  0.24402300718E+02  0.41800000000E+01 0.  1.
        -11    1    1    2    0    0  0.95010133886E+02  0.10446037441E+03 -0.78663110436E+02  0.16163780593E+03  0.00000000000E+00 0. -1.
         11    1    1    2    0    0  0.10519351744E+02  0.51222033246E+02 -0.10317555388E+03  0.11566999771E+03  0.00000000000E+00 0.  1.
</event>
<event>
 7    1  0.2651429E-009  0.1109984E+03  0.7561462E-02  0.1258732E+00
         -2   -1    0    0    0  501 -0.00000000000E+00  0.00000000000E+00  0.16737515826E+03  0.16737515826E+03  0.00000000000E+00 0.  1.
          2   -1    0    0  501    0  0.00000000000E+00 -0.00000000000E+00 -0.89354975838E+02  0.89354975838E+02  0.00000000000E+00 0. -1.
         25    2    1    2    0    0 -0.20103403238E+02 -0.19593310728E+02 -0.51185794635E+01  0.12830388478E+03  0.12509053660E+03 0.  0.
          5    1    3    3  502    0  0.19040304023E+02 -0.64711452060E+02 -0.95830899994E+01  0.68259894660E+02  0.41800000000E+01 0.  1.
         -5    1    3    3    0  502 -0.39143707261E+02  0.45118141333E+02  0.44645105359E+01  0.60043990122E+02  0.41800000000E+01 0.  1.
        -11    1    1    2    0    0  0.42308890826E+02  0.44339733148E+02  0.69023569227E+02  0.92305510601E+02  0.00000000000E+00 0.  1.
         11    1    1    2    0    0 -0.22205487588E+02 -0.24746422421E+02  0.14115192662E+02  0.36120738718E+02  0.00000000000E+00 0. -1.
</event>
<event>
 7    1  0.2651429E-009  0.1049917E+03  0.7561462E-02  0.1270136E+00
         -3   -1    0    0    0  501 -0.00000000000E+00  0.00000000000E+00  0.21942970693E+03  0.21942970693E+03  0.00000000000E+00 0.  1.
          3   -1    0    0  501    0  0.00000000000E+00 -0.00000000000E+00 -0.61497360161E+02  0.61497360161E+02  0.00000000000E+00 0. -1.
         25    2    1    2    0    0 -0.35844144921E+02  0.28902145197E+01  0.12464505249E+03  0.18019454816E+03  0.12506210463E+03 0.  0.
          5    1    3    3  502    0 -0.81108850779E+02  0.15885912909E+02  0.82620983231E+02  0.11693890359E+03  0.41800000000E+01 0. -1.
         -5    1    3    3    0  502  0.45264705859E+02 -0.12995698389E+02  0.42024069257E+02  0.63255644571E+02  0.41800000000E+01 0. -1.
        -11    1    1    2    0    0  0.42972332959E+02 -0.29681124121E+02 -0.60845440166E+01  0.52579579733E+02  0.00000000000E+00 0. -1.
         11    1    1    2    0    0 -0.71281880385E+01  0.26790909601E+02  0.39371838298E+02  0.48152939193E+02  0.00000000000E+00 0.  1.
</event>
<event>
 7    1  0.3644120E-009  0.1741898E+03  0.7561462E-02  0.1173548E+00
          1   -1    0    0  501    0  0.00000000000E+00  0.00000000000E+00  0.10278539946E+04  0.10278539946E+04  0.00000000000E+00 0. -1.
         -1   -1    0    0    0  501 -0.00000000000E+00 -0.00000000000E+00 -0.37201035640E+02  0.37201035640E+02  0.00000000000E+00 0.  1.
         25    2    1    2    0    0 -0.11077057587E+03 -0.11864548411E+03  0.53577885723E+03  0.57362905173E+03  0.12507771087E+03 0.  0.
          5    1    3    3  502    0 -0.98228093262E+02 -0.45097529194E+02  0.17928563862E+03  0.20938805616E+03  0.41800000000E+01 0. -1.
         -5    1    3    3    0  502 -0.12542482607E+02 -0.73547954914E+02  0.35649321861E+03  0.36424099557E+03  0.41800000000E+01 0. -1.
        -11    1    1    2    0    0  0.80396183580E+02  0.63189669044E+02  0.16027022222E+03  0.19011318928E+03  0.00000000000E+00 0.  1.
         11    1    1    2    0    0  0.30374392289E+02  0.55455815064E+02  0.29460387949E+03  0.30131278921E+03  0.00000000000E+00 0. -1.
</event>
<event>
 7    1  0.2651429E-009  0.1614583E+03  0.7561462E-02  0.1187060E+00
         -2   -1    0    0    0  501 -0.00000000000E+00  0.00000000000E+00  0.10924375202E+03  0.10924375202E+03  0.00000000000E+00 0.  1.
          2   -1    0    0  501    0  0.00000000000E+00 -0.00000000000E+00 -0.31429439273E+03  0.31429439273E+03  0.00000000000E+00 0. -1.
         25    2    1    2    0    0 -0.11828590669E+03 -0.73307227885E+02 -0.42630274408E+02  0.19191462986E+03  0.12509348296E+03 0.  0.
          5    1    3    3  502    0 -0.71396050412E+02  0.23437608473E+02  0.23565518915E+01  0.75297697456E+02  0.41800000000E+01 0.  1.
         -5    1    3    3    0  502 -0.46889856277E+02 -0.96744836358E+02 -0.44986826299E+02  0.11661693241E+03  0.41800000000E+01 0.  1.
        -11    1    1    2    0    0  0.17407851340E+02  0.17916098962E+02  0.77820324576E+01  0.26164478200E+02  0.00000000000E+00 0.  1.
         11    1    1    2    0    0  0.10087805535E+03  0.55391128924E+02 -0.17020239876E+03  0.20545903669E+03  0.00000000000E+00 0. -1.
</event>
<event>
 7    1  0.2651429E-009  0.1303574E+03  0.7561462E-02  0.1226926E+00
          2   -1    0    0  501    0  0.00000000000E+00  0.00000000000E+00  0.31247110590E+03  0.31247110590E+03  0.00000000000E+00 0. -1.
         -2   -1    0    0    0  501 -0.00000000000E+00 -0.00000000000E+00 -0.68836795033E+02  0.68836795033E+02  0.00000000000E+00 0.  1.
         25    2    1    2    0    0 -0.38144749794E+02 -0.90086023626E+02  0.11820796943E+03  0.19795423760E+03  0.12506895121E+03 0.  0.
          5    1    3    3  502    0 -0.77993353127E+02 -0.56065378167E+02  0.40928576396E+02  0.10449359084E+03  0.41800000000E+01 0. -1.
         -5    1    3    3    0  502  0.39848603333E+02 -0.34020645459E+02  0.77279393030E+02  0.93460646756E+02  0.41800000000E+01 0. -1.
        -11    1    1    2    0    0  0.48164307535E+02  0.45317956205E+02  0.21150309148E+02  0.69432364586E+02  0.00000000000E+00 0. -1.
         11    1    1    2    0    0 -0.10019557741E+02  0.44768067421E+02  0.10427603229E+03  0.11392129875E+03  0.00000000000E+00 0.  1.
</event>
<event>
 7    1  0.2651429E-009  0.1465702E+03  0.7561462E-02  0.1204752E+00
          1   -1    0    0  501    0  0.00000000000E+00  0.00000000000E+00  0.23814197016E+02  0.23814197016E+02  0.00000000000E+00 0. -1.
         -1   -1    0    0    0  501 -0.00000000000E+00 -0.00000000000E+00 -0.11650388288E+04  0.11650388288E+04  0.00000000000E+00 0.  1.
         25    2    1    2    0    0  0.39790188702E+02 -0.11120112285E+03 -0.45819567625E+03  0.48942803370E+03  0.12509026181E+03 0.  0.
          5    1    3    3  502    0 -0.35996403752E+02 -0.39482843335E+02 -0.25935994251E+03  0.26483898539E+03  0.41800000000E+01 0. -1.
         -5    1    3    3    0  502  0.75786592454E+02 -0.71718279519E+02 -0.19883573373E+03  0.22458904831E+03  0.41800000000E+01 0. -1.
        -11    1    1    2    0    0 -0.23727360070E+02  0.99015372072E+00 -0.37704621523E+02  0.44560144799E+02  0.00000000000E+00 0. -1.
         11    1    1    2    0    0 -0.16062828632E+02  0.11021096913E+03 -0.64532433406E+03  0.65486484737E+03  0.00000000000E+00 0.  1.
</event>
<event>
 7    1  0.2651429E-009  0.1018024E+03  0.7561462E-02  0.1276551E+00
          2   -1    0    0  501    0  0.00000000000E+00  0.00000000000E+00  0.34783574019E+03  0.34783574019E+03  0.00000000000E+00 0. -1.
         -2   -1    0    0    0  501 -0.00000000000E+00 -0.00000000000E+00 -0.52430983944E+02  0.52430983944E+02  0.00000000000E+00 0.  1.
         25    2    1    2    0    0 -0.48816566822E+01  0.78354619841E+02  0.13620842677E+03  0.20090493972E+03  0.12508709868E+03 0.  0.
          5    1    3    3  502    0  0.36685136136E+01  0.97394994704E+00  0.12141978136E+03  0.12155098633E+03  0.41800000000E+01 0. -1.
         -5    1    3    3    0  502 -0.85501702958E+01  0.77380669894E+02  0.14788645410E+02  0.79353953389E+02  0.41800000000E+01 0. -1.
        -11    1    1    2    0    0  0.35772650228E+02 -0.81439903090E+02  0.11923537091E+03  0.14875891232E+03  0.00000000000E+00 0. -1.
         11    1    1    2    0    0 -0.30890993546E+02  0.30852832483E+01  0.39960958561E+02  0.50602872093E+02  0.00000000000E+00 0.  1.
</event>
<event>
 7    1  0.2651429E-009  0.2023891E+03  0.7561462E-02  0.1147739E+00
          1   -1    0    0  501    0  0.00000000000E+00  0.00000000000E+00  0.98339340273E+02  0.98339340273E+02  0.00000000000E+00 0. -1.
         -1   -1    0    0    0  501 -0.00000000000E+00 -0.00000000000E+00 -0.42790587584E+03  0.42790587584E+03  0.00000000000E+00 0.  1.
         25    2    1    2    0    0 -0.17897502326E+03 -0.22419711061E+02 -0.17747038019E+03  0.28227356144E+03  0.12509166737E+03 0.  0.
          5    1    3    3  502    0 -0.10525046580E+03 -0.74091949853E+02 -0.94079209938E+02  0.15948557216E+03  0.41800000000E+01 0.  1.
         -5    1    3    3    0  502 -0.73724557464E+02  0.51672238792E+02 -0.83391170256E+02  0.12278798928E+03  0.41800000000E+01 0.  1.
        -11    1    1    2    0    0  0.87084341386E+02  0.33516473238E+02 -0.48900310436E+02  0.10534835952E+03  0.00000000000E+00 0. -1.
         11    1    1    2    0    0  0.91890681877E+02 -0.11096762177E+02 -0.10319584493E+03  0.13862329515E+03  0.00000000000E+00 0.  1.
</event>
<event>
 7    1  0.2651429E-009  0.2491362E+03  0.7561462E-02  0.1113852E+00
         -1   -1    0    0    0  501 -0.00000000000E+00  0.00000000000E+00  0.73159622449E+02  0.73159622449E+02  0.00000000000E+00 0.  1.
          1   -1    0    0  501    0  0.00000000000E+00 -0.00000000000E+00 -0.91210485475E+03  0.91210485475E+03  0.00000000000E+00 0. -1.
         25    2    1    2    0    0 -0.86888280507E+02 -0.20857817847E+03 -0.55134813012E+03  0.60884344411E+03  0.12510455235E+03 0.  0.
          5    1    3    3  502    0 -0.11361804145E+03 -0.13004944787E+03 -0.33105457198E+03  0.37341199802E+03  0.41800000000E+01 0.  1.
         -5    1    3    3    0  502  0.26729760940E+02 -0.78528730600E+02 -0.22029355814E+03  0.23543144609E+03  0.41800000000E+01 0.  1.
        -11    1    1    2    0    0  0.30921809102E+02  0.17391321125E+03 -0.21874628372E+03  0.28116169719E+03  0.00000000000E+00 0.  1.
         11    1    1    2    0    0  0.55966471405E+02  0.34664967216E+02 -0.68850818460E+02  0.95259335901E+02  0.00000000000E+00 0. -1.
</event>
<event>
 7    1  0.2651429E-009  0.1161668E+03  0.7561462E-02  0.1249558E+00
          1   -1    0    0  501    0  0.00000000000E+00  0.00000000000E+00  0.67175798149E+02  0.67175798149E+02  0.00000000000E+00 0. -1.
         -1   -1    0    0    0  501 -0.00000000000E+00 -0.00000000000E+00 -0.27687880431E+03  0.27687880431E+03  0.00000000000E+00 0.  1.
         25    2    1    2    0    0  0.60651323554E+02 -0.56309256154E+02 -0.11087340121E+03  0.18651953250E+03  0.12508920629E+03 0.  0.
          5    1    3    3  502    0  0.74462281002E+02 -0.31319355377E+02 -0.12912963068E+03  0.15237279033E+03  0.41800000000E+01 0.  1.
         -5    1    3    3    0  502 -0.13810957448E+02 -0.24989900776E+02  0.18256229467E+02  0.34146742169E+02  0.41800000000E+01 0.  1.
        -11    1    1    2    0    0  0.24040695298E+02  0.97579289448E+01 -0.23430692322E+02  0.34959541622E+02  0.00000000000E+00 0. -1.
         11    1    1    2    0    0 -0.84692018852E+02  0.46551327209E+02 -0.75398912626E+02  0.12257552834E+03  0.00000000000E+00 0.  1.
</event>
<event>
 7    1  0.2651429E-009  0.9054881E+02  0.7561462E-02  0.1301528E+00
          1   -1    0    0  501    0  0.00000000000E+00  0.00000000000E+00  0.27210311212E+03  0.27210311212E+03  0.00000000000E+00 0. -1.
         -1   -1    0    0    0  501 -0.00000000000E+00 -0.00000000000E+00 -0.48604985967E+02  0.48604985967E+02  0.00000000000E+00 0.  1.
         25    2    1    2    0    0  0.12657187724E+02  0.26992341573E+02  0.15985737088E+03  0.20516395917E+03  0.12509628377E+03 0.  0.
          5    1    3    3  502    0  0.41683565315E+02  0.37627954130E+02  0.16826204355E+02  0.58770537707E+02  0.41800000000E+01 0.  1.
         -5    1    3    3    0  502 -0.29026377591E+02 -0.10635612557E+02  0.14303116653E+03  0.14639342147E+03  0.41800000000E+01 0.  1.
        -11    1    1    2    0    0 -0.38534898969E+02  0.17342766169E+02  0.15044882672E+02  0.44855974759E+02  0.00000000000E+00 0.  1.
         11    1    1    2    0    0  0.25877711246E+02 -0.44335107742E+02  0.48595872600E+02  0.70688164155E+02  0.00000000000E+00 0. -1.
</event>
<event>
 7    1  0.2651429E-009  0.7979098E+02  0.7561462E-02  0.1329646E+00
          1   -1    0    0  501    0  0.00000000000E+00  0.00000000000E+00  0.16733631786E+03  0.16733631786E+03  0.00000000000E+00 0. -1.
         -1   -1    0    0    0  501 -0.00000000000E+00 -0.00000000000E+00 -0.78723804679E+02  0.78723804679E+02  0.00000000000E+00 0.  1.
         25    2    1    2    0    0  0.33675855297E+02 -0.14014741692E+02  0.36063779051E+02  0.13518907578E+03  0.12508002973E+03 0.  0.
          5    1    3    3  502    0 -0.72433320351E+01 -0.53129719768E+02 -0.18084093055E+02  0.56742751107E+02  0.41800000000E+01 0. -1.
         -5    1    3    3    0  502  0.40919187332E+02  0.39114978076E+02  0.54147872106E+02  0.78446324678E+02  0.41800000000E+01 0. -1.
        -11    1    1    2    0    0 -0.22267454270E+02 -0.84696370439E+01 -0.21843683259E+02  0.32322140548E+02  0.00000000000E+00 0.  1.
         11    1    1    2    0    0 -0.11408401027E+02  0.22484378736E+02  0.74392417385E+02  0.78548906202E+02  0.00000000000E+00 0. -1.
</event>
<event>
 7    1  0.2651429E-009  0.1381732E+03  0.7561462E-02  0.1215808E+00
          2   -1    0    0  501    0  0.00000000000E+00  0.00000000000E+00  0.17570276602E+03  0.17570276602E+03  0.00000000000E+00 0. -1.
         -2   -1    0    0    0  501 -0.00000000000E+00 -0.00000000000E+00 -0.16804483231E+03  0.16804483231E+03  0.00000000000E+00 0.  1.
         25    2    1    2    0    0  0.10660813312E+03 -0.33524745953E+02  0.76838971739E+02  0.18450269313E+03  0.12509122093E+03 0.  0.
          5    1    3    3  502    0 -0.13127138342E+02  0.19086834192E+02  0.43516928792E+02  0.49475493853E+02  0.41800000000E+01 0. -1.
         -5    1    3    3    0  502  0.11973527147E+03 -0.52611580145E+02  0.33322042947E+02  0.13502719928E+03  0.41800000000E+01 0. -1.
        -11    1    1    2    0    0 -0.73890784370E+01 -0.10962320364E+02 -0.46269784916E+02  0.48121346033E+02  0.00000000000E+00 0.  1.
         11    1    1    2    0    0 -0.99219054686E+02  0.44487066318E+02 -0.22911253113E+02  0.11112355917E+03  0.00000000000E+00 0. -1.
</event>
<event>
 7    1  0.2651429E-009  0.1208095E+03  0.7561462E-02  0.1241768E+00
          2   -1    0    0  501    0  0.00000000000E+00  0.00000000000E+00  0.26543229158E+03  0.26543229158E+03  0.00000000000E+00 0. -1.
         -2   -1    0    0    0  501 -0.00000000000E+00 -0.00000000000E+00 -0.67711518486E+02  0.67711518486E+02  0.00000000000E+00 0.  1.
         25    2    1    2    0    0 -0.63220351113E+02 -0.11678476325E+02  0.46346173270E+02  0.14808500899E+03  0.12509197618E+03 0.  0.
          5    1    3    3  502    0 -0.59106528309E+02  0.48167132896E+02  0.80304155835E+01  0.76782904052E+02  0.41800000000E+01 0.  1.
         -5    1    3    3    0  502 -0.41138228039E+01 -0.59845609221E+02  0.38315757687E+02  0.71302104935E+02  0.41800000000E+01 0.  1.
        -11    1    1    2    0    0  0.89667396831E+01  0.42018060865E+02  0.47871065487E+02  0.64323858484E+02  0.00000000000E+00 0.  1.
         11    1    1    2    0    0  0.54253611429E+02 -0.30339584540E+02  0.10350353433E+03  0.12073494259E+03  0.00000000000E+00 0. -1.
</event>
<event>
 7    1  0.2651429E-009  0.1098056E+03  0.7561462E-02  0.1260930E+00
          2   -1    0    0  501    0  0.00000000000E+00  0.00000000000E+00  0.71602626936E+02  0.71602626936E+02  0.00000000000E+00 0. -1.
         -2   -1    0    0    0  501 -0.00000000000E+00 -0.00000000000E+00 -0.19735792104E+03  0.19735792104E+03  0.00000000000E+00 0.  1.
         25    2    1    2    0    0 -0.33612460662E+02 -0.24950513763E+02 -0.41872049095E+02  0.13839435677E+03  0.12508958327E+03 0.  0.
          5    1    3    3  502    0  0.29600425257E+02 -0.46810061621E+02 -0.44735508303E+02  0.71316934507E+02  0.41800000000E+01 0.  1.
         -5    1    3    3    0  502 -0.63212885919E+02  0.21859547858E+02  0.28634592077E+01  0.67077422263E+02  0.41800000000E+01 0.  1.
        -11    1    1    2    0    0  0.54012929413E+02  0.43599182609E+02 -0.73349461027E+02  0.10098726999E+03  0.00000000000E+00 0.  1.
         11    1    1    2    0    0 -0.20400468751E+02 -0.18648668846E+02 -0.10533783978E+02  0.29578921209E+02  0.00000000000E+00 0. -1.
</event>
<event>
 7    1  0.2651429E-009  0.9526380E+02  0.7561462E-02  0.1290583E+00
         -2   -1    0    0    0  501 -0.00000000000E+00  0.00000000000E+00  0.50773906904E+02  0.50773906904E+02  0.00000000000E+00 0.  1.
          2   -1    0    0  501    0  0.00000000000E+00 -0.00000000000E+00 -0.32442886870E+03  0.32442886870E+03  0.00000000000E+00 0. -1.
         25    2    1    2    0    0  0.27532258356E+02 -0.53827501292E+02 -0.20107084861E+03  0.24440144144E+03  0.12508858170E+03 0.  0.
          5    1    3    3  502    0  0.60952647322E+02 -0.20511581589E+02 -0.38505726880E+02  0.75074054090E+02  0.41800000000E+01 0.  1.
         -5    1    3    3    0  502 -0.33420388966E+02 -0.33315919703E+02 -0.16256512173E+03  0.16932738735E+03  0.41800000000E+01 0.  1.
        -11    1    1    2    0    0 -0.21740383079E+02 -0.26777881905E+01  0.14901979163E+02  0.26493089457E+02  0.00000000000E+00 0.  1.
         11    1    1    2    0    0 -0.57918752777E+01  0.56505289483E+02 -0.87486092350E+02  0.10430824471E+03  0.00000000000E+00 0. -1.
</event>
<event>
 7    1  0.2651429E-009  0.1483681E+03  0.7561462E-02  0.1202493E+00
         -2   -1    0    0    0  501 -0.00000000000E+00  0.00000000000E+00  0.25187594998E+03  0.25187594998E+03  0.00000000000E+00 0.  1.
          2   -1    0    0  501    0  0.00000000000E+00 -0.00000000000E+00 -0.12471177283E+03  0.12471177283E+03  0.00000000000E+00 0. -1.
         25    2    1    2    0    0 -0.21073736204E+02 -0.12813074960E+03  0.13760174407E+02  0.18082680183E+03  0.12508956195E+03 0.  0.
          5    1    3    3  502    0  0.14092465001E+02 -0.56311330728E+02  0.63835281386E+02  0.86382747628E+02  0.41800000000E+01 0.  1.
         -5    1    3    3    0  502 -0.35166201205E+02 -0.71819418877E+02 -0.50075106979E+02  0.94444054201E+02  0.41800000000E+01 0.  1.
        -11    1    1    2    0    0 -0.34512486181E+02  0.69920375534E+02  0.67317187902E+02  0.10301249635E+03  0.00000000000E+00 0. -1.
         11    1    1    2    0    0  0.55586222385E+02  0.58210374071E+02  0.46086814840E+02  0.92748424626E+02  0.00000000000E+00 0.  1.
</event>
<event>
 7    1  0.2651429E-009  0.2072475E+03  0.7561462E-02  0.1143764E+00
          1   -1    0    0  501    0  0.00000000000E+00  0.00000000000E+00  0.19227313754E+02  0.19227313754E+02  0.00000000000E+00 0. -1.
         -1   -1    0    0    0  501 -0.00000000000E+00 -0.00000000000E+00 -0.22794362151E+04  0.22794362151E+04  0.00000000000E+00 0.  1.
         25    2    1    2    0    0 -0.16384503774E+03  0.69670570191E+02 -0.11049825441E+04  0.11262041072E+04  0.12510029390E+03 0.  0.
          5    1    3    3  502    0 -0.52002095903E+02  0.88652319126E+02 -0.46621156460E+03  0.47742449354E+03  0.41800000000E+01 0. -1.
         -5    1    3    3    0  502 -0.11184294184E+03 -0.18981748935E+02 -0.63877097952E+03  0.64877961367E+03  0.41800000000E+01 0. -1.
        -11    1    1    2    0    0  0.17287761307E+03 -0.55989490099E+02 -0.10978257159E+04  0.11127635843E+04  0.00000000000E+00 0.  1.
         11    1    1    2    0    0 -0.90325753299E+01 -0.13681080092E+02 -0.57400641333E+02  0.59695837334E+02  0.00000000000E+00 0. -1.
</event>
<event>
 7    1  0.2651429E-009  0.1131501E+03  0.7561462E-02  0.1254845E+00
          3   -1    0    0  501    0  0.00000000000E+00  0.00000000000E+00  0.16848536124E+02  0.16848536124E+02  0.00000000000E+00 0. -1.
         -3   -1    0    0    0  501 -0.00000000000E+00 -0.00000000000E+00 -0.81094007539E+03  0.81094007539E+03  0.00000000000E+00 0.  1.
         25    2    1    2    0    0  0.10229207586E+02 -0.30119164106E+02 -0.53636607637E+03  0.55167734128E+03  0.12509004861E+03 0.  0.
          5    1    3    3  502    0  0.15798497979E+02  0.47018766656E+02 -0.16615279011E+03  0.17344906750E+03  0.41800000000E+01 0.  1.
         -5    1    3    3    0  502 -0.55692903930E+01 -0.77137930762E+02 -0.37021328626E+03  0.37822827378E+03  0.41800000000E+01 0.  1.
        -11    1    1    2    0    0  0.35441943711E+02  0.38833806465E+02 -0.13682627027E+03  0.14657975350E+03  0.00000000000E+00 0.  1.
         11    1    1    2    0    0 -0.45671151297E+02 -0.87146423583E+01 -0.12089919262E+03  0.12953151674E+03  0.00000000000E+00 0. -1.
</event>
<event>
 7    1  0.2651429E-009  0.1495116E+03  0.7561462E-02  0.1201074E+00
          1   -1    0    0  501    0  0.00000000000E+00  0.00000000000E+00  0.12696690067E+04  0.12696690067E+04  0.00000000000E+00 0. -1.
         -1   -1    0    0    0  501 -0.00000000000E+00 -0.00000000000E+00 -0.22779452916E+02  0.22779452916E+02  0.00000000000E+00 0.  1.
         25    2    1    2    0    0 -0.12063195205E+03  0.37575573916E+02  0.81820624424E+03  0.83729855281E+03  0.12507364555E+03 0.  0.
          5    1    3    3  502    0 -0.43646052502E+02  0.66980612082E+02  0.57335387735E+03  0.57891581544E+03  0.41800000000E+01 0.  1.
         -5    1    3    3    0  502 -0.76985899548E+02 -0.29405038167E+02  0.24485236689E+03  0.25838273737E+03  0.41800000000E+01 0.  1.
        -11    1    1    2    0    0  0.65570437445E+02 -0.46885452393E+02  0.14386392963E+03  0.16490772620E+03  0.00000000000E+00 0.  1.
         11    1    1    2    0    0  0.55061514605E+02  0.93098784777E+01  0.28481937995E+03  0.29024218064E+03  0.00000000000E+00 0. -1.
</event>
<event>
 7    1  0.2651429E-009  0.2290061E+03  0.7561462E-02  0.1127341E+00
          2   -1    0    0  501    0  0.00000000000E+00  0.00000000000E+00  0.54464329602E+03  0.54464329602E+03  0.00000000000E+00 0. -1.
         -2   -1    0    0    0  501 -0.00000000000E+00 -0.00000000000E+00 -0.11090337670E+03  0.11090337670E+03  0.00000000000E+00 0.  1.
         25    2    1    2    0    0 -0.12683377921E+03  0.17939519444E+03  0.20269692410E+03  0.32404350809E+03  0.12509479910E+03 0.  0.
          5    1    3    3  502    0 -0.13671765416E+03  0.14364831430E+03  0.11631110784E+03  0.22993977770E+03  0.41800000000E+01 0. -1.
         -5    1    3    3    0  502  0.98838749491E+01  0.35746880134E+02  0.86385816258E+02  0.94103730393E+02  0.41800000000E+01 0. -1.
        -11    1    1    2    0    0  0.68384715954E+01 -0.29731173146E+02 -0.88890219073E+00  0.30520443928E+02  0.00000000000E+00 0.  1.
         11    1    1    2    0    0  0.11999530762E+03 -0.14966402129E+03  0.23193189742E+03  0.30098272070E+03  0.00000000000E+00 0. -1.
</event>
<event>
 7    1  0.2651429E-009  0.1172414E+03  0.7561462E-02  0.1247718E+00
         -2   -1    0    0    0  501 -0.00000000000E+00  0.00000000000E+00  0.28785100796E+02  0.28785100796E+02  0.00000000000E+00 0. -1.
          2   -1    0    0  501    0  0.00000000000E+00 -0.00000000000E+00 -0.67694796780E+03  0.67694796780E+03  0.00000000000E+00 0.  1.
         25    2    1    2    0    0  0.37105528943E+02 -0.37388590890E+02 -0.50916577129E+03  0.52694546420E+03  0.12508801932E+03 0.  0.
          5    1    3    3  502    0 -0.30365683728E+02  0.19441220060E+02 -0.26145207121E+03  0.26395964413E+03  0.41800000000E+01 0. -1.
         -5    1    3    3    0  502  0.67471212671E+02 -0.56829810950E+02 -0.24771370008E+03  0.26298582007E+03  0.41800000000E+01 0. -1.
        -11    1    1    2    0    0 -0.27826865589E+02  0.70336658637E+02 -0.11220147283E+03  0.13531722175E+03  0.00000000000E+00 0.  1.
         11    1    1    2    0    0 -0.92786633542E+01 -0.32948067747E+02 -0.26795622880E+02  0.43470382647E+02  0.00000000000E+00 0. -1.
</event>
<event>
 7    1  0.2651429E-009  0.1000065E+03  0.7561462E-02  0.1280282E+00
         -1   -1    0    0    0  501 -0.00000000000E+00  0.00000000000E+00  0.82237385835E+02  0.82237385835E+02  0.00000000000E+00 0.  1.
          1   -1    0    0  501    0  0.00000000000E+00 -0.00000000000E+00 -0.18131429234E+03  0.18131429234E+03  0.00000000000E+00 0. -1.
         25    2    1    2    0    0 -0.44698715458E+02 -0.41995539659E+02 -0.50239649257E+02  0.14809923502E+03  0.12509100903E+03 0.  0.
          5    1    3    3  502    0  0.32346712727E+02 -0.70285806992E+00  0.17877563442E+02  0.37200584785E+02  0.41800000000E+01 0.  1.
         -5    1    3    3    0  502 -0.77045428185E+02 -0.41292681590E+02 -0.68117212699E+02  0.11089865023E+03  0.41800000000E+01 0.  1.
        -11    1    1    2    0    0  0.42721945999E+02  0.52105958023E+01  0.11688610935E+02  0.44597517915E+02  0.00000000000E+00 0.  1.
         11    1    1    2    0    0  0.19767694586E+01  0.36784943857E+02 -0.60525868178E+02  0.70854925240E+02  0.00000000000E+00 0. -1.
</event>
<event>
 7    1  0.2651429E-009  0.9395120E+02  0.7561462E-02  0.1293556E+00
          1   -1    0    0  501    0  0.00000000000E+00  0.00000000000E+00  0.14810719834E+03  0.14810719834E+03  0.00000000000E+00 0. -1.
         -1   -1    0    0    0  501 -0.00000000000E+00 -0.00000000000E+00 -0.10068014522E+03  0.10068014522E+03  0.00000000000E+00 0.  1.
         25    2    1    2    0    0  0.44532530946E+02 -0.26629562395E+02  0.54781349644E+02  0.14608361919E+03  0.12508855911E+03 0.  0.
          5    1    3    3  502    0 -0.22337079264E+02 -0.57247977372E+02  0.28541391476E+02  0.67884898546E+02  0.41800000000E+01 0. -1.
         -5    1    3    3    0  502  0.66869610209E+02  0.30618414976E+02  0.26239958168E+02  0.78198720641E+02  0.41800000000E+01 0. -1.
        -11    1    1    2    0    0 -0.13806399429E+02  0.13234866649E+02  0.40203490399E+02  0.44520770441E+02  0.00000000000E+00 0. -1.
         11    1    1    2    0    0 -0.30726131517E+02  0.13394695746E+02 -0.47557786915E+02  0.58182953933E+02  0.00000000000E+00 0.  1.
</event>
<event>
 7    1  0.2651429E-009  0.1508359E+03  0.7561462E-02  0.1199450E+00
          2   -1    0    0  501    0  0.00000000000E+00  0.00000000000E+00  0.56894869267E+02  0.56894869267E+02  0.00000000000E+00 0. -1.
         -2   -1    0    0    0  501 -0.00000000000E+00 -0.00000000000E+00 -0.43601157281E+03  0.43601157281E+03  0.00000000000E+00 0.  1.
         25    2    1    2    0    0 -0.81972422540E+02 -0.76965265812E+02 -0.17412406522E+03  0.24208411551E+03  0.12506957542E+03 0.  0.
          5    1    3    3  502    0  0.12473358837E+02  0.24988582889E+02 -0.39438986514E+02  0.48506906856E+02  0.41800000000E+01 0.  1.
         -5    1    3    3    0  502 -0.94445781377E+02 -0.10195384870E+03 -0.13468507871E+03  0.19357720866E+03  0.41800000000E+01 0.  1.
        -11    1    1    2    0    0  0.52865029486E+02  0.88496361350E+02 -0.18988041417E+03  0.21605760575E+03  0.00000000000E+00 0.  1.
         11    1    1    2    0    0  0.29107393054E+02 -0.11531095537E+02 -0.15112224146E+02  0.34764720815E+02  0.00000000000E+00 0. -1.
</event>
<event>
 7    1  0.2651429E-009  0.8259537E+02  0.7561462E-02  0.1321843E+00
          2   -1    0    0  501    0  0.00000000000E+00  0.00000000000E+00  0.23213896563E+03  0.23213896563E+03  0.00000000000E+00 0. -1.
         -2   -1    0    0    0  501 -0.00000000000E+00 -0.00000000000E+00 -0.59091037939E+02  0.59091037939E+02  0.00000000000E+00 0.  1.
         25    2    1    2    0    0 -0.22827420103E+02  0.16832649479E+02  0.59384126241E+02  0.14134752827E+03  0.12509284592E+03 0.  0.
          5    1    3    3  502    0 -0.43785666178E+02  0.11702916188E+02 -0.26519269399E+02  0.52677194871E+02  0.41800000000E+01 0. -1.
         -5    1    3    3    0  502  0.20958246075E+02  0.51297332911E+01  0.85903395640E+02  0.88670333397E+02  0.41800000000E+01 0. -1.
        -11    1    1    2    0    0 -0.17221410219E+02 -0.45365446639E+02  0.55935119643E+02  0.74049566698E+02  0.00000000000E+00 0.  1.
         11    1    1    2    0    0  0.40048830323E+02  0.28532797160E+02  0.57728681810E+02  0.75832908605E+02  0.00000000000E+00 0. -1.
</event>
<event>
 7    1  0.2651429E-009  0.8488940E+02  0.7561462E-02  0.1315722E+00
         -2   -1    0    0    0  501 -0.00000000000E+00  0.00000000000E+00  0.53426982542E+03  0.53426982542E+03  0.00000000000E+00 0.  1.
          2   -1    0    0  501    0  0.00000000000E+00 -0.00000000000E+00 -0.33166728459E+02  0.33166728459E+02  0.00000000000E+00 0. -1.
         25    2    1    2    0    0 -0.59017413102E+02 -0.32497245472E+02  0.19964322538E+03  0.24503450797E+03  0.12508144006E+03 0.  0.
          5    1    3    3  502    0 -0.60410402254E+01  0.89146768545E+01 -0.15646986427E+02  0.19449067193E+02  0.41800000000E+01 0.  1.
         -5    1    3    3    0  502 -0.52976372877E+02 -0.41411922326E+02  0.21529021180E+03  0.22558544078E+03  0.41800000000E+01 0.  1.
        -11    1    1    2    0    0  0.59704820321E+02  0.47217571104E+02  0.29758314918E+03  0.30716428058E+03  0.00000000000E+00 0.  1.
         11    1    1    2    0    0 -0.68740721868E+00 -0.14720325633E+02  0.38767224046E+01  0.15237765322E+02  0.00000000000E+00 0. -1.
</event>
<event>
 7    1  0.2651429E-009  0.1219182E+03  0.7561462E-02  0.1239966E+00
          2   -1    0    0  501    0  0.00000000000E+00  0.00000000000E+00  0.48639962513E+02  0.48639962513E+02  0.00000000000E+00 0. -1.
         -2   -1    0    0    0  501 -0.00000000000E+00 -0.00000000000E+00 -0.51411388283E+03  0.51411388283E+03  0.00000000000E+00 0.  1.
         25    2    1    2    0    0  0.78023852765E+02 -0.83880853172E+01 -0.10100312004E+03  0.17891736777E+03  0.12510680500E+03 0.  0.
          5    1    3    3  502    0  0.44042066689E+02  0.52051753070E+02 -0.82344232411E+02  0.10699127837E+03  0.41800000000E+01 0.  1.
         -5    1    3    3    0  502  0.33981786076E+02 -0.60439838388E+02 -0.18658887633E+02  0.71926089404E+02  0.41800000000E+01 0.  1.
        -11    1    1    2    0    0 -0.62320293087E+02 -0.26561800352E+02 -0.30951582521E+03  0.31684285415E+03  0.00000000000E+00 0.  1.
         11    1    1    2    0    0 -0.15703559677E+02  0.34949885670E+02 -0.54954975056E+02  0.66993623415E+02  0.00000000000E+00 0. -1.
</event>
<event>
 7    1  0.2651429E-009  0.1243725E+03  0.7561462E-02  0.1236053E+00
         -2   -1    0    0    0  501 -0.00000000000E+00  0.00000000000E+00  0.34902178709E+02  0.34902178709E+02  0.00000000000E+00 0.  1.
          2   -1    0    0  501    0  0.00000000000E+00 -0.00000000000E+00 -0.47706208261E+03  0.47706208261E+03  0.00000000000E+00 0. -1.
         25    2    1    2    0    0  0.67305708929E+02 -0.13739913070E+02 -0.31545282721E+03  0.34623418349E+03  0.12509508366E+03 0.  0.
          5    1    3    3  502    0  0.67296590307E+02 -0.63593565888E+02 -0.20573123766E+03  0.22564526859E+03  0.41800000000E+01 0.  1.
         -5    1    3    3    0  502  0.91186219812E-02  0.49853652818E+02 -0.10972158955E+03  0.12058891490E+03  0.41800000000E+01 0.  1.
        -11    1    1    2    0    0 -0.32640155907E+02  0.47506380118E+02 -0.58748610464E+02  0.82302096942E+02  0.00000000000E+00 0.  1.
         11    1    1    2    0    0 -0.34665553022E+02 -0.33766467048E+02 -0.67958466228E+02  0.83427980890E+02  0.00000000000E+00 0. -1.
</event>
<event>
 7    1  0.4002751E-009  0.1653616E+03  0.7561462E-02  0.1182773E+00
         -2   -1    0    0    0  501 -0.00000000000E+00  0.00000000000E+00  0.21840939525E+02  0.21840939525E+02  0.00000000000E+00 0.  1.
          2   -1    0    0  501    0  0.00000000000E+00 -0.00000000000E+00 -0.13594357730E+04  0.13594357730E+04  0.00000000000E+00 0. -1.
         25    2    1    2    0    0 -0.11290921095E+03 -0.67186859920E+02 -0.80064121761E+03  0.82093585591E+03  0.12508699421E+03 0.  0.
          5    1    3    3  502    0  0.11819196389E+02 -0.45102943088E+02 -0.33887391887E+03  0.34209205511E+03  0.41800000000E+01 0.  1.
         -5    1    3    3    0  502 -0.12472840734E+03 -0.22083916832E+02 -0.46176729874E+03  0.47884380080E+03  0.41800000000E+01 0.  1.
        -11    1    1    2    0    0  0.49245439694E+02 -0.16577718698E+02 -0.23200526550E+03  0.23775276509E+03  0.00000000000E+00 0. -1.
         11    1    1    2    0    0  0.63663771257E+02  0.83764578618E+02 -0.30494835032E+03  0.32258809148E+03  0.00000000000E+00 0.  1.
</event>
<event>
 7    1  0.2651429E-009  0.8513577E+02  0.7561462E-02  0.1315078E+00
         -2   -1    0    0    0  501 -0.00000000000E+00  0.00000000000E+00  0.14045771409E+03  0.14045771409E+03  0.00000000000E+00 0.  1.
          2   -1    0    0  501    0  0.00000000000E+00 -0.00000000000E+00 -0.93668060864E+02  0.93668060864E+02  0.00000000000E+00 0. -1.
         25    2    1    2    0    0  0.46612260761E+01  0.62935266907E+00 -0.10378690678E+02  0.12560621665E+03  0.12508829413E+03 0.  0.
          5    1    3    3  502    0  0.21013647974E+02 -0.55234955392E+02  0.16289236869E+02  0.61443350626E+02  0.41800000000E+01 0.  1.
         -5    1    3    3    0  502 -0.16352421898E+02  0.55864308061E+02 -0.26667927547E+02  0.64162866027E+02  0.41800000000E+01 0.  1.
        -11    1    1    2    0    0 -0.49285642590E+01 -0.26420309416E+02  0.73317752724E+02  0.78088516183E+02  0.00000000000E+00 0.  1.
         11    1    1    2    0    0  0.26733818289E+00  0.25790956747E+02 -0.16149408814E+02  0.30431042122E+02  0.00000000000E+00 0. -1.
</event>
<event>
 7    1  0.2651429E-009  0.1000440E+03  0.7561462E-02  0.1280203E+00
         -2   -1    0    0    0  501 -0.00000000000E+00  0.00000000000E+00  0.96930152746E+02  0.96930152746E+02  0.00000000000E+00 0.  1.
          2   -1    0    0  501    0  0.00000000000E+00 -0.00000000000E+00 -0.13682145483E+03  0.13682145483E+03  0.00000000000E+00 0. -1.
         25    2    1    2    0    0  0.47821646187E+01  0.46879864903E+01 -0.34324034002E+02  0.12988831412E+03  0.12509192028E+03 0.  0.
          5    1    3    3  502    0  0.56584025927E+02  0.61182136201E+01 -0.49696888169E+02  0.75673229227E+02  0.41800000000E+01 0.  1.
         -5    1    3    3    0  502 -0.51801861308E+02 -0.14302271298E+01  0.15372854167E+02  0.54215084892E+02  0.41800000000E+01 0.  1.
        -11    1    1    2    0    0 -0.30994310081E+02 -0.37746857107E+02 -0.27774208184E+02  0.56186111444E+02  0.00000000000E+00 0. -1.
         11    1    1    2    0    0  0.26212145463E+02  0.33058870617E+02  0.22206940101E+02  0.47677182015E+02  0.00000000000E+00 0.  1.
</event>
<event>
 7    1  0.2651429E-009  0.1280476E+03  0.7561462E-02  0.1230382E+00
         -2   -1    0    0    0  501 -0.00000000000E+00  0.00000000000E+00  0.40044390695E+02  0.40044390695E+02  0.00000000000E+00 0. -1.
          2   -1    0    0  501    0  0.00000000000E+00 -0.00000000000E+00 -0.69546160806E+03  0.69546160806E+03  0.00000000000E+00 0.  1.
         25    2    1    2    0    0  0.64091539923E+02 -0.24412105410E+02 -0.11968656454E+03  0.18621270513E+03  0.12508645587E+03 0.  0.
          5    1    3    3  502    0 -0.48805107784E+01 -0.61327672303E+02 -0.35237702933E+02  0.71021622648E+02  0.41800000000E+01 0.  1.
         -5    1    3    3    0  502  0.68972050701E+02  0.36915566893E+02 -0.84448861608E+02  0.11519108248E+03  0.41800000000E+01 0.  1.
        -11    1    1    2    0    0 -0.83701378446E+02  0.38312967352E+02 -0.47757646069E+03  0.48636722754E+03  0.00000000000E+00 0.  1.
         11    1    1    2    0    0  0.19609838523E+02 -0.13900861942E+02 -0.58154192137E+02  0.62926066083E+02  0.00000000000E+00 0. -1.
</event>
<event>
 7    1  0.2651429E-009  0.9634636E+02  0.7561462E-02  0.1288172E+00
         -1   -1    0    0    0  501 -0.00000000000E+00  0.00000000000E+00  0.21104603819E+02  0.21104603819E+02  0.00000000000E+00 0.  1.
          1   -1    0    0  501    0  0.00000000000E+00 -0.00000000000E+00 -0.83813948773E+03  0.83813948773E+03  0.00000000000E+00 0. -1.
         25    2    1    2    0    0 -0.56439660192E+02 -0.44314916816E+02 -0.45282346279E+03  0.47523121493E+03  0.12508545916E+03 0.  0.
          5    1    3    3  502    0 -0.34501544195E+02 -0.75697470261E+01 -0.41904233659E+03  0.42054917653E+03  0.41800000000E+01 0.  1.
         -5    1    3    3    0  502 -0.21938115997E+02 -0.36745169790E+02 -0.33781126204E+02  0.54682038403E+02  0.41800000000E+01 0.  1.
        -11    1    1    2    0    0  0.55201622699E+02 -0.13068730962E+02 -0.24793273217E+03  0.25433963623E+03  0.00000000000E+00 0. -1.
         11    1    1    2    0    0  0.12380374934E+01  0.57383647778E+02 -0.11627868895E+03  0.12967324039E+03  0.00000000000E+00 0.  1.
</event>
<event>
 7    1  0.2651429E-009  0.9020129E+02  0.7561462E-02  0.1302365E+00
          2   -1    0    0  501    0  0.00000000000E+00  0.00000000000E+00  0.11855136383E+03  0.11855136383E+03  0.00000000000E+00 0. -1.
         -2   -1    0    0    0  501 -0.00000000000E+00 -0.00000000000E+00 -0.12257162509E+03  0.12257162509E+03  0.00000000000E+00 0.  1.
         25    2    1    2    0    0  0.46649638471E+02  0.94670461930E+01  0.21473927859E+02  0.13555172684E+03  0.12508927747E+03 0.  0.
          5    1    3    3  502    0  0.41679986969E+01  0.46228644335E+02  0.53338116945E+02  0.70829985807E+02  0.41800000000E+01 0.  1.
         -5    1    3    3    0  502  0.42481639775E+02 -0.36761598142E+02 -0.31864189086E+02  0.64721741031E+02  0.41800000000E+01 0.  1.
        -11    1    1    2    0    0  0.14883330407E+02 -0.52674666413E+01 -0.39314113684E+02  0.42365779393E+02  0.00000000000E+00 0.  1.
         11    1    1    2    0    0 -0.61532968878E+02 -0.41995795517E+01  0.13819924561E+02  0.63205482691E+02  0.00000000000E+00 0. -1.
</event>
<event>
 7    1  0.2651429E-009  0.1045155E+03  0.7561462E-02  0.1271077E+00
          2   -1    0    0  501    0  0.00000000000E+00  0.00000000000E+00  0.48241327011E+03  0.48241327011E+03  0.00000000000E+00 0. -1.
         -2   -1    0    0    0  501 -0.00000000000E+00 -0.00000000000E+00 -0.31615911667E+02  0.31615911667E+02  0.00000000000E+00 0.  1.
         25    2    1    2    0    0  0.30336161219E+02 -0.81977967921E+01  0.35749312113E+03  0.38004870086E+03  0.12509275287E+03 0.  0.
          5    1    3    3  502    0  0.63134015098E+02  0.36680323508E+02  0.19537002664E+03  0.20861032981E+03  0.41800000000E+01 0. -1.
         -5    1    3    3    0  502 -0.32797853879E+02 -0.44878120300E+02  0.16212309449E+03  0.17143837104E+03  0.41800000000E+01 0. -1.
        -11    1    1    2    0    0 -0.39645259859E+02  0.34310573322E+02  0.92405091627E+02  0.10624341405E+03  0.00000000000E+00 0. -1.
         11    1    1    2    0    0  0.93090986398E+01 -0.26112776530E+02  0.89914569360E+00  0.27737066871E+02  0.00000000000E+00 0.  1.
</event>
<event>
 7    1  0.2651429E-009  0.7791856E+02  0.7561462E-02  0.1335064E+00
          1   -1    0    0  501    0  0.00000000000E+00  0.00000000000E+00  0.15674547528E+04  0.15674547528E+04  0.00000000000E+00 0. -1.
         -1   -1    0    0    0  501 -0.00000000000E+00 -0.00000000000E+00 -0.12098452636E+02  0.12098452636E+02  0.00000000000E+00 0.  1.
         25    2    1    2    0    0 -0.21109440660E+02 -0.48815421840E+01  0.13098073723E+04  0.13159432528E+04  0.12506739884E+03 0.  0.
          5    1    3    3  502    0  0.43180038721E+01  0.24762475838E+02  0.56044666530E+02  0.61565431969E+02  0.41800000000E+01 0. -1.
         -5    1    3    3    0  502 -0.25427444532E+02 -0.29644018022E+02  0.12537627057E+04  0.12543778208E+04  0.41800000000E+01 0. -1.
        -11    1    1    2    0    0 -0.26655482266E+02 -0.23483955374E+02  0.58077725057E+02  0.68081076979E+02  0.00000000000E+00 0.  1.
         11    1    1    2    0    0  0.47764922926E+02  0.28365497558E+02  0.18747120282E+03  0.19552887562E+03  0.00000000000E+00 0. -1.
</event>
<event>
 7    1  0.2651429E-009  0.9260750E+02  0.7561462E-02  0.1296657E+00
         -1   -1    0    0    0  501 -0.00000000000E+00  0.00000000000E+00  0.29042790876E+03  0.29042790876E+03  0.00000000000E+00 0.  1.
          1   -1    0    0  501    0  0.00000000000E+00 -0.00000000000E+00 -0.48415886868E+02  0.48415886868E+02  0.00000000000E+00 0. -1.
         25    2    1    2    0    0  0.14907375087E+02  0.33036785227E+02  0.18486569317E+03  0.22613256584E+03  0.12508778443E+03 0.  0.
          5    1    3    3  502    0 -0.28611933590E+02  0.68070145699E+02  0.98182035521E+02  0.12292018540E+03  0.41800000000E+01 0.  1.
         -5    1    3    3    0  502  0.43519308677E+02 -0.35033360473E+02  0.86683657647E+02  0.10321238044E+03  0.41800000000E+01 0.  1.
        -11    1    1    2    0    0 -0.29418050373E+02 -0.25233748963E+02 -0.12826404039E+02  0.40824997429E+02  0.00000000000E+00 0. -1.
         11    1    1    2    0    0  0.14510675287E+02 -0.78030362638E+01  0.69972732763E+02  0.71886232358E+02  0.00000000000E+00 0.  1.
</event>
<event>
 7    1  0.2651429E-009  0.1469165E+03  0.7561462E-02  0.1204314E+00
         -1   -1    0    0    0  501 -0.00000000000E+00  0.00000000000E+00  0.19620874037E+03  0.19620874037E+03  0.00000000000E+00 0.  1.
          1   -1    0    0  501    0  0.00000000000E+00 -0.00000000000E+00 -0.17741376321E+03  0.17741376321E+03  0.00000000000E+00 0. -1.
         25    2    1    2    0    0  0.10203317273E+03  0.89403186748E+02 -0.60330984594E+02  0.19411771068E+03  0.12505262796E+03 0.  0.
          5    1    3    3  502    0  0.54635572932E+02 -0.42120537148E+00  0.26095927043E+02  0.60693434997E+02  0.41800000000E+01 0. -1.
         -5    1    3    3    0  502  0.47397599794E+02  0.89824392119E+02 -0.86426911637E+02  0.13342427568E+03  0.41800000000E+01 0. -1.
        -11    1    1    2    0    0 -0.30308277272E+02 -0.40468768247E+02 -0.13716631445E+02  0.52387583002E+02  0.00000000000E+00 0. -1.
         11    1    1    2    0    0 -0.71724895454E+02 -0.48934418500E+02  0.92842593192E+02  0.12711720990E+03  0.00000000000E+00 0.  1.
</event>
<event>
 7    1  0.2651429E-009  0.1496132E+03  0.7561462E-02  0.1200949E+00
          2   -1    0    0  501    0  0.00000000000E+00  0.00000000000E+00  0.78319565436E+03  0.78319565436E+03  0.00000000000E+00 0.  1.
         -2   -1    0    0    0  501 -0.00000000000E+00 -0.00000000000E+00 -0.38264304004E+02  0.38264304004E+02  0.00000000000E+00 0. -1.
         25    2    1    2    0    0 -0.12430975790E+03  0.45563063293E+02  0.41210928816E+03  0.45056622523E+03  0.12508776635E+03 0.  0.
          5    1    3    3  502    0 -0.98127974522E+02  0.52638136903E+02  0.40784698494E+03  0.42279606002E+03  0.41800000000E+01 0.  1.
         -5    1    3    3    0  502 -0.26181783381E+02 -0.70750736100E+01  0.42623032169E+01  0.27770165219E+02  0.41800000000E+01 0.  1.
        -11    1    1    2    0    0  0.94411760555E+02  0.12311584307E+02  0.23293991753E+03  0.25164689710E+03  0.00000000000E+00 0.  1.
         11    1    1    2    0    0  0.29897997347E+02 -0.57874647600E+02  0.99882144662E+02  0.11924683603E+03  0.00000000000E+00 0. -1.
</event>
<event>
 7    1  0.2651429E-009  0.1015474E+03  0.7561462E-02  0.1277075E+00
         -1   -1    0    0    0  501 -0.00000000000E+00  0.00000000000E+00  0.97905179991E+02  0.97905179991E+02  0.00000000000E+00 0.  1.
          1   -1    0    0  501    0  0.00000000000E+00 -0.00000000000E+00 -0.12763665282E+03  0.12763665282E+03  0.00000000000E+00 0. -1.
         25    2    1    2    0    0  0.14206161596E+02  0.14956055541E+02 -0.23206130333E+02  0.12888720398E+03  0.12509151946E+03 0.  0.
          5    1    3    3  502    0 -0.39954361339E+02  0.34151192649E+02 -0.42927658701E+02  0.67991993873E+02  0.41800000000E+01 0. -1.
         -5    1    3    3    0  502  0.54160522934E+02 -0.19195137108E+02  0.19721528368E+02  0.60895210110E+02  0.41800000000E+01 0. -1.
        -11    1    1    2    0    0 -0.48813730764E+02  0.10328399083E+02  0.96955157130E+01  0.50827740100E+02  0.00000000000E+00 0.  1.
         11    1    1    2    0    0  0.34607569169E+02 -0.25284454624E+02 -0.16220858208E+02  0.45826888727E+02  0.00000000000E+00 0. -1.
</event>
<event>
 7    1  0.2651429E-009  0.1285659E+03  0.7561462E-02  0.1229599E+00
          2   -1    0    0  501    0  0.00000000000E+00  0.00000000000E+00  0.11147454573E+04  0.11147454573E+04  0.00000000000E+00 0.  1.
         -2   -1    0    0    0  501 -0.00000000000E+00 -0.00000000000E+00 -0.31200480732E+02  0.31200480732E+02  0.00000000000E+00 0. -1.
         25    2    1    2    0    0  0.14048479860E+02  0.12609198134E+03  0.83159857188E+03  0.85047025978E+03  0.12508769116E+03 0.  0.
          5    1    3    3  502    0 -0.79195810044E+01  0.44769699248E+02  0.66074518383E+02  0.80314133959E+02  0.41800000000E+01 0.  1.
         -5    1    3    3    0  502  0.21968060864E+02  0.81322282096E+02  0.76552405350E+03  0.77015612583E+03  0.41800000000E+01 0.  1.
        -11    1    1    2    0    0 -0.88144720772E+01 -0.43909754568E+02  0.19450970290E+02  0.48827263997E+02  0.00000000000E+00 0. -1.
         11    1    1    2    0    0 -0.52340077828E+01 -0.82182226776E+02  0.23249543435E+03  0.24664841420E+03  0.00000000000E+00 0.  1.
</event>
<event>
 7    1  0.2651429E-009  0.1274214E+03  0.7561462E-02  0.1231333E+00
          1   -1    0    0  501    0  0.00000000000E+00  0.00000000000E+00  0.24465624840E+03  0.24465624840E+03  0.00000000000E+00 0. -1.
         -1   -1    0    0    0  501 -0.00000000000E+00 -0.00000000000E+00 -0.10006558712E+03  0.10006558712E+03  0.00000000000E+00 0.  1.
         25    2    1    2    0    0  0.78438488387E+01 -0.98202602503E+02  0.13886986064E+02  0.15983265970E+03  0.12509337961E+03 0.  0.
          5    1    3    3  502    0 -0.19473336727E+01  0.15872036072E+02 -0.32315526912E+02  0.36297097916E+02  0.41800000000E+01 0.  1.
         -5    1    3    3    0  502  0.97911825114E+01 -0.11407463858E+03  0.46202512976E+02  0.12353556179E+03  0.41800000000E+01 0.  1.
        -11    1    1    2    0    0 -0.32314080385E+02  0.93366861729E+02  0.75611309646E+02  0.12441318582E+03  0.00000000000E+00 0.  1.
         11    1    1    2    0    0  0.24470231546E+02  0.48357407744E+01  0.55092365569E+02  0.60475989986E+02  0.00000000000E+00 0. -1.
</event>
<event>
 7    1  0.2651429E-009  0.8667212E+02  0.7561462E-02  0.1311117E+00
         -1   -1    0    0    0  501 -0.00000000000E+00  0.00000000000E+00  0.23055407757E+03  0.23055407757E+03  0.00000000000E+00 0.  1.
          1   -1    0    0  501    0  0.00000000000E+00 -0.00000000000E+00 -0.77499579938E+02  0.77499579938E+02  0.00000000000E+00 0. -1.
         25    2    1    2    0    0 -0.11502899819E+02 -0.72934609876E+02  0.10384477571E+03  0.17856417070E+03  0.12509856751E+03 0.  0.
          5    1    3    3  502    0 -0.17168490632E+02 -0.69702640534E+02 -0.24870629354E+01  0.71950490269E+02  0.41800000000E+01 0.  1.
         -5    1    3    3    0  502  0.56655908133E+01 -0.32319693422E+01  0.10633183864E+03  0.10661368043E+03  0.41800000000E+01 0.  1.
        -11    1    1    2    0    0  0.14996947413E+02  0.82320041805E+02  0.68247779605E+02  0.10797804006E+03  0.00000000000E+00 0.  1.
         11    1    1    2    0    0 -0.34940475940E+01 -0.93854319294E+01 -0.19038057679E+02  0.21511446750E+02  0.00000000000E+00 0. -1.
</event>
<event>
 7    1  0.2651429E-009  0.1157230E+03  0.7561462E-02  0.1250324E+00
         -2   -1    0    0    0  501 -0.00000000000E+00  0.00000000000E+00  0.79741764083E+02  0.79741764083E+02  0.00000000000E+00 0.  1.
          2   -1    0    0  501    0  0.00000000000E+00 -0.00000000000E+00 -0.18404400860E+03  0.18404400860E+03  0.00000000000E+00 0. -1.
         25    2    1    2    0    0  0.32242572543E+02  0.28276825913E+02 -0.93585190416E+02  0.16200034972E+03  0.12508702201E+03 0.  0.
          5    1    3    3  502    0  0.17705381818E+02  0.77806373866E+02 -0.63858045913E+02  0.10228702160E+03  0.41800000000E+01 0. -1.
         -5    1    3    3    0  502  0.14537190725E+02 -0.49529547953E+02 -0.29727144503E+02  0.59713328118E+02  0.41800000000E+01 0. -1.
        -11    1    1    2    0    0  0.33966241927E+01 -0.55064675524E+02  0.26728523301E+01  0.55234044629E+02  0.00000000000E+00 0.  1.
         11    1    1    2    0    0 -0.35639196735E+02  0.26787849612E+02 -0.13389906427E+02  0.46551378335E+02  0.00000000000E+00 0. -1.
</event>
<event>
 7    1  0.2651429E-009  0.6666745E+02  0.7561462E-02  0.1371807E+00
          2   -1    0    0  501    0  0.00000000000E+00  0.00000000000E+00  0.29875290600E+03  0.29875290600E+03  0.00000000000E+00 0. -1.
         -2   -1    0    0    0  501 -0.00000000000E+00 -0.00000000000E+00 -0.45412867571E+02  0.45412867571E+02  0.00000000000E+00 0.  1.
         25    2    1    2    0    0  0.33629859210E+02 -0.14755649267E+02  0.11077087331E+03  0.17108920774E+03  0.12511048723E+03 0.  0.
          5    1    3    3  502    0  0.12234111518E+02  0.12587961898E+02 -0.25031007059E+02  0.30856992461E+02  0.41800000000E+01 0. -1.
         -5    1    3    3    0  502  0.21395747692E+02 -0.27343611166E+02  0.13580188036E+03  0.14023221528E+03  0.41800000000E+01 0. -1.
        -11    1    1    2    0    0  0.18196193979E+02  0.21377092632E+02  0.87268720809E+01  0.29397956749E+02  0.00000000000E+00 0.  1.
         11    1    1    2    0    0 -0.51826053189E+02 -0.66214433645E+01  0.13384229304E+03  0.14367860908E+03  0.00000000000E+00 0. -1.
</event>
<event>
 7    1  0.2651429E-009  0.1403617E+03  0.7561462E-02  0.1212843E+00
          4   -1    0    0  501    0  0.00000000000E+00  0.00000000000E+00  0.19208214967E+03  0.19208214967E+03  0.00000000000E+00 0. -1.
         -4   -1    0    0    0  501 -0.00000000000E+00 -0.00000000000E+00 -0.15519092490E+03  0.15519092490E+03  0.00000000000E+00 0.  1.
         25    2    1    2    0    0 -0.38976970917E+01 -0.10574012631E+03 -0.62786425826E+02  0.17545940525E+03  0.12509077212E+03 0.  0.
          5    1    3    3  502    0 -0.47181086660E+02 -0.75092188065E+02  0.54328755852E+01  0.88948750323E+02  0.41800000000E+01 0. -1.
         -5    1    3    3    0  502  0.43283389568E+02 -0.30647938243E+02 -0.68219301411E+02  0.86510654928E+02  0.41800000000E+01 0. -1.
        -11    1    1    2    0    0  0.31735668189E+02  0.25231010255E+01  0.32819755816E+02  0.45723681457E+02  0.00000000000E+00 0.  1.
         11    1    1    2    0    0 -0.27837971097E+02  0.10321702528E+03  0.66857894778E+02  0.12608998785E+03  0.00000000000E+00 0. -1.
</event>
<event>
 7    1  0.2651429E-009  0.1355572E+03  0.7561462E-02  0.1219435E+00
         -1   -1    0    0    0  501 -0.00000000000E+00  0.00000000000E+00  0.47651967733E+03  0.47651967733E+03  0.00000000000E+00 0.  1.
          1   -1    0    0  501    0  0.00000000000E+00 -0.00000000000E+00 -0.46710125638E+02  0.46710125638E+02  0.00000000000E+00 0. -1.
         25    2    1    2    0    0  0.38518972135E+02 -0.94243344472E+02  0.26570453452E+03  0.31082493768E+03  0.12509085908E+03 0.  0.
          5    1    3    3  502    0  0.79107618463E+02 -0.67375188942E+02  0.12927897642E+03  0.16591551322E+03  0.41800000000E+01 0.  1.
         -5    1    3    3    0  502 -0.40588646327E+02 -0.26868155530E+02  0.13642555810E+03  0.14490942445E+03  0.41800000000E+01 0.  1.
        -11    1    1    2    0    0 -0.17544007508E+02 -0.38436977762E+01 -0.23002390942E+01  0.18106830533E+02  0.00000000000E+00 0. -1.
         11    1    1    2    0    0 -0.20974964627E+02  0.98087042249E+02  0.16640525626E+03  0.19429803476E+03  0.00000000000E+00 0.  1.
</event>
<event>
 7    1  0.2651429E-009  0.1287450E+03  0.7561462E-02  0.1229330E+00
         -2   -1    0    0    0  501 -0.00000000000E+00  0.00000000000E+00  0.29616580288E+02  0.29616580288E+02  0.00000000000E+00 0. -1.
          2   -1    0    0  501    0  0.00000000000E+00 -0.00000000000E+00 -0.74491763527E+03  0.74491763527E+03  0.00000000000E+00 0.  1.
         25    2    1    2    0    0  0.76165130069E+02  0.37342384204E+02 -0.53407284070E+03  0.55504708282E+03  0.12509150361E+03 0.  0.
          5    1    3    3  502    0  0.73794815636E+02  0.71635556840E+02 -0.47943734022E+03  0.49036207379E+03  0.41800000000E+01 0. -1.
         -5    1    3    3    0  502  0.23703144329E+01 -0.34293172636E+02 -0.54635500486E+02  0.64685009031E+02  0.41800000000E+01 0. -1.
        -11    1    1    2    0    0 -0.26505786437E+02  0.27541485485E+02 -0.85336736597E+02  0.93506410210E+02  0.00000000000E+00 0.  1.
         11    1    1    2    0    0 -0.49659343631E+02 -0.64883869689E+02 -0.95891477680E+02  0.12598072252E+03  0.00000000000E+00 0. -1.
</event>
<event>
 7    1  0.2651429E-009  0.1952692E+03  0.7561462E-02  0.1153793E+00
          3   -1    0    0  501    0  0.00000000000E+00  0.00000000000E+00  0.42728461280E+03  0.42728461280E+03  0.00000000000E+00 0. -1.
         -3   -1    0    0    0  501 -0.00000000000E+00 -0.00000000000E+00 -0.13635363102E+03  0.13635363102E+03  0.00000000000E+00 0.  1.
         25    2    1    2    0    0 -0.13871902769E+03 -0.12411128382E+03  0.27648683413E+03  0.35600452652E+03  0.12509066328E+03 0.  0.
          5    1    3    3  502    0 -0.60631874547E+02 -0.53109881807E+02  0.22392260775E+03  0.23802455844E+03  0.41800000000E+01 0.  1.
         -5    1    3    3    0  502 -0.78087153142E+02 -0.71001402015E+02  0.52564226381E+02  0.11797996808E+03  0.41800000000E+01 0.  1.
        -11    1    1    2    0    0 -0.58853764791E+01  0.32485920173E+02 -0.10483908469E+02  0.34639356267E+02  0.00000000000E+00 0.  1.
         11    1    1    2    0    0  0.14460440417E+03  0.91625363649E+02  0.24928056119E+02  0.17299436104E+03  0.00000000000E+00 0. -1.
</event>
<event>
 7    1  0.2651429E-009  0.1525395E+03  0.7561462E-02  0.1197387E+00
          1   -1    0    0  501    0  0.00000000000E+00  0.00000000000E+00  0.98722805030E+03  0.98722805030E+03  0.00000000000E+00 0.  1.
         -1   -1    0    0    0  501 -0.00000000000E+00 -0.00000000000E+00 -0.24160094892E+02  0.24160094892E+02  0.00000000000E+00 0. -1.
         25    2    1    2    0    0  0.10719558965E+03  0.20219552913E+02  0.48284494126E+03  0.51057461123E+03  0.12508985401E+03 0.  0.
          5    1    3    3  502    0  0.11267091458E+03  0.58514413677E+02  0.37406848514E+03  0.39504857369E+03  0.41800000000E+01 0.  1.
         -5    1    3    3    0  502 -0.54753249345E+01 -0.38294860764E+02  0.10877645612E+03  0.11552603754E+03  0.41800000000E+01 0.  1.
        -11    1    1    2    0    0 -0.11778117898E+01  0.24175105012E+02  0.50746918384E+02  0.56223417439E+02  0.00000000000E+00 0. -1.
         11    1    1    2    0    0 -0.10601777786E+03 -0.44394657925E+02  0.42947609577E+03  0.44459011652E+03  0.00000000000E+00 0.  1.
</event>
<event>
 7    1  0.2651429E-009  0.1045842E+03  0.7561462E-02  0.1270941E+00
          2   -1    0    0  501    0  0.00000000000E+00  0.00000000000E+00  0.27646923371E+03  0.27646923371E+03  0.00000000000E+00 0. -1.
         -2   -1    0    0    0  501 -0.00000000000E+00 -0.00000000000E+00 -0.53833597129E+02  0.53833597129E+02  0.00000000000E+00 0.  1.
         25    2    1    2    0    0 -0.14695950149E+02  0.51247648559E+01  0.19977619229E+03  0.23622046881E+03  0.12508936291E+03 0.  0.
          5    1    3    3  502    0 -0.66188212065E+02 -0.35506673469E+01  0.71123100103E+02  0.97311121786E+02  0.41800000000E+01 0.  1.
         -5    1    3    3    0  502  0.51492261916E+02  0.86754322029E+01  0.12865309218E+03  0.13890934702E+03  0.41800000000E+01 0.  1.
        -11    1    1    2    0    0 -0.15272008036E+02  0.36218193916E+02  0.34558020011E+01  0.39458007647E+02  0.00000000000E+00 0.  1.
         11    1    1    2    0    0  0.29967958185E+02 -0.41342958772E+02  0.19403642293E+02  0.54624354385E+02  0.00000000000E+00 0. -1.
</event>
<event>
 7    1  0.2651429E-009  0.8484893E+02  0.7561462E-02  0.1315828E+00
          3   -1    0    0  501    0  0.00000000000E+00  0.00000000000E+00  0.63623282896E+02  0.63623282896E+02  0.00000000000E+00 0. -1.
         -3   -1    0    0    0  501 -0.00000000000E+00 -0.00000000000E+00 -0.24027337547E+03  0.24027337547E+03  0.00000000000E+00 0.  1.
         25    2    1    2    0    0 -0.59210712994E+01 -0.35948966509E+02 -0.51678261982E+02  0.14016040988E+03  0.12508761113E+03 0.  0.
          5    1    3    3  502    0  0.41167960463E+02  0.27964297566E+02 -0.27780581466E+02  0.57149243334E+02  0.41800000000E+01 0. -1.
         -5    1    3    3    0  502 -0.47089031762E+02 -0.63913264075E+02 -0.23897680515E+02  0.83011166544E+02  0.41800000000E+01 0. -1.
        -11    1    1    2    0    0  0.12008727983E+02  0.22832356833E+02 -0.14030671499E+03  0.14265868476E+03  0.00000000000E+00 0.  1.
         11    1    1    2    0    0 -0.60876566833E+01  0.13116609676E+02  0.15334884396E+02  0.21077563728E+02  0.00000000000E+00 0. -1.
</event>
<event>
 7    1  0.2651429E-009  0.9703054E+02  0.7561462E-02  0.1286667E+00
          1   -1    0    0  501    0  0.00000000000E+00  0.00000000000E+00  0.16564552193E+03  0.16564552193E+03  0.00000000000E+00 0. -1.
         -1   -1    0    0    0  501 -0.00000000000E+00 -0.00000000000E+00 -0.98745620404E+02  0.98745620404E+02  0.00000000000E+00 0.  1.
         25    2    1    2    0    0  0.56887964470E+02  0.23246691001E+02  0.62927107595E+02  0.15291705836E+03  0.12508859549E+03 0.  0.
          5    1    3    3  502    0 -0.74294386396E+01  0.19505025324E+02  0.82699894611E+02  0.85395477281E+02  0.41800000000E+01 0. -1.
         -5    1    3    3    0  502  0.64317403110E+02  0.37416656773E+01 -0.19772787016E+02  0.67521581077E+02  0.41800000000E+01 0. -1.
        -11    1    1    2    0    0 -0.80027798247E+02 -0.78345975411E+01 -0.87760055635E+01  0.80887871060E+02  0.00000000000E+00 0.  1.
         11    1    1    2    0    0  0.23139833777E+02 -0.15412093460E+02  0.12748799497E+02  0.30586212918E+02  0.00000000000E+00 0. -1.
</event>
<event>
 7    1  0.2651429E-009  0.9033578E+02  0.7561462E-02  0.1302041E+00
          2   -1    0    0  501    0  0.00000000000E+00  0.00000000000E+00  0.22632779725E+03  0.22632779725E+03  0.00000000000E+00 0. -1.
         -2   -1    0    0    0  501 -0.00000000000E+00 -0.00000000000E+00 -0.51641979732E+02  0.51641979732E+02  0.00000000000E+00 0.  1.
         25    2    1    2    0    0  0.13328507252E+02  0.55914632867E+01  0.10343649667E+03  0.16295078398E+03  0.12507971694E+03 0.  0.
          5    1    3    3  502    0  0.55000568203E+02  0.35952933859E+02  0.86109421716E+02  0.10839732868E+03  0.41800000000E+01 0.  1.
         -5    1    3    3    0  502 -0.41672060951E+02 -0.30361470573E+02  0.17327074956E+02  0.54553455306E+02  0.41800000000E+01 0.  1.
        -11    1    1    2    0    0  0.11680650053E+02  0.22584864963E+02  0.73002474934E+02  0.77303784238E+02  0.00000000000E+00 0. -1.
         11    1    1    2    0    0 -0.25009157304E+02 -0.28176328250E+02 -0.17531540890E+01  0.37715208762E+02  0.00000000000E+00 0.  1.
</event>
<event>
 7    1  0.2651429E-009  0.1150827E+03  0.7561462E-02  0.1251437E+00
          1   -1    0    0  501    0  0.00000000000E+00  0.00000000000E+00  0.23566612352E+03  0.23566612352E+03  0.00000000000E+00 0. -1.
         -1   -1    0    0    0  501 -0.00000000000E+00 -0.00000000000E+00 -0.59109120289E+02  0.59109120289E+02  0.00000000000E+00 0.  1.
         25    2    1    2    0    0 -0.39231422231E+02  0.24318953530E+02  0.88658729822E+02  0.16012064412E+03  0.12509090418E+03 0.  0.
          5    1    3    3  502    0 -0.47328897842E+02 -0.40919553944E+02  0.64505166764E+02  0.89960121194E+02  0.41800000000E+01 0.  1.
         -5    1    3    3    0  502  0.80974756105E+01  0.65238507474E+02  0.24153563058E+02  0.70160522925E+02  0.41800000000E+01 0.  1.
        -11    1    1    2    0    0  0.10808676427E+02  0.34558618035E+02  0.25584542216E+02  0.44336151919E+02  0.00000000000E+00 0. -1.
         11    1    1    2    0    0  0.28422745804E+02 -0.58877571565E+02  0.62313731190E+02  0.90318447768E+02  0.00000000000E+00 0.  1.
</event>
<event>
 7    1  0.2651429E-009  0.1137824E+03  0.7561462E-02  0.1253722E+00
          2   -1    0    0  501    0  0.00000000000E+00  0.00000000000E+00  0.20365590338E+03  0.20365590338E+03  0.00000000000E+00 0. -1.
         -2   -1    0    0    0  501 -0.00000000000E+00 -0.00000000000E+00 -0.13415825000E+03  0.13415825000E+03  0.00000000000E+00 0.  1.
         25    2    1    2    0    0 -0.56229156362E+02  0.51183421061E+02 -0.61101065729E+02  0.15867028068E+03  0.12514574352E+03 0.  0.
          5    1    3    3  502    0 -0.37956470314E+02  0.83081999962E+02 -0.75887732863E+02  0.11882648171E+03  0.41800000000E+01 0.  1.
         -5    1    3    3    0  502 -0.18272686047E+02 -0.31898578901E+02  0.14786667134E+02  0.39843798968E+02  0.41800000000E+01 0.  1.
        -11    1    1    2    0    0 -0.84244227955E+01  0.78971465792E+01 -0.87979860484E+01  0.14516899877E+02  0.00000000000E+00 0.  1.
         11    1    1    2    0    0  0.64653579157E+02 -0.59080567640E+02  0.13939670517E+03  0.16462697282E+03  0.00000000000E+00 0. -1.
</event>
<event>
 7    1  0.2651429E-009  0.1120795E+03  0.7561462E-02  0.1256767E+00
          2   -1    0    0  501    0  0.00000000000E+00  0.00000000000E+00  0.32371835105E+03  0.32371835105E+03  0.00000000000E+00 0. -1.
         -2   -1    0    0    0  501 -0.00000000000E+00 -0.00000000000E+00 -0.73231526114E+02  0.73231526114E+02  0.00000000000E+00 0.  1.
         25    2    1    2    0    0  0.98206318329E+01 -0.62978131642E+02  0.86339802124E+02  0.16481604553E+03  0.12508827906E+03 0.  0.
          5    1    3    3  502    0 -0.26632155263E+02 -0.93257398059E+01 -0.23651040406E+02  0.37055164676E+02  0.41800000000E+01 0. -1.
         -5    1    3    3    0  502  0.36452787096E+02 -0.53652391836E+02  0.10999084253E+03  0.12776088086E+03  0.41800000000E+01 0. -1.
        -11    1    1    2    0    0  0.23989567199E+02 -0.26043498939E+02 -0.71726416312E+01  0.36127689648E+02  0.00000000000E+00 0.  1.
         11    1    1    2    0    0 -0.33810199032E+02  0.89021630581E+02  0.17131966444E+03  0.19600614198E+03  0.00000000000E+00 0. -1.
</event>
<event>
 7    1  0.2651429E-009  0.1354685E+03  0.7561462E-02  0.1219560E+00
         -2   -1    0    0    0  501 -0.00000000000E+00  0.00000000000E+00  0.21007596163E+02  0.21007596163E+02  0.00000000000E+00 0.  1.
          2   -1    0    0  501    0  0.00000000000E+00 -0.00000000000E+00 -0.13906626079E+04  0.13906626079E+04  0.00000000000E+00 0. -1.
         25    2    1    2    0    0 -0.31586276563E+02  0.74621987508E+02 -0.11537714465E+04  0.11633579874E+04  0.12508845719E+03 0.  0.
          5    1    3    3  502    0 -0.79657412599E+02  0.51169548969E+02 -0.78642202604E+03  0.79211154617E+03  0.41800000000E+01 0. -1.
         -5    1    3    3    0  502  0.48071136036E+02  0.23452438539E+02 -0.36734942045E+03  0.37124644119E+03  0.41800000000E+01 0. -1.
        -11    1    1    2    0    0 -0.70543681468E+01 -0.82734962307E+02 -0.14003614713E+03  0.16280344161E+03  0.00000000000E+00 0.  1.
         11    1    1    2    0    0  0.38640644710E+02  0.81129747989E+01 -0.75847418137E+02  0.85508775116E+02  0.00000000000E+00 0. -1.
</event>
<event>
 7    1  0.2651429E-009  0.9891923E+02  0.7561462E-02  0.1282585E+00
         -2   -1    0    0    0  501 -0.00000000000E+00  0.00000000000E+00  0.89831179337E+02  0.89831179337E+02  0.00000000000E+00 0. -1.
          2   -1    0    0  501    0  0.00000000000E+00 -0.00000000000E+00 -0.15916381866E+03  0.15916381866E+03  0.00000000000E+00 0.  1.
         25    2    1    2    0    0 -0.16967869861E+02  0.50785243774E+02 -0.35895761483E+02  0.14072464980E+03  0.12509145365E+03 0.  0.
          5    1    3    3  502    0 -0.47346143680E+02  0.15021774915E+02  0.31151943537E+02  0.58781179208E+02  0.41800000000E+01 0.  1.
         -5    1    3    3    0  502  0.30378273818E+02  0.35763468859E+02 -0.67047705019E+02  0.81943470596E+02  0.41800000000E+01 0.  1.
        -11    1    1    2    0    0  0.34724171803E+02  0.11134465630E+02 -0.22734139883E+02  0.42971915811E+02  0.00000000000E+00 0.  1.
         11    1    1    2    0    0 -0.17756301941E+02 -0.61919709404E+02 -0.10702737952E+02  0.65298432377E+02  0.00000000000E+00 0. -1.
</event>
<event>
 7    1  0.2651429E-009  0.7529892E+02  0.7561462E-02  0.1342948E+00
          1   -1    0    0  501    0  0.00000000000E+00  0.00000000000E+00  0.58723866710E+03  0.58723866710E+03  0.00000000000E+00 0. -1.
         -1   -1    0    0    0  501 -0.00000000000E+00 -0.00000000000E+00 -0.24739835803E+02  0.24739835803E+02  0.00000000000E+00 0.  1.
         25    2    1    2    0    0 -0.20671655610E+02 -0.14625850999E+02  0.42472336041E+03  0.44348446098E+03  0.12508917374E+03 0.  0.
          5    1    3    3  502    0  0.11019911163E+02 -0.43253637652E+02  0.37556700947E+03  0.37823321723E+03  0.41800000000E+01 0. -1.
         -5    1    3    3    0  502 -0.31691566772E+02  0.28627786653E+02  0.49156350939E+02  0.65251243749E+02  0.41800000000E+01 0. -1.
        -11    1    1    2    0    0 -0.76048175275E+01  0.29807032933E+02  0.13243249817E+03  0.13595829888E+03  0.00000000000E+00 0. -1.
         11    1    1    2    0    0  0.28276473137E+02 -0.15181181935E+02  0.53429727116E+01  0.32535743044E+02  0.00000000000E+00 0.  1.
</event>
<event>
 7    1  0.2651429E-009  0.1090124E+03  0.7561462E-02  0.1262410E+00
         -2   -1    0    0    0  501 -0.00000000000E+00  0.00000000000E+00  0.63870414730E+02  0.63870414730E+02  0.00000000000E+00 0. -1.
          2   -1    0    0  501    0  0.00000000000E+00 -0.00000000000E+00 -0.21970284939E+03  0.21970284939E+03  0.00000000000E+00 0.  1.
         25    2    1    2    0    0  0.23620360984E+02  0.10671121753E+01 -0.11457328177E+03  0.17127039176E+03  0.12508976783E+03 0.  0.
          5    1    3    3  502    0 -0.38419807443E+02  0.28071057281E+02 -0.13623073856E+02  0.49670176184E+02  0.41800000000E+01 0. -1.
         -5    1    3    3    0  502  0.62040168427E+02 -0.27003945106E+02 -0.10095020792E+03  0.12160021558E+03  0.41800000000E+01 0. -1.
        -11    1    1    2    0    0 -0.50802331633E+02  0.31709843394E+02 -0.13248622445E+02  0.61334468809E+02  0.00000000000E+00 0.  1.
         11    1    1    2    0    0  0.27181970648E+02 -0.32776955569E+02 -0.28010530435E+02  0.50968403545E+02  0.00000000000E+00 0. -1.
</event>
<event>
 7    1  0.2651429E-009  0.1142839E+03  0.7561462E-02  0.1252836E+00
         -2   -1    0    0    0  501 -0.00000000000E+00  0.00000000000E+00  0.43987427725E+02  0.43987427725E+02  0.00000000000E+00 0.  1.
          2   -1    0    0  501    0  0.00000000000E+00 -0.00000000000E+00 -0.30600826385E+03  0.30600826385E+03  0.00000000000E+00 0. -1.
         25    2    1    2    0    0 -0.22193054908E+02  0.28942241453E+02 -0.11965637156E+03  0.17690534334E+03  0.12509064002E+03 0.  0.
          5    1    3    3  502    0 -0.61812570775E+02  0.54852934351E+02 -0.74242055316E+02  0.11117101012E+03  0.41800000000E+01 0. -1.
         -5    1    3    3    0  502  0.39619515867E+02 -0.25910692898E+02 -0.45414316246E+02  0.65734333222E+02  0.41800000000E+01 0. -1.
        -11    1    1    2    0    0 -0.31478430093E+02 -0.31541854397E+02 -0.59733025758E+02  0.74523919020E+02  0.00000000000E+00 0.  1.
         11    1    1    2    0    0  0.53671485000E+02  0.25996129436E+01 -0.82631438801E+02  0.98566429214E+02  0.00000000000E+00 0. -1.
</event>
<event>
 7    1  0.2651429E-009  0.8616380E+02  0.7561462E-02  0.1312417E+00
         -1   -1    0    0    0  501 -0.00000000000E+00  0.00000000000E+00  0.66790915836E+02  0.66790915836E+02  0.00000000000E+00 0. -1.
          1   -1    0    0  501    0  0.00000000000E+00 -0.00000000000E+00 -0.19156318343E+03  0.19156318343E+03  0.00000000000E+00 0.  1.
         25    2    1    2    0    0  0.80829126063E+01  0.89997443339E+01 -0.10790068354E+03  0.16564069909E+03  0.12509178555E+03 0.  0.
          5    1    3    3  502    0  0.51087877635E+02 -0.59820191474E+01 -0.35728673761E+01  0.51730006530E+02  0.41800000000E+01 0. -1.
         -5    1    3    3    0  502 -0.43004965028E+02  0.14981763481E+02 -0.10432781616E+03  0.11391069256E+03  0.41800000000E+01 0. -1.
        -11    1    1    2    0    0  0.24101903255E+02 -0.28526107333E+02 -0.34774245644E+02  0.51028312731E+02  0.00000000000E+00 0.  1.
         11    1    1    2    0    0 -0.32184815862E+02  0.19526363000E+02  0.17902661583E+02  0.41685087451E+02  0.00000000000E+00 0. -1.
</event>
<event>
 7    1  0.2651429E-009  0.7272716E+02  0.7561462E-02  0.1351057E+00
         -4   -1    0    0    0  501 -0.00000000000E+00  0.00000000000E+00  0.11970640922E+03  0.11970640922E+03  0.00000000000E+00 0.  1.
          4   -1    0    0  501    0  0.00000000000E+00 -0.00000000000E+00 -0.90775693286E+02  0.90775693286E+02  0.00000000000E+00 0. -1.
         25    2    1    2    0    0  0.25861366605E+02 -0.15117846894E+02  0.24971745629E+02  0.13102841883E+03  0.12508996316E+03 0.  0.
          5    1    3    3  502    0  0.50430168903E+02 -0.39876341892E+02 -0.25705862950E+02  0.69365613731E+02  0.41800000000E+01 0.  1.
         -5    1    3    3    0  502 -0.24568802298E+02  0.24758494997E+02  0.50677608579E+02  0.61662805095E+02  0.41800000000E+01 0.  1.
        -11    1    1    2    0    0  0.24108786953E+01  0.17369837076E+02  0.33927912007E+02  0.38191972838E+02  0.00000000000E+00 0.  1.
         11    1    1    2    0    0 -0.28272245300E+02 -0.22519901811E+01 -0.29968941707E+02  0.41261710836E+02  0.00000000000E+00 0. -1.
</event>
<event>
 7    1  0.2651429E-009  0.1199174E+03  0.7561462E-02  0.1243233E+00
         -4   -1    0    0    0  501 -0.00000000000E+00  0.00000000000E+00  0.20913023500E+03  0.20913023500E+03  0.00000000000E+00 0.  1.
          4   -1    0    0  501    0  0.00000000000E+00 -0.00000000000E+00 -0.75546860833E+02  0.75546860833E+02  0.00000000000E+00 0. -1.
         25    2    1    2    0    0  0.58169058024E+00 -0.56414439800E+02  0.39957286942E+02  0.14292365068E+03  0.12509059821E+03 0.  0.
          5    1    3    3  502    0 -0.22894588761E+02  0.34897268048E+02  0.48245781554E+01  0.42222392947E+02  0.41800000000E+01 0.  1.
         -5    1    3    3    0  502  0.23476279341E+02 -0.91311707848E+02  0.35132708786E+02  0.10070125773E+03  0.41800000000E+01 0.  1.
        -11    1    1    2    0    0  0.41028379011E+02  0.12208567147E+02  0.55405144684E+02  0.70015048765E+02  0.00000000000E+00 0. -1.
         11    1    1    2    0    0 -0.41610069591E+02  0.44205872652E+02  0.38220942545E+02  0.71738396395E+02  0.00000000000E+00 0.  1.
</event>
<event>
 7    1  0.2651429E-009  0.1076989E+03  0.7561462E-02  0.1264892E+00
         -1   -1    0    0    0  501 -0.00000000000E+00  0.00000000000E+00  0.50615767841E+02  0.50615767841E+02  0.00000000000E+00 0.  1.
          1   -1    0    0  501    0  0.00000000000E+00 -0.00000000000E+00 -0.89460519008E+03  0.89460519008E+03  0.00000000000E+00 0. -1.
         25    2    1    2    0    0 -0.98759466832E+02  0.27250197194E+02 -0.77625729318E+03  0.79291801723E+03  0.12509033249E+03 0.  0.
          5    1    3    3  502    0 -0.81879403599E+02  0.34480290596E+02 -0.76662043502E+03  0.77176258717E+03  0.41800000000E+01 0. -1.
         -5    1    3    3    0  502 -0.16880063233E+02 -0.72300934021E+01 -0.96368581651E+01  0.21155430051E+02  0.41800000000E+01 0. -1.
        -11    1    1    2    0    0  0.88947905619E+02 -0.12376505820E+02 -0.82196040134E+01  0.90180206811E+02  0.00000000000E+00 0.  1.
         11    1    1    2    0    0  0.98115612128E+01 -0.14873691374E+02 -0.59512525037E+02  0.62122733881E+02  0.00000000000E+00 0. -1.
</event>
<event>
 7    1  0.2651429E-009  0.5544025E+02  0.7561462E-02  0.1418028E+00
          2   -1    0    0  501    0  0.00000000000E+00  0.00000000000E+00  0.11883006006E+03  0.11883006006E+03  0.00000000000E+00 0. -1.
         -2   -1    0    0    0  501 -0.00000000000E+00 -0.00000000000E+00 -0.11685741472E+03  0.11685741472E+03  0.00000000000E+00 0.  1.
         25    2    1    2    0    0 -0.24509947376E+01  0.26946367239E+01  0.54943863221E+02  0.13667120378E+03  0.12508765484E+03 0.  0.
          5    1    3    3  502    0  0.21140310453E+02  0.79254275792E+01 -0.35878380932E+02  0.42596428802E+02  0.41800000000E+01 0. -1.
         -5    1    3    3    0  502 -0.23591305191E+02 -0.52307908553E+01  0.90822244153E+02  0.94074774975E+02  0.41800000000E+01 0. -1.
        -11    1    1    2    0    0 -0.24731228083E+02 -0.19451683158E+02  0.59279896787E+01  0.32017849425E+02  0.00000000000E+00 0. -1.
         11    1    1    2    0    0  0.27182222821E+02  0.16757046434E+02 -0.58899207563E+02  0.66998421580E+02  0.00000000000E+00 0.  1.
</event>
<event>
 7    1  0.2651429E-009  0.1619138E+03  0.7561462E-02  0.1186553E+00
         -1   -1    0    0    0  501 -0.00000000000E+00  0.00000000000E+00  0.85770362581E+02  0.85770362581E+02  0.00000000000E+00 0.  1.
          1   -1    0    0  501    0  0.00000000000E+00 -0.00000000000E+00 -0.36453175377E+03  0.36453175377E+03  0.00000000000E+00 0. -1.
         25    2    1    2    0    0 -0.37913758020E+02 -0.13505361171E+03 -0.14595401445E+03  0.23793947614E+03  0.12504274825E+03 0.  0.
          5    1    3    3  502    0 -0.22968587710E+02 -0.14801737569E+03 -0.15517421559E+03  0.21571557457E+03  0.41800000000E+01 0. -1.
         -5    1    3    3    0  502 -0.14945170311E+02  0.12963763976E+02  0.92202011415E+01  0.22223901573E+02  0.41800000000E+01 0. -1.
        -11    1    1    2    0    0  0.18602086523E+02  0.13305000912E+03 -0.80613070396E+02  0.15667421508E+03  0.00000000000E+00 0.  1.
         11    1    1    2    0    0  0.19311671497E+02  0.20036025853E+01 -0.52194306345E+02  0.55688425136E+02  0.00000000000E+00 0. -1.
</event>
<event>
 7    1  0.2651429E-009  0.1299540E+03  0.7561462E-02  0.1227524E+00
          1   -1    0    0  501    0  0.00000000000E+00  0.00000000000E+00  0.58221659424E+02  0.58221659424E+02  0.00000000000E+00 0. -1.
         -1   -1    0    0    0  501 -0.00000000000E+00 -0.00000000000E+00 -0.41545833730E+03  0.41545833730E+03  0.00000000000E+00 0.  1.
         25    2    1    2    0    0  0.38925136448E+02 -0.10416960939E+03 -0.18046564944E+03  0.24613237929E+03  0.12508726450E+03 0.  0.
          5    1    3    3  502    0  0.40787957012E+02 -0.62675595088E+02 -0.16176855268E+02  0.76622781881E+02  0.41800000000E+01 0. -1.
         -5    1    3    3    0  502 -0.18628205647E+01 -0.41494014300E+02 -0.16428879417E+03  0.16950959741E+03  0.41800000000E+01 0. -1.
        -11    1    1    2    0    0 -0.56165169964E+02  0.23682601360E+02 -0.76891272121E+02  0.98120638261E+02  0.00000000000E+00 0. -1.
         11    1    1    2    0    0  0.17240033517E+02  0.80487008027E+02 -0.99879756319E+02  0.12942697918E+03  0.00000000000E+00 0.  1.
</event>
<event>
 7    1  0.2651429E-009  0.1245787E+03  0.7561462E-02  0.1235729E+00
          1   -1    0    0  501    0  0.00000000000E+00  0.00000000000E+00  0.91164968558E+03  0.91164968558E+03  0.00000000000E+00 0. -1.
         -1   -1    0    0    0  501 -0.00000000000E+00 -0.00000000000E+00 -0.18552445915E+02  0.18552445915E+02  0.00000000000E+00 0.  1.
         25    2    1    2    0    0 -0.44117716996E+02 -0.46097524714E+02  0.37678183525E+03  0.40209764131E+03  0.12508639826E+03 0.  0.
          5    1    3    3  502    0 -0.81557078357E+02 -0.58651318158E+02  0.26103686514E+03  0.27973067675E+03  0.41800000000E+01 0. -1.
         -5    1    3    3    0  502  0.37439361361E+02  0.12553793444E+02  0.11574497011E+03  0.12236696456E+03  0.41800000000E+01 0. -1.
        -11    1    1    2    0    0  0.38845941781E+02  0.72355209061E+02  0.42839453604E+03  0.43619509624E+03  0.00000000000E+00 0.  1.
         11    1    1    2    0    0  0.52717752156E+01 -0.26257684347E+02  0.87920868373E+02  0.91909393952E+02  0.00000000000E+00 0. -1.
</event>
<event>
 7    1  0.2651429E-009  0.9592284E+02  0.7561462E-02  0.1289111E+00
         -1   -1    0    0    0  501 -0.00000000000E+00  0.00000000000E+00  0.16151183544E+03  0.16151183544E+03  0.00000000000E+00 0.  1.
          1   -1    0    0  501    0  0.00000000000E+00 -0.00000000000E+00 -0.10116912817E+03  0.10116912817E+03  0.00000000000E+00 0. -1.
         25    2    1    2    0    0  0.51433795740E+02  0.23030536251E+02  0.37092361513E+01  0.13724971576E+03  0.12509150690E+03 0.  0.
          5    1    3    3  502    0  0.50892885670E+02  0.46930007979E+02  0.49649137380E+02  0.85293731911E+02  0.41800000000E+01 0. -1.
         -5    1    3    3    0  502  0.54091006992E+00 -0.23899471728E+02 -0.45939901228E+02  0.51955983846E+02  0.41800000000E+01 0. -1.
        -11    1    1    2    0    0 -0.27210730304E+02 -0.53066893783E+02  0.34661094348E+01  0.59737199249E+02  0.00000000000E+00 0. -1.
         11    1    1    2    0    0 -0.24223065436E+02  0.30036357533E+02  0.53167361685E+02  0.65694048600E+02  0.00000000000E+00 0.  1.
</event>
<event>
 7    1  0.2651429E-009  0.2026888E+03  0.7561462E-02  0.1147490E+00
         -1   -1    0    0    0  501 -0.00000000000E+00  0.00000000000E+00  0.91580075563E+03  0.91580075563E+03  0.00000000000E+00 0.  1.
          1   -1    0    0  501    0  0.00000000000E+00 -0.00000000000E+00 -0.11511465663E+03  0.11511465663E+03  0.00000000000E+00 0. -1.
         25    2    1    2    0    0 -0.88180662744E+02 -0.17206587003E+03  0.78387822172E+03  0.81700368435E+03  0.12508981112E+03 0.  0.
          5    1    3    3  502    0  0.64524889674E+01 -0.63692184704E+00 -0.12495150724E+01  0.78149837639E+01  0.41800000000E+01 0. -1.
         -5    1    3    3    0  502 -0.94633151712E+02 -0.17142894818E+03  0.78512773679E+03  0.80918870058E+03  0.41800000000E+01 0. -1.
        -11    1    1    2    0    0  0.60908053399E+01  0.72524652768E+02  0.39652511203E+02  0.82880907413E+02  0.00000000000E+00 0. -1.
         11    1    1    2    0    0  0.82089857404E+02  0.99541217258E+02 -0.22844633926E+02  0.13103082050E+03  0.00000000000E+00 0.  1.
</event>
<event>
 7    1  0.2651429E-009  0.1211475E+03  0.7561462E-02  0.1241216E+00
         -2   -1    0    0    0  501 -0.00000000000E+00  0.00000000000E+00  0.40946081662E+02  0.40946081662E+02  0.00000000000E+00 0.  1.
          2   -1    0    0  501    0  0.00000000000E+00 -0.00000000000E+00 -0.43116176149E+03  0.43116176149E+03  0.00000000000E+00 0. -1.
         25    2    1    2    0    0  0.27691083685E+02  0.57124705593E+02 -0.28644753973E+03  0.31895053263E+03  0.12508885299E+03 0.  0.
          5    1    3    3  502    0  0.63251754928E+02 -0.98279213208E+01 -0.12266856384E+03  0.13842839844E+03  0.41800000000E+01 0. -1.
         -5    1    3    3    0  502 -0.35560671242E+02  0.66952626914E+02 -0.16377897589E+03  0.18052213419E+03  0.41800000000E+01 0. -1.
        -11    1    1    2    0    0 -0.43712792082E+02 -0.69413400120E+02 -0.50838169332E+02  0.96506723956E+02  0.00000000000E+00 0.  1.
         11    1    1    2    0    0  0.16021708396E+02  0.12288694527E+02 -0.52929970763E+02  0.56650586564E+02  0.00000000000E+00 0. -1.
</event>
<event>
 7    1  0.2651429E-009  0.9909566E+02  0.7561462E-02  0.1282209E+00
         -1   -1    0    0    0  501 -0.00000000000E+00  0.00000000000E+00  0.31399213612E+03  0.31399213612E+03  0.00000000000E+00 0.  1.
          1   -1    0    0  501    0  0.00000000000E+00 -0.00000000000E+00 -0.49301967511E+02  0.49301967511E+02  0.00000000000E+00 0. -1.
         25    2    1    2    0    0 -0.56596521039E+02 -0.18051292347E+02  0.14511467277E+03  0.20058771175E+03  0.12509255174E+03 0.  0.
          5    1    3    3  502    0  0.98190300724E+01 -0.32379004777E+02  0.12505925346E+03  0.12962292459E+03  0.41800000000E+01 0. -1.
         -5    1    3    3    0  502 -0.66415551111E+02  0.14327712430E+02  0.20055419307E+02  0.70964787159E+02  0.41800000000E+01 0. -1.
        -11    1    1    2    0    0 -0.17251429928E+02  0.13738170656E+02 -0.53697090056E-01  0.22053390916E+02  0.00000000000E+00 0. -1.
         11    1    1    2    0    0  0.73847950967E+02  0.43131216906E+01  0.11962919293E+03  0.14065300097E+03  0.00000000000E+00 0.  1.
</event>
<event>
 7    1  0.2651429E-009  0.1005922E+03  0.7561462E-02  0.1279055E+00
          1   -1    0    0  501    0  0.00000000000E+00  0.00000000000E+00  0.32801932424E+03  0.32801932424E+03  0.00000000000E+00 0. -1.
         -1   -1    0    0    0  501 -0.00000000000E+00 -0.00000000000E+00 -0.36231433739E+02  0.36231433739E+02  0.00000000000E+00 0.  1.
         25    2    1    2    0    0  0.11468848726E+02  0.22728524548E+01  0.16637282752E+03  0.20848193063E+03  0.12509235513E+03 0.  0.
          5    1    3    3  502    0 -0.22630152303E+02 -0.45307442363E+02  0.27641170805E+02  0.57848032380E+02  0.41800000000E+01 0. -1.
         -5    1    3    3    0  502  0.34099001029E+02  0.47580294818E+02  0.13873165672E+03  0.15063389825E+03  0.41800000000E+01 0. -1.
        -11    1    1    2    0    0 -0.45126797527E+02  0.21980324922E+02  0.78127625769E+02  0.92862739821E+02  0.00000000000E+00 0. -1.
         11    1    1    2    0    0  0.33657948802E+02 -0.24253177377E+02  0.47287437209E+02  0.62906087529E+02  0.00000000000E+00 0.  1.
</event>
<event>
 7    1  0.2651429E-009  0.1968779E+03  0.7561462E-02  0.1152400E+00
         -2   -1    0    0    0  501 -0.00000000000E+00  0.00000000000E+00  0.50746117998E+02  0.50746117998E+02  0.00000000000E+00 0. -1.
          2   -1    0    0  501    0  0.00000000000E+00 -0.00000000000E+00 -0.86130689641E+03  0.86130689641E+03  0.00000000000E+00 0.  1.
         25    2    1    2    0    0 -0.17299418744E+03  0.76486863920E+01 -0.51673073234E+03  0.55914599474E+03  0.12509237544E+03 0.  0.
          5    1    3    3  502    0  0.68063285839E+01 -0.17792602949E+02 -0.12421522771E+02  0.23122920587E+02  0.41800000000E+01 0. -1.
         -5    1    3    3    0  502 -0.17980051603E+03  0.25441289341E+02 -0.50430920957E+03  0.53602307415E+03  0.41800000000E+01 0. -1.
        -11    1    1    2    0    0  0.10003696691E+03 -0.46094527478E+02 -0.19715410934E+03  0.22583587634E+03  0.00000000000E+00 0.  1.
         11    1    1    2    0    0  0.72957220530E+02  0.38445841086E+02 -0.96675936736E+02  0.12707114333E+03  0.00000000000E+00 0. -1.
</event>
<event>
 7    1  0.2651429E-009  0.1440239E+03  0.7561462E-02  0.1208015E+00
         -2   -1    0    0    0  501 -0.00000000000E+00  0.00000000000E+00  0.88331564430E+02  0.88331564430E+02  0.00000000000E+00 0. -1.
          2   -1    0    0  501    0  0.00000000000E+00 -0.00000000000E+00 -0.28771602751E+03  0.28771602751E+03  0.00000000000E+00 0.  1.
         25    2    1    2    0    0 -0.10069108308E+03  0.10901506119E+02 -0.17341306565E+03  0.23659773103E+03  0.12509539538E+03 0.  0.
          5    1    3    3  502    0 -0.41332528926E+02 -0.56904428289E+02 -0.83068540613E+02  0.10892358214E+03  0.41800000000E+01 0. -1.
         -5    1    3    3    0  502 -0.59358554155E+02  0.67805934408E+02 -0.90344525038E+02  0.12767414890E+03  0.41800000000E+01 0. -1.
        -11    1    1    2    0    0  0.51621242004E+01 -0.29591510407E+02  0.15313410586E+02  0.33716547246E+02  0.00000000000E+00 0. -1.
         11    1    1    2    0    0  0.95528958881E+02  0.18690004287E+02 -0.41284808020E+02  0.10573331366E+03  0.00000000000E+00 0.  1.
</event>
<event>
 7    1  0.2651429E-009  0.7607443E+02  0.7561462E-02  0.1340576E+00
         -1   -1    0    0    0  501 -0.00000000000E+00  0.00000000000E+00  0.12892746677E+03  0.12892746677E+03  0.00000000000E+00 0.  1.
          1   -1    0    0  501    0  0.00000000000E+00 -0.00000000000E+00 -0.96759062612E+02  0.96759062612E+02  0.00000000000E+00 0. -1.
         25    2    1    2    0    0  0.13424839837E+02  0.22035966899E+02  0.23086984629E+02  0.12978917827E+03  0.12508561777E+03 0.  0.
          5    1    3    3  502    0  0.19111648122E+02 -0.38240735616E+02  0.47797698923E+02  0.64262752639E+02  0.41800000000E+01 0.  1.
         -5    1    3    3    0  502 -0.56868082841E+01  0.60276702515E+02 -0.24710714294E+02  0.65526425627E+02  0.41800000000E+01 0.  1.
        -11    1    1    2    0    0 -0.17292342235E+02  0.74056573138E+01  0.45306718911E+02  0.49056779743E+02  0.00000000000E+00 0.  1.
         11    1    1    2    0    0  0.38675023973E+01 -0.29441624213E+02 -0.36225299384E+02  0.46840571373E+02  0.00000000000E+00 0. -1.
</event>
<event>
 7    1  0.2651429E-009  0.1610622E+03  0.7561462E-02  0.1187503E+00
         -1   -1    0    0    0  501 -0.00000000000E+00  0.00000000000E+00  0.13079189874E+03  0.13079189874E+03  0.00000000000E+00 0.  1.
          1   -1    0    0  501    0  0.00000000000E+00 -0.00000000000E+00 -0.23288756884E+03  0.23288756884E+03  0.00000000000E+00 0. -1.
         25    2    1    2    0    0 -0.12919891493E+03  0.40890208095E+02 -0.78100360928E+02  0.20027720642E+03  0.12508766645E+03 0.  0.
          5    1    3    3  502    0 -0.14193312383E+03  0.29289973749E+02 -0.28705934355E+02  0.14779856992E+03  0.41800000000E+01 0. -1.
         -5    1    3    3    0  502  0.12734208898E+02  0.11600234346E+02 -0.49394426573E+02  0.52478636506E+02  0.41800000000E+01 0. -1.
        -11    1    1    2    0    0  0.82587139552E+02 -0.66678597546E+02 -0.31273597367E+01  0.10619063692E+03  0.00000000000E+00 0. -1.
         11    1    1    2    0    0  0.46611775381E+02  0.25788389452E+02 -0.20867949434E+02  0.57211624240E+02  0.00000000000E+00 0.  1.
</event>
<event>
 7    1  0.2651429E-009  0.2263674E+03  0.7561462E-02  0.1129223E+00
          3   -1    0    0  501    0  0.00000000000E+00  0.00000000000E+00  0.72518727158E+03  0.72518727158E+03  0.00000000000E+00 0. -1.
         -3   -1    0    0    0  501 -0.00000000000E+00 -0.00000000000E+00 -0.91251082621E+02  0.91251082621E+02  0.00000000000E+00 0.  1.
         25    2    1    2    0    0  0.20155712421E+03  0.92111673276E+02  0.21142703663E+03  0.33084588828E+03  0.12509106803E+03 0.  0.
          5    1    3    3  502    0  0.10574591513E+03  0.78710362509E+02  0.46982040353E+02  0.14000822922E+03  0.41800000000E+01 0.  1.
         -5    1    3    3    0  502  0.95811209080E+02  0.13401310766E+02  0.16444499628E+03  0.19083765906E+03  0.41800000000E+01 0.  1.
        -11    1    1    2    0    0 -0.43640027696E+02 -0.35490224654E+02  0.43475460538E+02  0.71092360576E+02  0.00000000000E+00 0.  1.
         11    1    1    2    0    0 -0.15791709652E+03 -0.56621448622E+02  0.37903369179E+03  0.41450010534E+03  0.00000000000E+00 0. -1.
</event>
<event>
 7    1  0.2651429E-009  0.9246054E+02  0.7561462E-02  0.1297000E+00
          2   -1    0    0  501    0  0.00000000000E+00  0.00000000000E+00  0.52376043197E+02  0.52376043197E+02  0.00000000000E+00 0. -1.
         -2   -1    0    0    0  501 -0.00000000000E+00 -0.00000000000E+00 -0.25858872106E+03  0.25858872106E+03  0.00000000000E+00 0.  1.
         25    2    1    2    0    0  0.82115500600E+01 -0.36619934646E+02 -0.93547708408E+02  0.16064683801E+03  0.12509110138E+03 0.  0.
          5    1    3    3  502    0 -0.81724546167E+01 -0.78154677946E+02 -0.33073716804E+02  0.85359743689E+02  0.41800000000E+01 0. -1.
         -5    1    3    3    0  502  0.16384004677E+02  0.41534743301E+02 -0.60473991604E+02  0.75287094318E+02  0.41800000000E+01 0. -1.
        -11    1    1    2    0    0 -0.59124352294E+01  0.48715207546E+02 -0.12414020283E+03  0.13348752112E+03  0.00000000000E+00 0.  1.
         11    1    1    2    0    0 -0.22991148307E+01 -0.12095272900E+02  0.11475233380E+02  0.16830405124E+02  0.00000000000E+00 0. -1.
</event>
<event>
 7    1  0.2651429E-009  0.1036042E+03  0.7561462E-02  0.1272894E+00
          2   -1    0    0  501    0  0.00000000000E+00  0.00000000000E+00  0.38643567761E+03  0.38643567761E+03  0.00000000000E+00 0. -1.
         -2   -1    0    0    0  501 -0.00000000000E+00 -0.00000000000E+00 -0.38867963654E+02  0.38867963654E+02  0.00000000000E+00 0.  1.
         25    2    1    2    0    0  0.28409473585E+02 -0.48753429897E+02  0.18718094197E+03  0.23209484842E+03  0.12508924220E+03 0.  0.
          5    1    3    3  502    0  0.58495342562E+02 -0.64177149880E+02  0.74872813110E+02  0.11473370129E+03  0.41800000000E+01 0. -1.
         -5    1    3    3    0  502 -0.30085868977E+02  0.15423719983E+02  0.11230812886E+03  0.11736114714E+03  0.41800000000E+01 0. -1.
        -11    1    1    2    0    0  0.63195755482E+01  0.51013418556E+02  0.14732629286E+03  0.15603634985E+03  0.00000000000E+00 0.  1.
         11    1    1    2    0    0 -0.34729049133E+02 -0.22599886593E+01  0.13060479129E+02  0.37172442985E+02  0.00000000000E+00 0. -1.
</event>
<event>
 7    1  0.2651429E-009  0.9966181E+02  0.7561462E-02  0.1281009E+00
          2   -1    0    0  501    0  0.00000000000E+00  0.00000000000E+00  0.21237447236E+03  0.21237447236E+03  0.00000000000E+00 0. -1.
         -2   -1    0    0    0  501 -0.00000000000E+00 -0.00000000000E+00 -0.79237247629E+02  0.79237247629E+02  0.00000000000E+00 0.  1.
         25    2    1    2    0    0 -0.55835079458E+02 -0.44530587096E+02  0.79290538722E+02  0.16442249528E+03  0.12508892092E+03 0.  0.
          5    1    3    3  502    0 -0.14822887255E+02  0.90031782827E+01 -0.30600594770E+02  0.35420954335E+02  0.41800000000E+01 0.  1.
         -5    1    3    3    0  502 -0.41012192203E+02 -0.53533765379E+02  0.10989113349E+03  0.12900154094E+03  0.41800000000E+01 0.  1.
        -11    1    1    2    0    0 -0.11762321913E+02  0.44800551439E+02  0.31411975396E+02  0.55965648610E+02  0.00000000000E+00 0. -1.
         11    1    1    2    0    0  0.67597401371E+02 -0.26996434324E+00  0.22434710616E+02  0.71223576106E+02  0.00000000000E+00 0.  1.
</event>
<event>
 7    1  0.2651429E-009  0.7250623E+02  0.7561462E-02  0.1351772E+00
          4   -1    0    0  501    0  0.00000000000E+00  0.00000000000E+00  0.34898083615E+03  0.34898083615E+03  0.00000000000E+00 0. -1.
         -4   -1    0    0    0  501 -0.00000000000E+00 -0.00000000000E+00 -0.41469742573E+02  0.41469742573E+02  0.00000000000E+00 0.  1.
         25    2    1    2    0    0 -0.42936157748E+02  0.20847557966E+02  0.21744649961E+03  0.25536099459E+03  0.12509245801E+03 0.  0.
          5    1    3    3  502    0 -0.64563369630E+01  0.45990666364E+01  0.21494331610E+03  0.21513004727E+03  0.41800000000E+01 0. -1.
         -5    1    3    3    0  502 -0.36479820785E+02  0.16248491329E+02  0.25031835089E+01  0.40230947325E+02  0.41800000000E+01 0. -1.
        -11    1    1    2    0    0  0.43845258761E+02 -0.50131399206E+02  0.80038478291E+02  0.10412358959E+03  0.00000000000E+00 0. -1.
         11    1    1    2    0    0 -0.90910101333E+00  0.29283841240E+02  0.10026115679E+02  0.30965994543E+02  0.00000000000E+00 0.  1.
</event>
<event>
 7    1  0.2932352E-009  0.1100128E+03  0.7561462E-02  0.1260546E+00
          1   -1    0    0  501    0  0.00000000000E+00  0.00000000000E+00  0.21360206493E+04  0.21360206493E+04  0.00000000000E+00 0. -1.
         -1   -1    0    0    0  501 -0.00000000000E+00 -0.00000000000E+00 -0.91650049835E+01  0.91650049835E+01  0.00000000000E+00 0.  1.
         25    2    1    2    0    0  0.60478692966E+02 -0.14851140371E+02  0.16333839618E+04  0.16393502385E+04  0.12509120246E+03 0.  0.
          5    1    3    3  502    0  0.79631008718E+02 -0.32225203757E+02  0.15389291407E+04  0.15413305725E+04  0.41800000000E+01 0.  1.
         -5    1    3    3    0  502 -0.19152315752E+02  0.17374063386E+02  0.94454821161E+02  0.98019665975E+02  0.41800000000E+01 0.  1.
        -11    1    1    2    0    0 -0.13186480570E+02  0.48191017921E+02  0.29099859911E+03  0.29525657006E+03  0.00000000000E+00 0.  1.
         11    1    1    2    0    0 -0.47292212396E+02 -0.33339877549E+02  0.20247308338E+03  0.21057884576E+03  0.00000000000E+00 0. -1.
</event>
<event>
 7    1  0.2651429E-009  0.1550320E+03  0.7561462E-02  0.1194423E+00
          1   -1    0    0  501    0  0.00000000000E+00  0.00000000000E+00  0.64898285472E+02  0.64898285472E+02  0.00000000000E+00 0.  1.
         -1   -1    0    0    0  501 -0.00000000000E+00 -0.00000000000E+00 -0.51065371306E+03  0.51065371306E+03  0.00000000000E+00 0. -1.
         25    2    1    2    0    0 -0.25149166870E+02  0.13846650192E+03 -0.18281427921E+03  0.26243935677E+03  0.12509157667E+03 0.  0.
          5    1    3    3  502    0 -0.81847727790E+01  0.76390894107E+02 -0.95117377353E+01  0.77527445222E+02  0.41800000000E+01 0.  1.
         -5    1    3    3    0  502 -0.16964394091E+02  0.62075607808E+02 -0.17330254148E+03  0.18491191155E+03  0.41800000000E+01 0.  1.
        -11    1    1    2    0    0 -0.19208010310E+02  0.38288591099E+01 -0.19304360621E+02  0.27500293837E+02  0.00000000000E+00 0.  1.
         11    1    1    2    0    0  0.44357177179E+02 -0.14229536103E+03 -0.24363678775E+03  0.28561234792E+03  0.00000000000E+00 0. -1.
</event>
<event>
 7    1  0.2651429E-009  0.1009739E+03  0.7561462E-02  0.1278261E+00
         -1   -1    0    0    0  501 -0.00000000000E+00  0.00000000000E+00  0.40061090649E+02  0.40061090649E+02  0.00000000000E+00 0.  1.
          1   -1    0    0  501    0  0.00000000000E+00 -0.00000000000E+00 -0.35226510492E+03  0.35226510492E+03  0.00000000000E+00 0. -1.
         25    2    1    2    0    0  0.36315621486E+02  0.22965694212E+02 -0.21337067262E+03  0.25103401568E+03  0.12507911743E+03 0.  0.
          5    1    3    3  502    0 -0.44609017538E+02 -0.78831940030E+01 -0.70012550566E+02  0.83494543715E+02  0.41800000000E+01 0. -1.
         -5    1    3    3    0  502  0.80924639025E+02  0.30848888215E+02 -0.14335812206E+03  0.16753947196E+03  0.41800000000E+01 0. -1.
        -11    1    1    2    0    0 -0.73722436780E+01 -0.36897895442E+02 -0.10228391821E+03  0.10898534116E+03  0.00000000000E+00 0. -1.
         11    1    1    2    0    0 -0.28943377808E+02  0.13932201230E+02  0.34505765582E+01  0.32306838729E+02  0.00000000000E+00 0.  1.
</event>
<event>
 7    1  0.2651429E-009  0.1269548E+03  0.7561462E-02  0.1232045E+00
         -1   -1    0    0    0  501 -0.00000000000E+00  0.00000000000E+00  0.56033788748E+02  0.56033788748E+02  0.00000000000E+00 0.  1.
          1   -1    0    0  501    0  0.00000000000E+00 -0.00000000000E+00 -0.37616904373E+03  0.37616904373E+03  0.00000000000E+00 0. -1.
         25    2    1    2    0    0  0.48839255014E+02  0.78299987431E+02 -0.13303417418E+03  0.20460098594E+03  0.12508921251E+03 0.  0.
          5    1    3    3  502    0  0.74092684685E+02  0.24187133923E+01 -0.76255162677E+02  0.10643259995E+03  0.41800000000E+01 0.  1.
         -5    1    3    3    0  502 -0.25253429671E+02  0.75881274039E+02 -0.56779011506E+02  0.98168385988E+02  0.41800000000E+01 0.  1.
        -11    1    1    2    0    0 -0.53156733652E+02 -0.57387034174E+02 -0.59643823442E+02  0.98368164051E+02  0.00000000000E+00 0.  1.
         11    1    1    2    0    0  0.43174786382E+01 -0.20912953257E+02 -0.12745725736E+03  0.12923368249E+03  0.00000000000E+00 0. -1.
</event>
<event>
 7    1  0.2651429E-009  0.1206706E+03  0.7561462E-02  0.1241995E+00
         -3   -1    0    0    0  501 -0.00000000000E+00  0.00000000000E+00  0.88769625048E+02  0.88769625048E+02  0.00000000000E+00 0.  1.
          3   -1    0    0  501    0  0.00000000000E+00 -0.00000000000E+00 -0.27850665306E+03  0.27850665306E+03  0.00000000000E+00 0. -1.
         25    2    1    2    0    0  0.31581268420E+02 -0.87250595643E+02 -0.26073983661E+02  0.15791333095E+03  0.12508686786E+03 0.  0.
          5    1    3    3  502    0 -0.40003147403E+02 -0.28002292790E+02  0.21405380438E+02  0.53479369063E+02  0.41800000000E+01 0.  1.
         -5    1    3    3    0  502  0.71584415823E+02 -0.59248302853E+02 -0.47479364099E+02  0.10443396188E+03  0.41800000000E+01 0.  1.
        -11    1    1    2    0    0 -0.30810208792E+01  0.59356425269E+02 -0.15834275881E+03  0.16913044427E+03  0.00000000000E+00 0. -1.
         11    1    1    2    0    0 -0.28500247541E+02  0.27894170373E+02 -0.53202855385E+01  0.40232502891E+02  0.00000000000E+00 0.  1.
</event>
<event>
 7    1  0.2651429E-009  0.1159020E+03  0.7561462E-02  0.1250015E+00
         -2   -1    0    0    0  501 -0.00000000000E+00  0.00000000000E+00  0.88207319832E+01  0.88207319832E+01  0.00000000000E+00 0.  1.
          2   -1    0    0  501    0  0.00000000000E+00 -0.00000000000E+00 -0.18834146653E+04  0.18834146653E+04  0.00000000000E+00 0. -1.
         25    2    1    2    0    0 -0.39287829821E+02  0.16462586067E+02 -0.14436714257E+04  0.14497066869E+04  0.12509093644E+03 0.  0.
          5    1    3    3  502    0 -0.14674260626E+02  0.70357744606E+02 -0.71323266552E+03  0.71685692695E+03  0.41800000000E+01 0. -1.
         -5    1    3    3    0  502 -0.24613569195E+02 -0.53895158539E+02 -0.73043876017E+03  0.73284975996E+03  0.41800000000E+01 0. -1.
        -11    1    1    2    0    0  0.67978128638E+02 -0.13605940121E+01 -0.27619913992E+03  0.28444479619E+03  0.00000000000E+00 0. -1.
         11    1    1    2    0    0 -0.28690298817E+02 -0.15101992055E+02 -0.15472336768E+03  0.15808391416E+03  0.00000000000E+00 0.  1.
</event>
<event>
 7    1  0.2651429E-009  0.1083263E+03  0.7561462E-02  0.1263701E+00
          1   -1    0    0  501    0  0.00000000000E+00  0.00000000000E+00  0.13514038316E+03  0.13514038316E+03  0.00000000000E+00 0. -1.
         -1   -1    0    0    0  501 -0.00000000000E+00 -0.00000000000E+00 -0.11119077355E+03  0.11119077355E+03  0.00000000000E+00 0.  1.
         25    2    1    2    0    0  0.34723423687E+00 -0.38100408356E+00 -0.40970009245E+02  0.13162825507E+03  0.12508872906E+03 0.  0.
          5    1    3    3  502    0 -0.36905340923E+02 -0.50384879154E+02 -0.20443662477E+02  0.65848735535E+02  0.41800000000E+01 0.  1.
         -5    1    3    3    0  502  0.37252575160E+02  0.50003875071E+02 -0.20526346768E+02  0.65779519531E+02  0.41800000000E+01 0.  1.
        -11    1    1    2    0    0  0.43333475144E+02  0.14438967394E+02  0.46721558591E+02  0.65338946155E+02  0.00000000000E+00 0.  1.
         11    1    1    2    0    0 -0.43680709381E+02 -0.14057963310E+02  0.18198060266E+02  0.49363955493E+02  0.00000000000E+00 0. -1.
</event>
<event>
 7    1  0.2651429E-009  0.1472887E+03  0.7561462E-02  0.1203845E+00
          1   -1    0    0  501    0  0.00000000000E+00  0.00000000000E+00  0.16852328314E+03  0.16852328314E+03  0.00000000000E+00 0. -1.
         -1   -1    0    0    0  501 -0.00000000000E+00 -0.00000000000E+00 -0.16601679858E+03  0.16601679858E+03  0.00000000000E+00 0.  1.
         25    2    1    2    0    0  0.81504345534E+02  0.93318083715E+02 -0.38339926961E+02  0.18019061553E+03  0.12508990701E+03 0.  0.
          5    1    3    3  502    0  0.72924083470E+02  0.11898950692E+03 -0.52737572897E+02  0.14924861374E+03  0.41800000000E+01 0.  1.
         -5    1    3    3    0  502  0.85802620643E+01 -0.25671423206E+02  0.14397645935E+02  0.30942001794E+02  0.41800000000E+01 0.  1.
        -11    1    1    2    0    0 -0.50594399405E+02 -0.34858168776E+02  0.59615446698E+02  0.85608916980E+02  0.00000000000E+00 0. -1.
         11    1    1    2    0    0 -0.30909946129E+02 -0.58459914939E+02 -0.18769035179E+02  0.68740549212E+02  0.00000000000E+00 0.  1.
</event>
<event>
 7    1  0.2651429E-009  0.1508947E+03  0.7561462E-02  0.1199378E+00
          2   -1    0    0  501    0  0.00000000000E+00  0.00000000000E+00  0.83796133769E+03  0.83796133769E+03  0.00000000000E+00 0. -1.
         -2   -1    0    0    0  501 -0.00000000000E+00 -0.00000000000E+00 -0.29405122957E+02  0.29405122957E+02  0.00000000000E+00 0.  1.
         25    2    1    2    0    0 -0.52366940363E+02 -0.89636825850E+02  0.32381434774E+03  0.36232341154E+03  0.12508183622E+03 0.  0.
          5    1    3    3  502    0  0.17096379072E+01  0.29313298180E+02  0.85617825215E+02  0.90609473603E+02  0.41800000000E+01 0.  1.
         -5    1    3    3    0  502 -0.54076578270E+02 -0.11895012403E+03  0.23819652253E+03  0.27171393794E+03  0.41800000000E+01 0.  1.
        -11    1    1    2    0    0  0.27946089323E+02 -0.16523299373E+02  0.12697921878E+03  0.13106382160E+03  0.00000000000E+00 0. -1.
         11    1    1    2    0    0  0.24420851040E+02  0.10616012522E+03  0.35776264820E+03  0.37397922750E+03  0.00000000000E+00 0.  1.
</event>
<event>
 7    1  0.2651429E-009  0.1325295E+03  0.7561462E-02  0.1223750E+00
          1   -1    0    0  501    0  0.00000000000E+00  0.00000000000E+00  0.54647686419E+03  0.54647686419E+03  0.00000000000E+00 0.  1.
         -1   -1    0    0    0  501 -0.00000000000E+00 -0.00000000000E+00 -0.59454351804E+02  0.59454351804E+02  0.00000000000E+00 0. -1.
         25    2    1    2    0    0  0.81995138627E+02  0.28033570596E+02  0.44597814219E+03  0.47122510227E+03  0.12509000702E+03 0.  0.
          5    1    3    3  502    0  0.10639649634E+03  0.35769336731E+01  0.39762950937E+03  0.41165484087E+03  0.41800000000E+01 0. -1.
         -5    1    3    3    0  502 -0.24401357710E+02  0.24456636923E+02  0.48348632822E+02  0.59570261401E+02  0.41800000000E+01 0. -1.
        -11    1    1    2    0    0  0.13472527883E+02 -0.24770366879E+02  0.25320256939E+02  0.37897170004E+02  0.00000000000E+00 0.  1.
         11    1    1    2    0    0 -0.95467666510E+02 -0.32632037169E+01  0.15724113258E+02  0.96808943725E+02  0.00000000000E+00 0. -1.
</event>
<event>
 7    1  0.2651429E-009  0.8089286E+02  0.7561462E-02  0.1326537E+00
         -2   -1    0    0    0  501 -0.00000000000E+00  0.00000000000E+00  0.40173757221E+03  0.40173757221E+03  0.00000000000E+00 0.  1.
          2   -1    0    0  501    0  0.00000000000E+00 -0.00000000000E+00 -0.48162283287E+02  0.48162283287E+02  0.00000000000E+00 0. -1.
         25    2    1    2    0    0  0.72913955563E+01 -0.22252931240E+02  0.32992330033E+03  0.35361815321E+03  0.12509219314E+03 0.  0.
          5    1    3    3  502    0 -0.27921973334E+02 -0.61971236763E+02  0.13038241431E+03  0.14709560544E+03  0.41800000000E+01 0.  1.
         -5    1    3    3    0  502  0.35213368891E+02  0.39718305523E+02  0.19954088602E+03  0.20652254777E+03  0.41800000000E+01 0.  1.
        -11    1    1    2    0    0 -0.20368759487E+02  0.10783643844E+02  0.55443388595E+02  0.60042840344E+02  0.00000000000E+00 0.  1.
         11    1    1    2    0    0  0.13077363931E+02  0.11469287396E+02 -0.31791400000E+02  0.36238861940E+02  0.00000000000E+00 0. -1.
</event>
<event>
 7    1  0.2682748E-009  0.1165806E+03  0.7561462E-02  0.1248847E+00
          2   -1    0    0  501    0  0.00000000000E+00  0.00000000000E+00  0.40299298352E+03  0.40299298352E+03  0.00000000000E+00 0. -1.
         -2   -1    0    0    0  501 -0.00000000000E+00 -0.00000000000E+00 -0.66680338331E+02  0.66680338331E+02  0.00000000000E+00 0.  1.
         25    2    1    2    0    0  0.10324551485E+03 -0.42156343420E+02  0.25351913010E+03  0.30390117411E+03  0.12508869121E+03 0.  0.
          5    1    3    3  502    0  0.36332405945E+02 -0.65796494021E+01 -0.21331662792E+01  0.37220401749E+02  0.41800000000E+01 0. -1.
         -5    1    3    3    0  502  0.66913108905E+02 -0.35576694018E+02  0.25565229638E+03  0.26668077236E+03  0.41800000000E+01 0. -1.
        -11    1    1    2    0    0 -0.31017943277E+02  0.36140342685E+02 -0.93546828761E+01  0.48536040900E+02  0.00000000000E+00 0.  1.
         11    1    1    2    0    0 -0.72227571573E+02  0.60160007347E+01  0.92148197967E+02  0.11723610685E+03  0.00000000000E+00 0. -1.
</event>
<event>
 7    1  0.2651429E-009  0.1908130E+03  0.7561462E-02  0.1157730E+00
          2   -1    0    0  501    0  0.00000000000E+00  0.00000000000E+00  0.84292900642E+02  0.84292900642E+02  0.00000000000E+00 0. -1.
         -2   -1    0    0    0  501 -0.00000000000E+00 -0.00000000000E+00 -0.45323040166E+03  0.45323040166E+03  0.00000000000E+00 0.  1.
         25    2    1    2    0    0 -0.96767526123E+02  0.12510013539E+03 -0.15333392374E+03  0.25332343517E+03  0.12508985830E+03 0.  0.
          5    1    3    3  502    0  0.21796762126E+02 -0.72740343516E+01 -0.24039424646E+02  0.33516812979E+02  0.41800000000E+01 0.  1.
         -5    1    3    3    0  502 -0.11856428825E+03  0.13237416974E+03 -0.12929449910E+03  0.21980662219E+03  0.41800000000E+01 0.  1.
        -11    1    1    2    0    0  0.75650244901E+02 -0.13683426428E+03 -0.20498982102E+03  0.25781272691E+03  0.00000000000E+00 0.  1.
         11    1    1    2    0    0  0.21117281223E+02  0.11734128892E+02 -0.10613756256E+02  0.26387140220E+02  0.00000000000E+00 0. -1.
</event>
<event>
 7    1  0.2651429E-009  0.1109702E+03  0.7561462E-02  0.1258784E+00
          2   -1    0    0  501    0  0.00000000000E+00  0.00000000000E+00  0.50117716404E+02  0.50117716404E+02  0.00000000000E+00 0. -1.
         -2   -1    0    0    0  501 -0.00000000000E+00 -0.00000000000E+00 -0.37449061602E+03  0.37449061602E+03  0.00000000000E+00 0.  1.
         25    2    1    2    0    0  0.83041912962E+02 -0.10161481447E+02 -0.19579089030E+03  0.24694331931E+03  0.12509082785E+03 0.  0.
          5    1    3    3  502    0  0.30066297620E+02  0.21760732327E+02  0.41813698763E+01  0.37582814929E+02  0.41800000000E+01 0. -1.
         -5    1    3    3    0  502  0.52975615342E+02 -0.31922213773E+02 -0.19997226018E+03  0.20936050438E+03  0.41800000000E+01 0. -1.
        -11    1    1    2    0    0 -0.25099289588E+01 -0.31726198726E+02 -0.32794648505E+02  0.45698363205E+02  0.00000000000E+00 0.  1.
         11    1    1    2    0    0 -0.80531984003E+02  0.41887680173E+02 -0.95787360805E+02  0.13196664991E+03  0.00000000000E+00 0. -1.
</event>
<event>
 7    1  0.2651429E-009  0.1541457E+03  0.7561462E-02  0.1195469E+00
          2   -1    0    0  501    0  0.00000000000E+00  0.00000000000E+00  0.12058545168E+04  0.12058545168E+04  0.00000000000E+00 0.  1.
         -2   -1    0    0    0  501 -0.00000000000E+00 -0.00000000000E+00 -0.26195756703E+02  0.26195756703E+02  0.00000000000E+00 0. -1.
         25    2    1    2    0    0 -0.11412341065E+03  0.32966012676E+02  0.87457284239E+03  0.89142368976E+03  0.12509047592E+03 0.  0.
          5    1    3    3  502    0 -0.74769650371E+02 -0.32467453897E+02  0.27097263930E+03  0.28299872761E+03  0.41800000000E+01 0. -1.
         -5    1    3    3    0  502 -0.39353760275E+02  0.65433466573E+02  0.60360020309E+03  0.60842496215E+03  0.41800000000E+01 0. -1.
        -11    1    1    2    0    0  0.13028837666E+03 -0.30903037874E+02  0.28394017808E+03  0.31393006159E+03  0.00000000000E+00 0.  1.
         11    1    1    2    0    0 -0.16164966011E+02 -0.20629748025E+01  0.21145739666E+02  0.26696522193E+02  0.00000000000E+00 0. -1.
</event>
<event>
 7    1  0.2651429E-009  0.1163940E+03  0.7561462E-02  0.1249167E+00
          1   -1    0    0  501    0  0.00000000000E+00  0.00000000000E+00  0.17011596439E+02  0.17011596439E+02  0.00000000000E+00 0.  1.
         -1   -1    0    0    0  501 -0.00000000000E+00 -0.00000000000E+00 -0.14428462372E+04  0.14428462372E+04  0.00000000000E+00 0. -1.
         25    2    1    2    0    0 -0.67699413207E+02  0.35448457938E+02 -0.11493509993E+04  0.11586600861E+04  0.12508265990E+03 0.  0.
          5    1    3    3  502    0 -0.91821870335E+02  0.29241037225E+02 -0.10886441733E+04  0.10929089178E+04  0.41800000000E+01 0.  1.
         -5    1    3    3    0  502  0.24122457129E+02  0.62074207127E+01 -0.60706825906E+02  0.65751168213E+02  0.41800000000E+01 0.  1.
        -11    1    1    2    0    0 -0.16026094943E+02  0.66628578317E+01 -0.98798486700E+02  0.10031136709E+03  0.00000000000E+00 0.  1.
         11    1    1    2    0    0  0.83725508150E+02 -0.42111315770E+02 -0.17768515484E+03  0.20088638053E+03  0.00000000000E+00 0. -1.
</event>
<event>
 7    1  0.2651429E-009  0.2039174E+03  0.7561462E-02  0.1146475E+00
         -1   -1    0    0    0  501 -0.00000000000E+00  0.00000000000E+00  0.10392521414E+03  0.10392521414E+03  0.00000000000E+00 0.  1.
          1   -1    0    0  501    0  0.00000000000E+00 -0.00000000000E+00 -0.82643100436E+03  0.82643100436E+03  0.00000000000E+00 0. -1.
         25    2    1    2    0    0 -0.15217338810E+03  0.13298221236E+03 -0.80792039027E+02  0.25103050339E+03  0.12509177115E+03 0.  0.
          5    1    3    3  502    0 -0.66015717135E+01  0.12841254057E+02  0.28978705386E+02  0.32645310853E+02  0.41800000000E+01 0. -1.
         -5    1    3    3    0  502 -0.14557181639E+03  0.12014095830E+03 -0.10977074441E+03  0.21838519253E+03  0.41800000000E+01 0. -1.
        -11    1    1    2    0    0  0.44555993759E+02 -0.56643268824E+02 -0.11014763540E+03  0.13162901682E+03  0.00000000000E+00 0.  1.
         11    1    1    2    0    0  0.10761739434E+03 -0.76338943536E+02 -0.53156611579E+03  0.54769669830E+03  0.00000000000E+00 0. -1.
</event>
<event>
 7    1  0.2664335E-009  0.1196043E+03  0.7561462E-02  0.1243751E+00
         -2   -1    0    0    0  501 -0.00000000000E+00  0.00000000000E+00  0.50174288771E+02  0.50174288771E+02  0.00000000000E+00 0.  1.
          2   -1    0    0  501    0  0.00000000000E+00 -0.00000000000E+00 -0.34426725750E+03  0.34426725750E+03  0.00000000000E+00 0. -1.
         25    2    1    2    0    0 -0.56601908549E+02 -0.33454792318E+02 -0.21313220107E+03  0.25572716506E+03  0.12509216057E+03 0.  0.
          5    1    3    3  502    0 -0.11192619056E+02 -0.68209848285E+02 -0.57967735930E+02  0.90308299360E+02  0.41800000000E+01 0. -1.
         -5    1    3    3    0  502 -0.45409289493E+02  0.34755055967E+02 -0.15516446514E+03  0.16541886570E+03  0.41800000000E+01 0. -1.
        -11    1    1    2    0    0  0.59512981841E+02 -0.17151005603E+02 -0.45537699599E+02  0.76874144454E+02  0.00000000000E+00 0.  1.
         11    1    1    2    0    0 -0.29110732917E+01  0.50605797921E+02 -0.35423068055E+02  0.61840236751E+02  0.00000000000E+00 0. -1.
</event>
<event>
 7    1  0.2651429E-009  0.1298412E+03  0.7561462E-02  0.1227692E+00
         -1   -1    0    0    0  501 -0.00000000000E+00  0.00000000000E+00  0.22906622869E+02  0.22906622869E+02  0.00000000000E+00 0.  1.
          1   -1    0    0  501    0  0.00000000000E+00 -0.00000000000E+00 -0.12096246783E+04  0.12096246783E+04  0.00000000000E+00 0. -1.
         25    2    1    2    0    0  0.43966511725E+02  0.71740991392E+02 -0.97729457433E+03  0.98885383373E+03  0.12508954980E+03 0.  0.
          5    1    3    3  502    0  0.32919568050E+02  0.99656872778E+02 -0.51698434481E+03  0.52754665711E+03  0.41800000000E+01 0.  1.
         -5    1    3    3    0  502  0.11046943675E+02 -0.27915881386E+02 -0.46031022952E+03  0.46130717662E+03  0.41800000000E+01 0.  1.
        -11    1    1    2    0    0 -0.20312382639E+02  0.20648463045E+02 -0.42517133102E+02  0.51445685162E+02  0.00000000000E+00 0.  1.
         11    1    1    2    0    0 -0.23654129086E+02 -0.92389454437E+02 -0.16690634799E+03  0.19223178226E+03  0.00000000000E+00 0. -1.
</event>
<event>
 7    1  0.2651429E-009  0.1164791E+03  0.7561462E-02  0.1249021E+00
          1   -1    0    0  501    0  0.00000000000E+00  0.00000000000E+00  0.35303205092E+03  0.35303205092E+03  0.00000000000E+00 0. -1.
         -1   -1    0    0    0  501 -0.00000000000E+00 -0.00000000000E+00 -0.62859489423E+02  0.62859489423E+02  0.00000000000E+00 0.  1.
         25    2    1    2    0    0 -0.81965139944E+02  0.58074477358E+02  0.17972945890E+03  0.24091662752E+03  0.12508882417E+03 0.  0.
          5    1    3    3  502    0 -0.93905947384E+02  0.67758609746E+02  0.18957772356E+03  0.22218627730E+03  0.41800000000E+01 0.  1.
         -5    1    3    3    0  502  0.11940807441E+02 -0.96841323882E+01 -0.98482646641E+01  0.18730350219E+02  0.41800000000E+01 0.  1.
        -11    1    1    2    0    0  0.12801170639E+02 -0.14784458357E+02 -0.15470192302E+02  0.24935457255E+02  0.00000000000E+00 0.  1.
         11    1    1    2    0    0  0.69163969304E+02 -0.43290019001E+02  0.12591329490E+03  0.15003945557E+03  0.00000000000E+00 0. -1.
</event>
<event>
 7    1  0.2651429E-009  0.6352490E+02  0.7561462E-02  0.1383608E+00
          3   -1    0    0  501    0  0.00000000000E+00  0.00000000000E+00  0.25876399005E+03  0.25876399005E+03  0.00000000000E+00 0. -1.
         -3   -1    0    0    0  501 -0.00000000000E+00 -0.00000000000E+00 -0.46379956319E+02  0.46379956319E+02  0.00000000000E+00 0.  1.
         25    2    1    2    0    0 -0.17545610427E+02 -0.50749022643E+01  0.13043867000E+03  0.18164599849E+03  0.12508964409E+03 0.  0.
          5    1    3    3  502    0  0.15451326567E+02  0.26437999086E+02 -0.11128718821E+02  0.32848623578E+02  0.41800000000E+01 0. -1.
         -5    1    3    3    0  502 -0.32996936994E+02 -0.31512901351E+02  0.14156738882E+03  0.14879737491E+03  0.41800000000E+01 0. -1.
        -11    1    1    2    0    0 -0.16122943025E+02  0.41298391302E+01  0.87754499589E+02  0.89318850536E+02  0.00000000000E+00 0. -1.
         11    1    1    2    0    0  0.33668553452E+02  0.94506313416E+00 -0.58091358569E+01  0.34179097344E+02  0.00000000000E+00 0.  1.
</event>
<event>
 6    1  0.2651429E-009  0.2134141E+03  0.7561462E-02  0.1138891E+00
         -1   -1    0    0    0  501 -0.00000000000E+00  0.00000000000E+00  0.14406286683E+03  0.14406286683E+03  0.00000000000E+00 0.  1.
          1   -1    0    0  501    0  0.00000000000E+00 -0.00000000000E+00 -0.34799262109E+03  0.34799262109E+03  0.00000000000E+00 0. -1.
          5    1    1    2  502    0 -0.92929063288E+01  0.17747817928E+02  0.18402700073E+02  0.27522262247E+02  0.41800000000E+01 0.  1.
         -5    1    1    2    0  502  0.15017629005E+03  0.11821478048E+03 -0.12238619219E+03  0.22698789584E+03  0.41800000000E+01 0.  1.
        -11    1    1    2    0    0 -0.52646484611E+02  0.54912695843E+00 -0.19128838497E+02  0.56016661312E+02  0.00000000000E+00 0.  1.
         11    1    1    2    0    0 -0.88236899115E+02 -0.13651172537E+03 -0.80817423652E+02  0.18152866852E+03  0.00000000000E+00 0. -1.
</event>
<event>
 7    1  0.2651429E-009  0.5908384E+02  0.7561462E-02  0.1401717E+00
          2   -1    0    0  501    0  0.00000000000E+00  0.00000000000E+00  0.50427582559E+03  0.50427582559E+03  0.00000000000E+00 0.  1.
         -2   -1    0    0    0  501 -0.00000000000E+00 -0.00000000000E+00 -0.25811646024E+02  0.25811646024E+02  0.00000000000E+00 0. -1.
         25    2    1    2    0    0  0.22180684254E+02 -0.36588987809E+01  0.30797208155E+03  0.33316634260E+03  0.12509052136E+03 0.  0.
          5    1    3    3  502    0  0.13135037032E+01  0.69167366230E+01  0.30925858873E+03  0.30936695628E+03  0.41800000000E+01 0. -1.
         -5    1    3    3    0  502  0.20867180551E+02 -0.10575635404E+02 -0.12865071811E+01  0.23799386317E+02  0.41800000000E+01 0. -1.
        -11    1    1    2    0    0  0.30298347178E+02  0.12897665721E+02  0.23185253990E+02  0.40272765305E+02  0.00000000000E+00 0.  1.
         11    1    1    2    0    0 -0.52479031432E+02 -0.92387669401E+01  0.14730684403E+03  0.15664836370E+03  0.00000000000E+00 0. -1.
</event>
<event>
 7    1  0.2651429E-009  0.1080247E+03  0.7561462E-02  0.1264272E+00
          1   -1    0    0  501    0  0.00000000000E+00  0.00000000000E+00  0.36673745217E+03  0.36673745217E+03  0.00000000000E+00 0. -1.
         -1   -1    0    0    0  501 -0.00000000000E+00 -0.00000000000E+00 -0.47583833568E+02  0.47583833568E+02  0.00000000000E+00 0.  1.
         25    2    1    2    0    0 -0.52512770494E+02 -0.51766479223E+02  0.14065272850E+03  0.20215934313E+03  0.12509136878E+03 0.  0.
          5    1    3    3  502    0 -0.32717881353E+02  0.14124241806E+02 -0.93495277305E+01  0.37078835413E+02  0.41800000000E+01 0. -1.
         -5    1    3    3    0  502 -0.19794889141E+02 -0.65890721028E+02  0.15000225623E+03  0.16508050772E+03  0.41800000000E+01 0. -1.
        -11    1    1    2    0    0  0.50187256196E+02 -0.85244969381E+01  0.10780255867E+03  0.11921752971E+03  0.00000000000E+00 0. -1.
         11    1    1    2    0    0  0.23255142977E+01  0.60290976161E+02  0.70698331427E+02  0.92944412902E+02  0.00000000000E+00 0.  1.
</event>
<event>
 7    1  0.2651429E-009  0.1158003E+03  0.7561462E-02  0.1250190E+00
          2   -1    0    0  501    0  0.00000000000E+00  0.00000000000E+00  0.15048420135E+04  0.15048420135E+04  0.00000000000E+00 0. -1.
         -2   -1    0    0    0  501 -0.00000000000E+00 -0.00000000000E+00 -0.14910123411E+02  0.14910123411E+02  0.00000000000E+00 0.  1.
         25    2    1    2    0    0  0.81524923637E+02 -0.28330938234E+02  0.10410618911E+04  0.10520953673E+04  0.12508335438E+03 0.  0.
          5    1    3    3  502    0  0.67437827461E+02  0.13487402582E+02  0.23698660984E+03  0.24679930357E+03  0.41800000000E+01 0.  1.
         -5    1    3    3    0  502  0.14087096176E+02 -0.41818340816E+02  0.80407528123E+03  0.80529606369E+03  0.41800000000E+01 0.  1.
        -11    1    1    2    0    0  0.13254351824E+02  0.18960930602E+02  0.28880916366E+02  0.37004081690E+02  0.00000000000E+00 0.  1.
         11    1    1    2    0    0 -0.94779275461E+02  0.93700076319E+01  0.41998908269E+03  0.43065268800E+03  0.00000000000E+00 0. -1.
</event>
<event>
 7    1  0.2651429E-009  0.9203230E+02  0.7561462E-02  0.1298003E+00
          1   -1    0    0  501    0  0.00000000000E+00  0.00000000000E+00  0.70278461846E+02  0.70278461846E+02  0.00000000000E+00 0. -1.
         -1   -1    0    0    0  501 -0.00000000000E+00 -0.00000000000E+00 -0.27005795433E+03  0.27005795433E+03  0.00000000000E+00 0.  1.
         25    2    1    2    0    0  0.77132433617E+02  0.27307303137E+02 -0.10787320415E+03  0.18433537104E+03  0.12509116564E+03 0.  0.
          5    1    3    3  502    0  0.41609853135E+02  0.25169265747E+02 -0.13226899102E+03  0.14098734057E+03  0.41800000000E+01 0. -1.
         -5    1    3    3    0  502  0.35522580482E+02  0.21380373898E+01  0.24395786869E+02  0.43348030462E+02  0.41800000000E+01 0. -1.
        -11    1    1    2    0    0  0.38380774971E+01  0.96742371588E+01 -0.60833751839E+02  0.61717639830E+02  0.00000000000E+00 0.  1.
         11    1    1    2    0    0 -0.80970511114E+02 -0.36981540296E+02 -0.31072536492E+02  0.94283405310E+02  0.00000000000E+00 0. -1.
</event>
<event>
 7    1  0.2651429E-009  0.9743421E+02  0.7561462E-02  0.1285786E+00
          2   -1    0    0  501    0  0.00000000000E+00  0.00000000000E+00  0.35487025067E+03  0.35487025067E+03  0.00000000000E+00 0. -1.
         -2   -1    0    0    0  501 -0.00000000000E+00 -0.00000000000E+00 -0.61479532599E+02  0.61479532599E+02  0.00000000000E+00 0.  1.
         25    2    1    2    0    0 -0.19804467946E+02  0.42025421549E+02  0.33870713247E+02  0.13767009049E+03  0.12508987006E+03 0.  0.
          5    1    3    3  502    0  0.68188840461E+01 -0.22654328691E+02 -0.32995529916E+02  0.40815354739E+02  0.41800000000E+01 0.  1.
         -5    1    3    3    0  502 -0.26623351992E+02  0.64679750240E+02  0.66866243163E+02  0.96854735750E+02  0.41800000000E+01 0.  1.
        -11    1    1    2    0    0  0.17054839354E+02 -0.70313703441E+02  0.20093676725E+03  0.21356607612E+03  0.00000000000E+00 0. -1.
         11    1    1    2    0    0  0.27496285928E+01  0.28288281892E+02  0.58583237582E+02  0.65113616667E+02  0.00000000000E+00 0.  1.
</event>
<event>
 7    1  0.2651429E-009  0.1542020E+03  0.7561462E-02  0.1195403E+00
          2   -1    0    0  501    0  0.00000000000E+00  0.00000000000E+00  0.62554985065E+02  0.62554985065E+02  0.00000000000E+00 0. -1.
         -2   -1    0    0    0  501 -0.00000000000E+00 -0.00000000000E+00 -0.40971076950E+03  0.40971076950E+03  0.00000000000E+00 0.  1.
         25    2    1    2    0    0  0.10059402371E+03  0.44238884595E+02 -0.12431674097E+03  0.20779337504E+03  0.12508876092E+03 0.  0.
          5    1    3    3  502    0  0.76592389083E+02  0.87519298068E+02 -0.94069916076E+02  0.14964171581E+03  0.41800000000E+01 0. -1.
         -5    1    3    3    0  502  0.24001634626E+02 -0.43280413474E+02 -0.30246824898E+02  0.58151659233E+02  0.41800000000E+01 0. -1.
        -11    1    1    2    0    0 -0.87776567379E+02  0.84062996844E+01 -0.13379963158E+03  0.16024273171E+03  0.00000000000E+00 0.  1.
         11    1    1    2    0    0 -0.12817456331E+02 -0.52645184279E+02 -0.89039411882E+02  0.10422964781E+03  0.00000000000E+00 0. -1.
</event>
<event>
 7    1  0.2651429E-009  0.9469791E+02  0.7561462E-02  0.1291858E+00
          3   -1    0    0  501    0  0.00000000000E+00  0.00000000000E+00  0.54629883279E+02  0.54629883279E+02  0.00000000000E+00 0. -1.
         -3   -1    0    0    0  501 -0.00000000000E+00 -0.00000000000E+00 -0.24417546616E+03  0.24417546616E+03  0.00000000000E+00 0.  1.
         25    2    1    2    0    0  0.19168636237E+02  0.31903148300E+02 -0.11779240467E+03  0.17580607421E+03  0.12508987826E+03 0.  0.
          5    1    3    3  502    0  0.36650020873E+02 -0.40477598090E+02 -0.38445850683E+02  0.66912000507E+02  0.41800000000E+01 0.  1.
         -5    1    3    3    0  502 -0.17481384636E+02  0.72380746390E+02 -0.79346553989E+02  0.10889407370E+03  0.41800000000E+01 0.  1.
        -11    1    1    2    0    0  0.33404705451E+01 -0.36854116671E+02 -0.87555829613E+02  0.95054762944E+02  0.00000000000E+00 0.  1.
         11    1    1    2    0    0 -0.22509106782E+02  0.49509683706E+01  0.15802651402E+02  0.27944512292E+02  0.00000000000E+00 0. -1.
</event>
<event>
 7    1  0.2651429E-009  0.1086833E+03  0.7561462E-02  0.1263028E+00
          1   -1    0    0  501    0  0.00000000000E+00  0.00000000000E+00  0.24083507277E+03  0.24083507277E+03  0.00000000000E+00 0. -1.
         -1   -1    0    0    0  501 -0.00000000000E+00 -0.00000000000E+00 -0.86511120661E+02  0.86511120661E+02  0.00000000000E+00 0.  1.
         25    2    1    2    0    0  0.22666554577E+02  0.52575008986E+02  0.17362972415E+03  0.22152444224E+03  0.12509153902E+03 0.  0.
          5    1    3    3  502    0  0.56385995401E+01 -0.36943222221E+02  0.19338806102E+02  0.42285426500E+02  0.41800000000E+01 0. -1.
         -5    1    3    3    0  502  0.17027955037E+02  0.89518231207E+02  0.15429091805E+03  0.17923901574E+03  0.41800000000E+01 0. -1.
        -11    1    1    2    0    0  0.23025019111E+02 -0.71393079400E+01  0.19145500878E+02  0.30784272394E+02  0.00000000000E+00 0. -1.
         11    1    1    2    0    0 -0.45691573688E+02 -0.45435701046E+02 -0.38451272917E+02  0.75037478799E+02  0.00000000000E+00 0.  1.
</event>
<event>
 7    1  0.2651429E-009  0.9591829E+02  0.7561462E-02  0.1289121E+00
          2   -1    0    0  501    0  0.00000000000E+00  0.00000000000E+00  0.59009096554E+03  0.59009096554E+03  0.00000000000E+00 0. -1.
         -2   -1    0    0    0  501 -0.00000000000E+00 -0.00000000000E+00 -0.22063361646E+02  0.22063361646E+02  0.00000000000E+00 0.  1.
         25    2    1    2    0    0  0.30646147198E+02  0.14853966848E+02  0.37376269244E+03  0.39560833399E+03  0.12509027538E+03 0.  0.
          5    1    3    3  502    0 -0.38297815352E+02  0.82162998391E+01  0.25528760337E+03  0.25830885211E+03  0.41800000000E+01 0.  1.
         -5    1    3    3    0  502  0.68943962550E+02  0.66376670084E+01  0.11847508907E+03  0.13729948188E+03  0.41800000000E+01 0.  1.
        -11    1    1    2    0    0  0.16856598671E+02 -0.28955342581E+02  0.13596843156E+03  0.14003560677E+03  0.00000000000E+00 0. -1.
         11    1    1    2    0    0 -0.47502745869E+02  0.14101375733E+02  0.58296479898E+02  0.76510386427E+02  0.00000000000E+00 0.  1.
</event>
<event>
 7    1  0.2651429E-009  0.1421245E+03  0.7561462E-02  0.1210499E+00
          1   -1    0    0  501    0  0.00000000000E+00  0.00000000000E+00  0.29208476013E+03  0.29208476013E+03  0.00000000000E+00 0. -1.
         -1   -1    0    0    0  501 -0.00000000000E+00 -0.00000000000E+00 -0.13285533359E+03  0.13285533359E+03  0.00000000000E+00 0.  1.
         25    2    1    2    0    0 -0.55773253998E+02 -0.10369921396E+03  0.20649639423E+03  0.26861359143E+03  0.12509323657E+03 0.  0.
          5    1    3    3  502    0  0.12207812920E+02  0.11830964757E+02  0.87770058936E+02  0.89498927753E+02  0.41800000000E+01 0.  1.
         -5    1    3    3    0  502 -0.67981066918E+02 -0.11553017871E+03  0.11872633529E+03  0.17911466368E+03  0.41800000000E+01 0.  1.
        -11    1    1    2    0    0 -0.12914301246E+02  0.94279811283E+01  0.16846583310E+02  0.23226566127E+02  0.00000000000E+00 0.  1.
         11    1    1    2    0    0  0.68687555244E+02  0.94271232828E+02 -0.64113551002E+02  0.13309993616E+03  0.00000000000E+00 0. -1.
</event>
<event>
 7    1  0.2651429E-009  0.1446149E+03  0.7561462E-02  0.1207251E+00
         -1   -1    0    0    0  501 -0.00000000000E+00  0.00000000000E+00  0.64161855590E+03  0.64161855590E+03  0.00000000000E+00 0.  1.
          1   -1    0    0  501    0  0.00000000000E+00 -0.00000000000E+00 -0.68382775520E+02  0.68382775520E+02  0.00000000000E+00 0. -1.
         25    2    1    2    0    0  0.10255357433E+03  0.13937816496E+02  0.54561814090E+03  0.56925993927E+03  0.12508486899E+03 0.  0.
          5    1    3    3  502    0 -0.15676942817E+02 -0.30764257002E+02  0.14710746422E+03  0.15116310553E+03  0.41800000000E+01 0.  1.
         -5    1    3    3    0  502  0.11823051714E+03  0.44702073498E+02  0.39851067668E+03  0.41809683375E+03  0.41800000000E+01 0.  1.
        -11    1    1    2    0    0 -0.55735463866E+02  0.30411414410E+02 -0.12612592205E+02  0.64733094634E+02  0.00000000000E+00 0. -1.
         11    1    1    2    0    0 -0.46818110460E+02 -0.44349230906E+02  0.40230231688E+02  0.76008297512E+02  0.00000000000E+00 0.  1.
</event>
<event>
 7    1  0.2651429E-009  0.1039943E+03  0.7561462E-02  0.1272114E+00
         -2   -1    0    0    0  501 -0.00000000000E+00  0.00000000000E+00  0.22255067996E+02  0.22255067996E+02  0.00000000000E+00 0.  1.
          2   -1    0    0  501    0  0.00000000000E+00 -0.00000000000E+00 -0.50815315525E+03  0.50815315525E+03  0.00000000000E+00 0. -1.
         25    2    1    2    0    0  0.24565302936E+02 -0.18287465382E+02 -0.26744574646E+03  0.29683825900E+03  0.12509132347E+03 0.  0.
          5    1    3    3  502    0 -0.29417689719E+02  0.39121671873E+02 -0.87460153378E+02  0.10031279334E+03  0.41800000000E+01 0. -1.
         -5    1    3    3    0  502  0.53982992655E+02 -0.57409137255E+02 -0.17998559309E+03  0.19652546566E+03  0.41800000000E+01 0. -1.
        -11    1    1    2    0    0  0.20878422581E+02  0.26533067678E+02 -0.63994409124E+02  0.72354658516E+02  0.00000000000E+00 0.  1.
         11    1    1    2    0    0 -0.45443725517E+02 -0.82456022958E+01 -0.15445793166E+03  0.16121530572E+03  0.00000000000E+00 0. -1.
</event>
<event>
 7    1  0.2651429E-009  0.1727474E+03  0.7561462E-02  0.1175013E+00
         -2   -1    0    0    0  501 -0.00000000000E+00  0.00000000000E+00  0.14584442478E+03  0.14584442478E+03  0.00000000000E+00 0.  1.
          2   -1    0    0  501    0  0.00000000000E+00 -0.00000000000E+00 -0.29358321800E+03  0.29358321800E+03  0.00000000000E+00 0. -1.
         25    2    1    2    0    0  0.59912997010E+02 -0.97061282946E+02 -0.17605438771E+03  0.24424060404E+03  0.12509142805E+03 0.  0.
          5    1    3    3  502    0 -0.24651107966E+02 -0.54867608524E+02 -0.11996089147E+03  0.13426175729E+03  0.41800000000E+01 0.  1.
         -5    1    3    3    0  502  0.84564104976E+02 -0.42193674422E+02 -0.56093496242E+02  0.10997884675E+03  0.41800000000E+01 0.  1.
        -11    1    1    2    0    0 -0.91801007964E+02  0.12016771948E+03  0.35065770605E+02  0.15523309614E+03  0.00000000000E+00 0.  1.
         11    1    1    2    0    0  0.31888010954E+02 -0.23106436534E+02 -0.67501761146E+01  0.39953942602E+02  0.00000000000E+00 0. -1.
</event>
<event>
 7    1  0.2651429E-009  0.1120807E+03  0.7561462E-02  0.1256765E+00
          2   -1    0    0  501    0  0.00000000000E+00  0.00000000000E+00  0.93767270837E+02  0.93767270837E+02  0.00000000000E+00 0. -1.
         -2   -1    0    0    0  501 -0.00000000000E+00 -0.00000000000E+00 -0.21865828627E+03  0.21865828627E+03  0.00000000000E+00 0.  1.
         25    2    1    2    0    0  0.82165892415E+02 -0.36864878781E+02 -0.38333471483E+02  0.15882978704E+03  0.12508874070E+03 0.  0.
          5    1    3    3  502    0  0.23859216598E+01 -0.47505042708E+02  0.27201740987E+02  0.54952969143E+02  0.41800000000E+01 0. -1.
         -5    1    3    3    0  502  0.79779970755E+02  0.10640163927E+02 -0.65535212471E+02  0.10387681789E+03  0.41800000000E+01 0. -1.
        -11    1    1    2    0    0 -0.60289351969E+02  0.41837339411E+02 -0.10295595480E+02  0.74102417073E+02  0.00000000000E+00 0. -1.
         11    1    1    2    0    0 -0.21876540446E+02 -0.49724606296E+01 -0.76261948469E+02  0.79493352998E+02  0.00000000000E+00 0.  1.
</event>
<event>
 7    1  0.2651429E-009  0.1567126E+03  0.7561462E-02  0.1192459E+00
          2   -1    0    0  501    0  0.00000000000E+00  0.00000000000E+00  0.41753322861E+03  0.41753322861E+03  0.00000000000E+00 0. -1.
         -2   -1    0    0    0  501 -0.00000000000E+00 -0.00000000000E+00 -0.59100775466E+02  0.59100775466E+02  0.00000000000E+00 0.  1.
         25    2    1    2    0    0  0.87324818230E+02 -0.82637758516E+02  0.19823237518E+03  0.26343425967E+03  0.12508761563E+03 0.  0.
          5    1    3    3  502    0 -0.32370588544E+02 -0.20382820994E+02  0.41801116250E+02  0.56816547890E+02  0.41800000000E+01 0. -1.
         -5    1    3    3    0  502  0.11969540677E+03 -0.62254937522E+02  0.15643125893E+03  0.20661771178E+03  0.41800000000E+01 0. -1.
        -11    1    1    2    0    0  0.12810259402E+02  0.86178717810E+01  0.11527042690E+02  0.19267671711E+02  0.00000000000E+00 0. -1.
         11    1    1    2    0    0 -0.10013507763E+03  0.74019886735E+02  0.14867303527E+03  0.19393207270E+03  0.00000000000E+00 0.  1.
</event>
<event>
 7    1  0.2651429E-009  0.2882562E+03  0.7561462E-02  0.1091263E+00
         -1   -1    0    0    0  501 -0.00000000000E+00  0.00000000000E+00  0.53098247970E+02  0.53098247970E+02  0.00000000000E+00 0.  1.
          1   -1    0    0  501    0  0.00000000000E+00 -0.00000000000E+00 -0.17539832549E+04  0.17539832549E+04  0.00000000000E+00 0. -1.
         25    2    1    2    0    0 -0.21518976397E+03  0.18362610258E+03 -0.96754532704E+03  0.10157831582E+04  0.12508510945E+03 0.  0.
          5    1    3    3  502    0 -0.19550706605E+03  0.13181399221E+03 -0.61101651249E+03  0.65494777834E+03  0.41800000000E+01 0.  1.
         -5    1    3    3    0  502 -0.19682697926E+02  0.51812110370E+02 -0.35652881455E+03  0.36083537989E+03  0.41800000000E+01 0.  1.
        -11    1    1    2    0    0  0.59455250379E+02 -0.72617235986E+02 -0.14561315570E+03  0.17323793139E+03  0.00000000000E+00 0.  1.
         11    1    1    2    0    0  0.15573451359E+03 -0.11100886659E+03 -0.58772652420E+03  0.61806041325E+03  0.00000000000E+00 0. -1.
</event>
<event>
 7    1  0.2651429E-009  0.9195929E+02  0.7561462E-02  0.1298175E+00
         -1   -1    0    0    0  501 -0.00000000000E+00  0.00000000000E+00  0.18839467819E+03  0.18839467819E+03  0.00000000000E+00 0.  1.
          1   -1    0    0  501    0  0.00000000000E+00 -0.00000000000E+00 -0.87875995783E+02  0.87875995783E+02  0.00000000000E+00 0. -1.
         25    2    1    2    0    0  0.45860968836E+02 -0.28412849399E+02  0.12693576765E+02  0.13681691391E+03  0.12508885868E+03 0.  0.
          5    1    3    3  502    0 -0.34125431365E+02 -0.35207561520E+02 -0.15562827011E+02  0.51611931165E+02  0.41800000000E+01 0.  1.
         -5    1    3    3    0  502  0.79986400201E+02  0.67947121212E+01  0.28256403776E+02  0.85204982743E+02  0.41800000000E+01 0.  1.
        -11    1    1    2    0    0 -0.31212948983E+02  0.22737719505E+02  0.10752975419E+03  0.11425366563E+03  0.00000000000E+00 0.  1.
         11    1    1    2    0    0 -0.14648019853E+02  0.56751298935E+01 -0.19704648553E+02  0.25200094435E+02  0.00000000000E+00 0. -1.
</event>
<event>
 7    1  0.2651429E-009  0.1389062E+03  0.7561462E-02  0.1214808E+00
         -1   -1    0    0    0  501 -0.00000000000E+00  0.00000000000E+00  0.75227012834E+02  0.75227012834E+02  0.00000000000E+00 0.  1.
          1   -1    0    0  501    0  0.00000000000E+00 -0.00000000000E+00 -0.26820271986E+03  0.26820271986E+03  0.00000000000E+00 0. -1.
         25    2    1    2    0    0  0.84021186103E+02 -0.36298520775E+02 -0.11259582879E+03  0.19157945998E+03  0.12509087298E+03 0.  0.
          5    1    3    3  502    0  0.37127568125E+02  0.44169972906E+02 -0.22937200389E+02  0.62233675635E+02  0.41800000000E+01 0. -1.
         -5    1    3    3    0  502  0.46893617979E+02 -0.80468493681E+02 -0.89658628396E+02  0.12934578435E+03  0.41800000000E+01 0. -1.
        -11    1    1    2    0    0 -0.72270286060E+02 -0.15248384494E+02 -0.60104828886E+02  0.95226561066E+02  0.00000000000E+00 0. -1.
         11    1    1    2    0    0 -0.11750900043E+02  0.51546905269E+02 -0.20275049357E+02  0.56623711651E+02  0.00000000000E+00 0.  1.
</event>
<event>
 7    1  0.2651429E-009  0.1304291E+03  0.7561462E-02  0.1226820E+00
         -1   -1    0    0    0  501 -0.00000000000E+00  0.00000000000E+00  0.10687624335E+04  0.10687624335E+04  0.00000000000E+00 0.  1.
          1   -1    0    0  501    0  0.00000000000E+00 -0.00000000000E+00 -0.21412550797E+02  0.21412550797E+02  0.00000000000E+00 0. -1.
         25    2    1    2    0    0 -0.57540137853E+02 -0.86976453861E+02  0.65649694881E+03  0.67639597114E+03  0.12508994757E+03 0.  0.
          5    1    3    3  502    0 -0.60406968017E+02 -0.13769285746E+02  0.12209307919E+03  0.13697732441E+03  0.41800000000E+01 0.  1.
         -5    1    3    3    0  502  0.28668301642E+01 -0.73207168115E+02  0.53440386962E+03  0.53941864673E+03  0.41800000000E+01 0.  1.
        -11    1    1    2    0    0  0.73243524766E+02  0.62435960816E+02  0.21540287112E+03  0.23592638685E+03  0.00000000000E+00 0.  1.
         11    1    1    2    0    0 -0.15703386913E+02  0.24540493045E+02  0.17545006273E+03  0.17785262627E+03  0.00000000000E+00 0. -1.
</event>
<event>
 7    1  0.2651429E-009  0.2049682E+03  0.7561462E-02  0.1145614E+00
         -1   -1    0    0    0  501 -0.00000000000E+00  0.00000000000E+00  0.62432666049E+03  0.62432666049E+03  0.00000000000E+00 0.  1.
          1   -1    0    0  501    0  0.00000000000E+00 -0.00000000000E+00 -0.75791140301E+02  0.75791140301E+02  0.00000000000E+00 0. -1.
         25    2    1    2    0    0 -0.13470658600E+03  0.12142388100E+03  0.20355931496E+03  0.29995821428E+03  0.12509561311E+03 0.  0.
          5    1    3    3  502    0 -0.15106041098E+03  0.72223742812E+02  0.14399281634E+03  0.22087761396E+03  0.41800000000E+01 0.  1.
         -5    1    3    3    0  502  0.16353824984E+02  0.49200138187E+02  0.59566498618E+02  0.79080600319E+02  0.41800000000E+01 0.  1.
        -11    1    1    2    0    0  0.46006219139E+02 -0.80558276368E+02  0.23731178441E+03  0.25480010030E+03  0.00000000000E+00 0.  1.
         11    1    1    2    0    0  0.88700366857E+02 -0.40865604631E+02  0.10766442082E+03  0.14535948621E+03  0.00000000000E+00 0. -1.
</event>
<event>
 7    1  0.2651429E-009  0.1226132E+03  0.7561462E-02  0.1238847E+00
          1   -1    0    0  501    0  0.00000000000E+00  0.00000000000E+00  0.10960500816E+03  0.10960500816E+03  0.00000000000E+00 0. -1.
         -1   -1    0    0    0  501 -0.00000000000E+00 -0.00000000000E+00 -0.18056252348E+03  0.18056252348E+03  0.00000000000E+00 0.  1.
         25    2    1    2    0    0 -0.86634267216E+02 -0.21212861690E+02 -0.37186644916E+02  0.15806780028E+03  0.12508837343E+03 0.  0.
          5    1    3    3  502    0 -0.56032216282E+02  0.28768998460E+02  0.29083255871E+02  0.69502321586E+02  0.41800000000E+01 0.  1.
         -5    1    3    3    0  502 -0.30602050934E+02 -0.49981860149E+02 -0.66269900787E+02  0.88565478690E+02  0.41800000000E+01 0.  1.
        -11    1    1    2    0    0 -0.40173102046E+01  0.31823596680E+02  0.58416585450E+01  0.32603758396E+02  0.00000000000E+00 0.  1.
         11    1    1    2    0    0  0.90651577420E+02 -0.10610734991E+02 -0.39612528951E+02  0.99495972962E+02  0.00000000000E+00 0. -1.
</event>
<event>
 7    1  0.2651429E-009  0.1176127E+03  0.7561462E-02  0.1247088E+00
         -2   -1    0    0    0  501 -0.00000000000E+00  0.00000000000E+00  0.74771164741E+02  0.74771164741E+02  0.00000000000E+00 0.  1.
          2   -1    0    0  501    0  0.00000000000E+00 -0.00000000000E+00 -0.22821452475E+03  0.22821452475E+03  0.00000000000E+00 0. -1.
         25    2    1    2    0    0  0.62510022760E+02 -0.29606937209E+02 -0.56938997179E+02  0.15386290102E+03  0.12509064407E+03 0.  0.
          5    1    3    3  502    0  0.88587056749E+02 -0.37107375098E+02 -0.64004091115E+01  0.96348645797E+02  0.41800000000E+01 0. -1.
         -5    1    3    3    0  502 -0.26077033989E+02  0.75004378889E+01 -0.50538588067E+02  0.57514255224E+02  0.41800000000E+01 0. -1.
        -11    1    1    2    0    0 -0.48037803806E+01  0.50151417117E+02 -0.57754195186E+02  0.76640642002E+02  0.00000000000E+00 0.  1.
         11    1    1    2    0    0 -0.57706242379E+02 -0.20544479908E+02 -0.38750167645E+02  0.72482146469E+02  0.00000000000E+00 0. -1.
</event>
<event>
 7    1  0.2651429E-009  0.8630125E+02  0.7561462E-02  0.1312064E+00
         -2   -1    0    0    0  501 -0.00000000000E+00  0.00000000000E+00  0.25027115226E+03  0.25027115226E+03  0.00000000000E+00 0.  1.
          2   -1    0    0  501    0  0.00000000000E+00 -0.00000000000E+00 -0.71027576906E+02  0.71027576906E+02  0.00000000000E+00 0. -1.
         25    2    1    2    0    0 -0.26327337530E+01  0.75062422353E+01  0.18794409176E+03  0.22590714923E+03  0.12509110074E+03 0.  0.
          5    1    3    3  502    0 -0.44976433501E+02 -0.31999643771E+02  0.44061877893E+02  0.70751524756E+02  0.41800000000E+01 0. -1.
         -5    1    3    3    0  502  0.42343699748E+02  0.39505886006E+02  0.14388221387E+03  0.15515562447E+03  0.41800000000E+01 0. -1.
        -11    1    1    2    0    0  0.60831592396E+01 -0.32950416167E+02 -0.41754178868E+02  0.53536400747E+02  0.00000000000E+00 0. -1.
         11    1    1    2    0    0 -0.34504254865E+01  0.25444173932E+02  0.33053662461E+02  0.41855179192E+02  0.00000000000E+00 0.  1.
</event>
<event>
 7    1  0.2651429E-009  0.9195482E+02  0.7561462E-02  0.1298186E+00
          2   -1    0    0  501    0  0.00000000000E+00  0.00000000000E+00  0.30794062460E+03  0.30794062460E+03  0.00000000000E+00 0. -1.
         -2   -1    0    0    0  501 -0.00000000000E+00 -0.00000000000E+00 -0.45681081957E+02  0.45681081957E+02  0.00000000000E+00 0.  1.
         25    2    1    2    0    0  0.21818578051E+02  0.26287553826E+02  0.21778535712E+03  0.25346550190E+03  0.12508882060E+03 0.  0.
          5    1    3    3  502    0  0.71684361490E+02  0.69243259922E+01  0.93516123236E+02  0.11810728884E+03  0.41800000000E+01 0. -1.
         -5    1    3    3    0  502 -0.49865783439E+02  0.19363227834E+02  0.12426923389E+03  0.13535821305E+03  0.41800000000E+01 0. -1.
        -11    1    1    2    0    0 -0.33774978113E+02 -0.56230100538E+01 -0.14003501658E+02  0.36992775609E+02  0.00000000000E+00 0.  1.
         11    1    1    2    0    0  0.11956400062E+02 -0.20664543772E+02  0.58477687175E+02  0.63163429048E+02  0.00000000000E+00 0. -1.
</event>
<event>
 7    1  0.2651429E-009  0.9965145E+02  0.7561462E-02  0.1281031E+00
         -1   -1    0    0    0  501 -0.00000000000E+00  0.00000000000E+00  0.80978535382E+02  0.80978535382E+02  0.00000000000E+00 0.  1.
          1   -1    0    0  501    0  0.00000000000E+00 -0.00000000000E+00 -0.19747085959E+03  0.19747085959E+03  0.00000000000E+00 0. -1.
         25    2    1    2    0    0 -0.32066277010E+02 -0.10648094123E+02 -0.12834242976E+03  0.18237508446E+03  0.12508902481E+03 0.  0.
          5    1    3    3  502    0  0.29960879434E+02  0.35167600785E+02 -0.23054597322E+02  0.51801556918E+02  0.41800000000E+01 0. -1.
         -5    1    3    3    0  502 -0.62027156444E+02 -0.45815694908E+02 -0.10528783244E+03  0.13057352754E+03  0.41800000000E+01 0. -1.
        -11    1    1    2    0    0  0.47405305310E+02  0.25931824071E+02  0.34997077748E+02  0.64377930397E+02  0.00000000000E+00 0.  1.
         11    1    1    2    0    0 -0.15339028301E+02 -0.15283729948E+02 -0.23146972196E+02  0.31696380111E+02  0.00000000000E+00 0. -1.
</event>
<event>
 7    1  0.3865479E-009  0.1348988E+03  0.7561462E-02  0.1220363E+00
         -2   -1    0    0    0  501 -0.00000000000E+00  0.00000000000E+00  0.32033217488E+02  0.32033217488E+02  0.00000000000E+00 0.  1.
          2   -1    0    0  501    0  0.00000000000E+00 -0.00000000000E+00 -0.80339801116E+03  0.80339801116E+03  0.00000000000E+00 0. -1.
         25    2    1    2    0    0 -0.80607012302E+02  0.63960106168E+02 -0.26356924005E+03  0.30936239994E+03  0.12509182461E+03 0.  0.
          5    1    3    3  502    0 -0.52079847507E+02 -0.10286920563E+02 -0.20140695676E+03  0.20832754470E+03  0.41800000000E+01 0. -1.
         -5    1    3    3    0  502 -0.28527164795E+02  0.74247026730E+02 -0.62162283292E+02  0.10103485524E+03  0.41800000000E+01 0. -1.
        -11    1    1    2    0    0  0.96735941794E+02 -0.33393235494E+02 -0.39904289344E+03  0.41195652855E+03  0.00000000000E+00 0. -1.
         11    1    1    2    0    0 -0.16128929492E+02 -0.30566870674E+02 -0.10875266019E+03  0.11411230016E+03  0.00000000000E+00 0.  1.
</event>
<event>
 7    1  0.2651429E-009  0.1914916E+03  0.7561462E-02  0.1157123E+00
         -1   -1    0    0    0  501 -0.00000000000E+00  0.00000000000E+00  0.34905257902E+02  0.34905257902E+02  0.00000000000E+00 0.  1.
          1   -1    0    0  501    0  0.00000000000E+00 -0.00000000000E+00 -0.12297265779E+04  0.12297265779E+04  0.00000000000E+00 0. -1.
         25    2    1    2    0    0  0.83935481738E+02  0.14416666639E+03 -0.44851459102E+03  0.49461358872E+03  0.12509224995E+03 0.  0.
          5    1    3    3  502    0 -0.78692238944E+01  0.86170694819E+02 -0.28820266022E+03  0.30094112229E+03  0.41800000000E+01 0. -1.
         -5    1    3    3    0  502  0.91804705632E+02  0.57995971576E+02 -0.16031193080E+03  0.19367246643E+03  0.41800000000E+01 0. -1.
        -11    1    1    2    0    0 -0.29305075183E+02 -0.12712130588E+03 -0.46520951133E+03  0.48315474050E+03  0.00000000000E+00 0.  1.
         11    1    1    2    0    0 -0.54630406555E+02 -0.17045360519E+02 -0.28109721762E+03  0.28686350655E+03  0.00000000000E+00 0. -1.
</event>
<event>
 7    1  0.2651429E-009  0.9850531E+02  0.7561462E-02  0.1283471E+00
          2   -1    0    0  501    0  0.00000000000E+00  0.00000000000E+00  0.19387669338E+03  0.19387669338E+03  0.00000000000E+00 0. -1.
         -2   -1    0    0    0  501 -0.00000000000E+00 -0.00000000000E+00 -0.91681454344E+02  0.91681454344E+02  0.00000000000E+00 0.  1.
         25    2    1    2    0    0  0.82155615940E+01 -0.94666685419E+02  0.25254499131E+02  0.15910062637E+03  0.12508374317E+03 0.  0.
          5    1    3    3  502    0 -0.64727638056E+01 -0.80799945804E+02 -0.40125928214E+02  0.90543306922E+02  0.41800000000E+01 0.  1.
         -5    1    3    3    0  502  0.14688325400E+02 -0.13866739615E+02  0.65380427345E+02  0.68557319452E+02  0.41800000000E+01 0.  1.
        -11    1    1    2    0    0 -0.91645904421E+01  0.81016094228E+02  0.48426465485E+02  0.94829952026E+02  0.00000000000E+00 0.  1.
         11    1    1    2    0    0  0.94902884811E+00  0.13650591191E+02  0.28514274416E+02  0.31627569321E+02  0.00000000000E+00 0. -1.
</event>
<event>
 7    1  0.2651429E-009  0.1000389E+03  0.7561462E-02  0.1280214E+00
          1   -1    0    0  501    0  0.00000000000E+00  0.00000000000E+00  0.74902496463E+03  0.74902496463E+03  0.00000000000E+00 0. -1.
         -1   -1    0    0    0  501 -0.00000000000E+00 -0.00000000000E+00 -0.48510373012E+02  0.48510373012E+02  0.00000000000E+00 0.  1.
         25    2    1    2    0    0  0.55887594613E+01  0.59954910120E+02  0.66849225679E+03  0.68275543257E+03  0.12508899967E+03 0.  0.
          5    1    3    3  502    0 -0.29537405853E+02  0.58323038688E+01  0.36655556285E+02  0.47619075164E+02  0.41800000000E+01 0.  1.
         -5    1    3    3    0  502  0.35126165314E+02  0.54122606251E+02  0.63183670051E+03  0.63513635741E+03  0.41800000000E+01 0.  1.
        -11    1    1    2    0    0 -0.43092312254E+02 -0.13164409252E+02  0.31205026677E+02  0.54808783386E+02  0.00000000000E+00 0. -1.
         11    1    1    2    0    0  0.37503552793E+02 -0.46790500868E+02  0.81730815314E+00  0.59971121685E+02  0.00000000000E+00 0.  1.
</event>
<event>
 7    1  0.2651429E-009  0.1025098E+03  0.7561462E-02  0.1275105E+00
         -1   -1    0    0    0  501 -0.00000000000E+00  0.00000000000E+00  0.46562286289E+02  0.46562286289E+02  0.00000000000E+00 0.  1.
          1   -1    0    0  501    0  0.00000000000E+00 -0.00000000000E+00 -0.32119677464E+03  0.32119677464E+03  0.00000000000E+00 0. -1.
         25    2    1    2    0    0 -0.31786426896E+02  0.40177167468E+02 -0.18453485838E+03  0.22874601467E+03  0.12508814312E+03 0.  0.
          5    1    3    3  502    0 -0.63505888211E+02  0.12715537763E+02 -0.35736827852E+02  0.74089648420E+02  0.41800000000E+01 0. -1.
         -5    1    3    3    0  502  0.31719461314E+02  0.27461629706E+02 -0.14879803053E+03  0.15465636625E+03  0.41800000000E+01 0. -1.
        -11    1    1    2    0    0  0.60561100194E+02 -0.27419704424E+02 -0.83707698842E+02  0.10689464857E+03  0.00000000000E+00 0. -1.
         11    1    1    2    0    0 -0.28774673298E+02 -0.12757463044E+02 -0.63919311286E+01  0.32118397691E+02  0.00000000000E+00 0.  1.
</event>
<event>
 6    1  0.2651429E-009  0.1450325E+03  0.7561462E-02  0.1206713E+00
          2   -1    0    0  501    0  0.00000000000E+00  0.00000000000E+00  0.15562042888E+03  0.15562042888E+03  0.00000000000E+00 0.  1.
         -2   -1    0    0    0  501 -0.00000000000E+00 -0.00000000000E+00 -0.17616128813E+03  0.17616128813E+03  0.00000000000E+00 0. -1.
          5    1    1    2  502    0 -0.34331222283E+02  0.28748467535E+02  0.81969365085E+00  0.44980568102E+02  0.41800000000E+01 0.  1.
         -5    1    1    2    0  502 -0.35688515559E+02 -0.11451513265E+03  0.46786805277E+02  0.12881717003E+03  0.41800000000E+01 0.  1.
        -11    1    1    2    0    0 -0.22079741846E+01  0.38918235295E+02  0.11561404245E+02  0.40659196457E+02  0.00000000000E+00 0.  1.
         11    1    1    2    0    0  0.72227712027E+02  0.46848429816E+02 -0.79708762430E+02  0.11732478242E+03  0.00000000000E+00 0. -1.
</event>
<event>
 7    1  0.2651429E-009  0.1117869E+03  0.7561462E-02  0.1257296E+00
         -1   -1    0    0    0  501 -0.00000000000E+00  0.00000000000E+00  0.20388515300E+03  0.20388515300E+03  0.00000000000E+00 0.  1.
          1   -1    0    0  501    0  0.00000000000E+00 -0.00000000000E+00 -0.72172139149E+02  0.72172139149E+02  0.00000000000E+00 0. -1.
         25    2    1    2    0    0  0.54679139829E+02 -0.21836102348E+02  0.81303881265E+02  0.16038870532E+03  0.12509033530E+03 0.  0.
          5    1    3    3  502    0 -0.62369078475E+01  0.45675822336E+02  0.36407150427E+02  0.58890854704E+02  0.41800000000E+01 0.  1.
         -5    1    3    3    0  502  0.60916047676E+02 -0.67511924684E+02  0.44896730838E+02  0.10149785061E+03  0.41800000000E+01 0.  1.
        -11    1    1    2    0    0 -0.10941154321E+01  0.31744781150E+02  0.52246351055E+02  0.61144169121E+02  0.00000000000E+00 0.  1.
         11    1    1    2    0    0 -0.53585024397E+02 -0.99086788025E+01 -0.18372184686E+01  0.54524417713E+02  0.00000000000E+00 0. -1.
</event>
<event>
 7    1  0.2651429E-009  0.1190837E+03  0.7561462E-02  0.1244616E+00
         -2   -1    0    0    0  501 -0.00000000000E+00  0.00000000000E+00  0.44127734210E+03  0.44127734210E+03  0.00000000000E+00 0.  1.
          2   -1    0    0  501    0  0.00000000000E+00 -0.00000000000E+00 -0.40186464530E+02  0.40186464530E+02  0.00000000000E+00 0. -1.
         25    2    1    2    0    0 -0.60253394110E+02  0.39786839462E+02  0.17545078873E+03  0.22725228840E+03  0.12508860549E+03 0.  0.
          5    1    3    3  502    0 -0.81149420825E+01 -0.44394690453E+02  0.55339814629E+02  0.71531170189E+02  0.41800000000E+01 0.  1.
         -5    1    3    3    0  502 -0.52138452028E+02  0.84181529914E+02  0.12011097410E+03  0.15572111822E+03  0.41800000000E+01 0.  1.
        -11    1    1    2    0    0  0.28303143063E+02  0.13690994490E+02  0.16249890463E+03  0.16551255313E+03  0.00000000000E+00 0.  1.
         11    1    1    2    0    0  0.31950251048E+02 -0.53477833951E+02  0.63141184213E+02  0.88698965101E+02  0.00000000000E+00 0. -1.
</event>
<event>
 7    1  0.2651429E-009  0.9729764E+02  0.7561462E-02  0.1286083E+00
         -4   -1    0    0    0  501 -0.00000000000E+00  0.00000000000E+00  0.25257310694E+03  0.25257310694E+03  0.00000000000E+00 0. -1.
          4   -1    0    0  501    0  0.00000000000E+00 -0.00000000000E+00 -0.54131749357E+02  0.54131749357E+02  0.00000000000E+00 0.  1.
         25    2    1    2    0    0  0.33172646611E+02  0.25636295153E+02  0.12728077800E+03  0.18331742654E+03  0.12508892162E+03 0.  0.
          5    1    3    3  502    0  0.38783510750E+02  0.61956215373E+02  0.12669178119E+03  0.14632502572E+03  0.41800000000E+01 0. -1.
         -5    1    3    3    0  502 -0.56108641390E+01 -0.36319920221E+02  0.58899680920E+00  0.36992400820E+02  0.41800000000E+01 0. -1.
        -11    1    1    2    0    0  0.21212528040E+02  0.52471800415E+01 -0.73100385104E+01  0.23042155004E+02  0.00000000000E+00 0.  1.
         11    1    1    2    0    0 -0.54385174650E+02 -0.30883475194E+02  0.78470618088E+02  0.10034527475E+03  0.00000000000E+00 0. -1.
</event>
<event>
 7    1  0.2651429E-009  0.8145377E+02  0.7561462E-02  0.1324976E+00
         -1   -1    0    0    0  501 -0.00000000000E+00  0.00000000000E+00  0.22549135533E+03  0.22549135533E+03  0.00000000000E+00 0.  1.
          1   -1    0    0  501    0  0.00000000000E+00 -0.00000000000E+00 -0.57209995949E+02  0.57209995949E+02  0.00000000000E+00 0. -1.
         25    2    1    2    0    0 -0.14281844313E+02  0.33399841215E+02  0.91102662397E+02  0.15895398228E+03  0.12508858028E+03 0.  0.
          5    1    3    3  502    0 -0.34555839518E+02  0.49780537836E+02  0.11056873455E+03  0.12615516419E+03  0.41800000000E+01 0.  1.
         -5    1    3    3    0  502  0.20273995204E+02 -0.16380696621E+02 -0.19466072150E+02  0.32798818092E+02  0.41800000000E+01 0.  1.
        -11    1    1    2    0    0  0.39602123220E+02 -0.90173726961E+01  0.78700510581E+02  0.88563037095E+02  0.00000000000E+00 0.  1.
         11    1    1    2    0    0 -0.25320278906E+02 -0.24382468519E+02 -0.15218135962E+01  0.35184331905E+02  0.00000000000E+00 0. -1.
</event>
<event>
 7    1  0.2651429E-009  0.9957620E+02  0.7561462E-02  0.1281190E+00
         -1   -1    0    0    0  501 -0.00000000000E+00  0.00000000000E+00  0.29264278510E+02  0.29264278510E+02  0.00000000000E+00 0.  1.
          1   -1    0    0  501    0  0.00000000000E+00 -0.00000000000E+00 -0.13946162641E+04  0.13946162641E+04  0.00000000000E+00 0. -1.
         25    2    1    2    0    0  0.32011942825E+02 -0.80164544189E+02 -0.12231764437E+04  0.12325826378E+04  0.12509287719E+03 0.  0.
          5    1    3    3  502    0  0.41563675277E+02 -0.23940773032E+02 -0.10298968533E+04  0.10310216780E+04  0.41800000000E+01 0. -1.
         -5    1    3    3    0  502 -0.95517324524E+01 -0.56223771158E+02 -0.19327959040E+03  0.20156095976E+03  0.41800000000E+01 0. -1.
        -11    1    1    2    0    0 -0.10349082303E+02  0.68386160588E+02 -0.15020620255E+03  0.16536527371E+03  0.00000000000E+00 0. -1.
         11    1    1    2    0    0 -0.21662860522E+02  0.11778383602E+02  0.80306606535E+01  0.25932631120E+02  0.00000000000E+00 0.  1.
</event>
<event>
 7    1  0.2651429E-009  0.1002398E+03  0.7561462E-02  0.1279792E+00
          1   -1    0    0  501    0  0.00000000000E+00  0.00000000000E+00  0.20987699039E+02  0.20987699039E+02  0.00000000000E+00 0. -1.
         -1   -1    0    0    0  501 -0.00000000000E+00 -0.00000000000E+00 -0.71315184160E+03  0.71315184160E+03  0.00000000000E+00 0.  1.
         25    2    1    2    0    0  0.53446749456E+02 -0.64571497852E+01 -0.44538331574E+03  0.46574010693E+03  0.12509716004E+03 0.  0.
          5    1    3    3  502    0  0.57754569633E+02  0.33802985246E+02 -0.39649461879E+03  0.40212397000E+03  0.41800000000E+01 0. -1.
         -5    1    3    3    0  502 -0.43078201766E+01 -0.40260135031E+02 -0.48888696957E+02  0.63616136927E+02  0.41800000000E+01 0. -1.
        -11    1    1    2    0    0 -0.59347945931E+02  0.31365580682E+02 -0.22496506412E+03  0.23476639115E+03  0.00000000000E+00 0.  1.
         11    1    1    2    0    0  0.59011964751E+01 -0.24908430897E+02 -0.21815762688E+02  0.33633042551E+02  0.00000000000E+00 0. -1.
</event>
<event>
 7    1  0.2651429E-009  0.1692300E+03  0.7561462E-02  0.1178653E+00
          2   -1    0    0  501    0  0.00000000000E+00  0.00000000000E+00  0.10215692917E+04  0.10215692917E+04  0.00000000000E+00 0. -1.
         -2   -1    0    0    0  501 -0.00000000000E+00 -0.00000000000E+00 -0.43594911000E+02  0.43594911000E+02  0.00000000000E+00 0.  1.
         25    2    1    2    0    0  0.14683275664E+03 -0.20077015789E+02  0.77115156315E+03  0.79516415793E+03  0.12509340398E+03 0.  0.
          5    1    3    3  502    0 -0.14404077511E+02 -0.23623190192E+02  0.18944537887E+03  0.19150080036E+03  0.41800000000E+01 0. -1.
         -5    1    3    3    0  502  0.16123683416E+03  0.35461744031E+01  0.58170618428E+03  0.60366335757E+03  0.41800000000E+01 0. -1.
        -11    1    1    2    0    0 -0.73593546386E+02  0.15873726354E+01  0.33386476317E+02  0.80828130143E+02  0.00000000000E+00 0. -1.
         11    1    1    2    0    0 -0.73239210259E+02  0.18489643154E+02  0.17343634122E+03  0.18917191461E+03  0.00000000000E+00 0.  1.
</event>
<event>
 7    1  0.2651429E-009  0.1499437E+03  0.7561462E-02  0.1200542E+00
         -4   -1    0    0    0  501 -0.00000000000E+00  0.00000000000E+00  0.21066072981E+03  0.21066072981E+03  0.00000000000E+00 0.  1.
          4   -1    0    0  501    0  0.00000000000E+00 -0.00000000000E+00 -0.13491348801E+03  0.13491348801E+03  0.00000000000E+00 0. -1.
         25    2    1    2    0    0 -0.11693542658E+03  0.31914751731E+02 -0.19712439733E+01  0.17418715696E+03  0.12507931276E+03 0.  0.
          5    1    3    3  502    0 -0.28847316384E+02 -0.35311206348E+02 -0.35944282596E+02  0.58210933747E+02  0.41800000000E+01 0. -1.
         -5    1    3    3    0  502 -0.88088110195E+02  0.67225958080E+02  0.33973038622E+02  0.11597622321E+03  0.41800000000E+01 0. -1.
        -11    1    1    2    0    0  0.25468194925E+02  0.24832042029E+02 -0.46149670245E+01  0.35868610019E+02  0.00000000000E+00 0. -1.
         11    1    1    2    0    0  0.91467231654E+02 -0.56746793760E+02  0.82333452798E+02  0.13551845084E+03  0.00000000000E+00 0.  1.
</event>
<event>
 7    1  0.2651429E-009  0.1652474E+03  0.7561462E-02  0.1182897E+00
          2   -1    0    0  501    0  0.00000000000E+00  0.00000000000E+00  0.10523336642E+04  0.10523336642E+04  0.00000000000E+00 0. -1.
         -2   -1    0    0    0  501 -0.00000000000E+00 -0.00000000000E+00 -0.28855097634E+02  0.28855097634E+02  0.00000000000E+00 0.  1.
         25    2    1    2    0    0 -0.12635357169E+03  0.33243224541E+02  0.41938228779E+03  0.45672719114E+03  0.12509151354E+03 0.  0.
          5    1    3    3  502    0 -0.27207227528E+02  0.63124324664E+02  0.23867663711E+03  0.24841280783E+03  0.41800000000E+01 0. -1.
         -5    1    3    3    0  502 -0.99146344160E+02 -0.29881100122E+02  0.18070565069E+03  0.20831438331E+03  0.41800000000E+01 0. -1.
        -11    1    1    2    0    0  0.69357706481E+02 -0.62999250958E+02  0.34338883150E+03  0.35594281376E+03  0.00000000000E+00 0.  1.
         11    1    1    2    0    0  0.56995865207E+02  0.29756026417E+02  0.26070744727E+03  0.26851875693E+03  0.00000000000E+00 0. -1.
</event>
<event>
 7    1  0.2651429E-009  0.1352980E+03  0.7561462E-02  0.1219800E+00
         -3   -1    0    0    0  501 -0.00000000000E+00  0.00000000000E+00  0.35099454039E+03  0.35099454039E+03  0.00000000000E+00 0.  1.
          3   -1    0    0  501    0  0.00000000000E+00 -0.00000000000E+00 -0.72484703807E+02  0.72484703807E+02  0.00000000000E+00 0. -1.
         25    2    1    2    0    0  0.10249131440E+03 -0.26465525041E+02  0.21597900808E+03  0.27110819126E+03  0.12509127025E+03 0.  0.
          5    1    3    3  502    0  0.17860369606E+01  0.39182144653E+02  0.29731801064E+02  0.49395169624E+02  0.41800000000E+01 0. -1.
         -5    1    3    3    0  502  0.10070527744E+03 -0.65647669694E+02  0.18624720702E+03  0.22171302163E+03  0.41800000000E+01 0. -1.
        -11    1    1    2    0    0 -0.24972938539E+02  0.21895635860E+02 -0.20226265387E+02  0.38886608755E+02  0.00000000000E+00 0. -1.
         11    1    1    2    0    0 -0.77518375858E+02  0.45698891810E+01  0.82757093881E+02  0.11348444418E+03  0.00000000000E+00 0.  1.
</event>
<event>
 7    1  0.2651429E-009  0.1106610E+03  0.7561462E-02  0.1259351E+00
         -1   -1    0    0    0  501 -0.00000000000E+00  0.00000000000E+00  0.69682078509E+02  0.69682078509E+02  0.00000000000E+00 0.  1.
          1   -1    0    0  501    0  0.00000000000E+00 -0.00000000000E+00 -0.33114051974E+03  0.33114051974E+03  0.00000000000E+00 0. -1.
         25    2    1    2    0    0 -0.22582747030E+02  0.14090105181E+02 -0.27102676352E+03  0.29968677894E+03  0.12509255534E+03 0.  0.
          5    1    3    3  502    0 -0.54655966736E+02 -0.35197335290E+02 -0.10567633157E+03  0.12414139747E+03  0.41800000000E+01 0.  1.
         -5    1    3    3    0  502  0.32073219706E+02  0.49287440472E+02 -0.16535043195E+03  0.17554538147E+03  0.41800000000E+01 0.  1.
        -11    1    1    2    0    0 -0.24445316300E+02  0.25812642076E+02  0.16270447891E+02  0.39097230778E+02  0.00000000000E+00 0.  1.
         11    1    1    2    0    0  0.47028063330E+02 -0.39902747257E+02 -0.67021256026E+01  0.62038588530E+02  0.00000000000E+00 0. -1.
</event>
<event>
 7    1  0.2651429E-009  0.9288783E+02  0.7561462E-02  0.1296005E+00
          2   -1    0    0  501    0  0.00000000000E+00  0.00000000000E+00  0.67275222466E+03  0.67275222466E+03  0.00000000000E+00 0. -1.
         -2   -1    0    0    0  501 -0.00000000000E+00 -0.00000000000E+00 -0.31130583412E+02  0.31130583412E+02  0.00000000000E+00 0.  1.
         25    2    1    2    0    0 -0.10605162962E+02 -0.13682591011E+02  0.55352049435E+03  0.56774344438E+03  0.12509195896E+03 0.  0.
          5    1    3    3  502    0 -0.38128058054E+02 -0.53720776227E+02  0.19380799500E+03  0.20474052343E+03  0.41800000000E+01 0.  1.
         -5    1    3    3    0  502  0.27522895092E+02  0.40038185216E+02  0.35971249935E+03  0.36300292095E+03  0.41800000000E+01 0.  1.
        -11    1    1    2    0    0 -0.17615450311E+02 -0.20268420752E+02 -0.99260441353E+01  0.28629343716E+02  0.00000000000E+00 0.  1.
         11    1    1    2    0    0  0.28220613272E+02  0.33951011762E+02  0.98027191039E+02  0.10751001998E+03  0.00000000000E+00 0. -1.
</event>
<event>
 7    1  0.2651429E-009  0.9180623E+02  0.7561462E-02  0.1298536E+00
          1   -1    0    0  501    0  0.00000000000E+00  0.00000000000E+00  0.36882402866E+03  0.36882402866E+03  0.00000000000E+00 0. -1.
         -1   -1    0    0    0  501 -0.00000000000E+00 -0.00000000000E+00 -0.54324617256E+02  0.54324617256E+02  0.00000000000E+00 0.  1.
         25    2    1    2    0    0 -0.11805880072E+02 -0.89833787535E+02  0.17133730049E+03  0.23068124871E+03  0.12509148565E+03 0.  0.
          5    1    3    3  502    0 -0.14791196330E+02 -0.75794925737E+02  0.21734964748E+02  0.80333874231E+02  0.41800000000E+01 0.  1.
         -5    1    3    3    0  502  0.29853162582E+01 -0.14038861798E+02  0.14960233574E+03  0.15034737448E+03  0.41800000000E+01 0.  1.
        -11    1    1    2    0    0 -0.22765223306E+01  0.15971091118E+02 -0.11959477754E+02  0.20082017169E+02  0.00000000000E+00 0.  1.
         11    1    1    2    0    0  0.14082402402E+02  0.73862696417E+02  0.15512158867E+03  0.17238538004E+03  0.00000000000E+00 0. -1.
</event>
<event>
 7    1  0.2651429E-009  0.1267857E+03  0.7561462E-02  0.1232305E+00
         -2   -1    0    0    0  501 -0.00000000000E+00  0.00000000000E+00  0.53477475333E+02  0.53477475333E+02  0.00000000000E+00 0.  1.
          2   -1    0    0  501    0  0.00000000000E+00 -0.00000000000E+00 -0.46718712421E+03  0.46718712421E+03  0.00000000000E+00 0. -1.
         25    2    1    2    0    0  0.65917643061E+02 -0.62364808269E+02 -0.10717409480E+03  0.18806321758E+03  0.12508789803E+03 0.  0.
          5    1    3    3  502    0  0.31738983026E+02 -0.86277816760E+02 -0.24285335254E+02  0.95176019127E+02  0.41800000000E+01 0.  1.
         -5    1    3    3    0  502  0.34178660035E+02  0.23913008491E+02 -0.82888759549E+02  0.92887198453E+02  0.41800000000E+01 0.  1.
        -11    1    1    2    0    0 -0.64282575497E+02  0.74822008059E+01 -0.10178716714E+03  0.12061865625E+03  0.00000000000E+00 0.  1.
         11    1    1    2    0    0 -0.16350675639E+01  0.54882607463E+02 -0.20474838694E+03  0.21198272572E+03  0.00000000000E+00 0. -1.
</event>
<event>
 7    1  0.2651429E-009  0.1043134E+03  0.7561462E-02  0.1271478E+00
         -2   -1    0    0    0  501 -0.00000000000E+00  0.00000000000E+00  0.65388782905E+02  0.65388782905E+02  0.00000000000E+00 0.  1.
          2   -1    0    0  501    0  0.00000000000E+00 -0.00000000000E+00 -0.18837517937E+03  0.18837517937E+03  0.00000000000E+00 0. -1.
         25    2    1    2    0    0 -0.10698866734E+02  0.21801259470E+02 -0.64227693992E+02  0.14269783725E+03  0.12509082867E+03 0.  0.
          5    1    3    3  502    0 -0.65786330978E+02  0.23548413676E+02 -0.48738097011E+02  0.85295038722E+02  0.41800000000E+01 0. -1.
         -5    1    3    3    0  502  0.55087464244E+02 -0.17471542059E+01 -0.15489596981E+02  0.57402798532E+02  0.41800000000E+01 0. -1.
        -11    1    1    2    0    0  0.13354606218E+02  0.29291791802E+02  0.12391465482E+01  0.32216301129E+02  0.00000000000E+00 0.  1.
         11    1    1    2    0    0 -0.26557394839E+01 -0.51093051273E+02 -0.59997849019E+02  0.78849823890E+02  0.00000000000E+00 0. -1.
</event>
<event>
 7    1  0.2651429E-009  0.9696928E+02  0.7561462E-02  0.1286801E+00
         -1   -1    0    0    0  501 -0.00000000000E+00  0.00000000000E+00  0.24379251945E+03  0.24379251945E+03  0.00000000000E+00 0.  1.
          1   -1    0    0  501    0  0.00000000000E+00 -0.00000000000E+00 -0.63679796899E+02  0.63679796899E+02  0.00000000000E+00 0. -1.
         25    2    1    2    0    0 -0.38821625107E+02  0.18777725959E+02  0.57495175882E+02  0.14426733672E+03  0.12509055770E+03 0.  0.
          5    1    3    3  502    0 -0.72028911693E+02 -0.17969849190E+02  0.58411460805E+02  0.94553956834E+02  0.41800000000E+01 0. -1.
         -5    1    3    3    0  502  0.33207286586E+02  0.36747575148E+02 -0.91628492294E+00  0.49713379887E+02  0.41800000000E+01 0. -1.
        -11    1    1    2    0    0 -0.13926662680E+02 -0.11567641698E+00 -0.11386129667E+02  0.17989142926E+02  0.00000000000E+00 0. -1.
         11    1    1    2    0    0  0.52748287787E+02 -0.18662049542E+02  0.13400367634E+03  0.14521583670E+03  0.00000000000E+00 0.  1.
</event>
<event>
 7    1  0.2651429E-009  0.1211628E+03  0.7561462E-02  0.1241191E+00
         -2   -1    0    0    0  501 -0.00000000000E+00  0.00000000000E+00  0.10243645093E+03  0.10243645093E+03  0.00000000000E+00 0.  1.
          2   -1    0    0  501    0  0.00000000000E+00 -0.00000000000E+00 -0.16155636001E+03  0.16155636001E+03  0.00000000000E+00 0. -1.
         25    2    1    2    0    0  0.20394223548E+02  0.61984355614E+02 -0.57122252489E+02  0.15222423660E+03  0.12510508297E+03 0.  0.
          5    1    3    3  502    0  0.32451944131E+02 -0.32287589507E+02 -0.18663282772E+02  0.49612575400E+02  0.41800000000E+01 0. -1.
         -5    1    3    3    0  502 -0.12057720583E+02  0.94271945122E+02 -0.38458969718E+02  0.10261166120E+03  0.41800000000E+01 0. -1.
        -11    1    1    2    0    0 -0.71807477173E+00 -0.76669769205E+02  0.19523039980E+02  0.79119645041E+02  0.00000000000E+00 0.  1.
         11    1    1    2    0    0 -0.19676148776E+02  0.14685413591E+02 -0.21520696576E+02  0.32648929295E+02  0.00000000000E+00 0. -1.
</event>
<event>
 7    1  0.2651429E-009  0.1089012E+03  0.7561462E-02  0.1262618E+00
          4   -1    0    0  501    0  0.00000000000E+00  0.00000000000E+00  0.32747860962E+03  0.32747860962E+03  0.00000000000E+00 0. -1.
         -4   -1    0    0    0  501 -0.00000000000E+00 -0.00000000000E+00 -0.57786744349E+02  0.57786744349E+02  0.00000000000E+00 0.  1.
         25    2    1    2    0    0  0.68887440285E+02  0.11680255830E+02  0.22827575915E+03  0.26951605647E+03  0.12508866726E+03 0.  0.
          5    1    3    3  502    0  0.54788112827E+02  0.53398307558E+02  0.20641148603E+03  0.22017331928E+03  0.41800000000E+01 0.  1.
         -5    1    3    3    0  502  0.14099327458E+02 -0.41718051727E+02  0.21864273118E+02  0.49342737193E+02  0.41800000000E+01 0.  1.
        -11    1    1    2    0    0  0.13732501098E+01 -0.25335930653E+02  0.35900300336E+02  0.43961651039E+02  0.00000000000E+00 0. -1.
         11    1    1    2    0    0 -0.70260690395E+02  0.13655674823E+02  0.55158057814E+01  0.71787646452E+02  0.00000000000E+00 0.  1.
</event>
<event>
 7    1  0.2651429E-009  0.9299493E+02  0.7561462E-02  0.1295757E+00
          1   -1    0    0  501    0  0.00000000000E+00  0.00000000000E+00  0.68916164231E+02  0.68916164231E+02  0.00000000000E+00 0. -1.
         -1   -1    0    0    0  501 -0.00000000000E+00 -0.00000000000E+00 -0.30582261276E+03  0.30582261276E+03  0.00000000000E+00 0.  1.
         25    2    1    2    0    0 -0.49024312282E+02 -0.27508534760E+02 -0.22960437416E+03  0.26742398798E+03  0.12504926243E+03 0.  0.
          5    1    3    3  502    0 -0.39482026316E+02 -0.52001713334E+02 -0.23166638285E+03  0.24072763434E+03  0.41800000000E+01 0.  1.
         -5    1    3    3    0  502 -0.95422859668E+01  0.24493178574E+02  0.20620086839E+01  0.26696353645E+02  0.41800000000E+01 0.  1.
        -11    1    1    2    0    0  0.88488655511E+01 -0.25754299538E+02 -0.26390915095E+02  0.37921850769E+02  0.00000000000E+00 0.  1.
         11    1    1    2    0    0  0.40175446731E+02  0.53262834298E+02  0.19088840728E+02  0.69392938242E+02  0.00000000000E+00 0. -1.
</event>
<event>
 7    1  0.2651429E-009  0.2023458E+03  0.7561462E-02  0.1147775E+00
          1   -1    0    0  501    0  0.00000000000E+00  0.00000000000E+00  0.35645028353E+03  0.35645028353E+03  0.00000000000E+00 0. -1.
         -1   -1    0    0    0  501 -0.00000000000E+00 -0.00000000000E+00 -0.14433473712E+03  0.14433473712E+03  0.00000000000E+00 0.  1.
         25    2    1    2    0    0  0.14008246953E+03 -0.12427254519E+03  0.18025504737E+03  0.28845058246E+03  0.12508034482E+03 0.  0.
          5    1    3    3  502    0  0.33124815260E+01 -0.30649193623E+02 -0.13090793386E+02  0.33751842543E+02  0.41800000000E+01 0. -1.
         -5    1    3    3    0  502  0.13676998801E+03 -0.93623351570E+02  0.19334584075E+03  0.25469873992E+03  0.41800000000E+01 0. -1.
        -11    1    1    2    0    0 -0.85371208456E+02  0.12697504205E+03  0.36690690909E+02  0.15734392691E+03  0.00000000000E+00 0.  1.
         11    1    1    2    0    0 -0.54711261075E+02 -0.27024968527E+01 -0.48301918596E+01  0.54990511282E+02  0.00000000000E+00 0. -1.
</event>
<event>
 7    1  0.2651429E-009  0.9263866E+02  0.7561462E-02  0.1296585E+00
          1   -1    0    0  501    0  0.00000000000E+00  0.00000000000E+00  0.66602386105E+02  0.66602386105E+02  0.00000000000E+00 0. -1.
         -1   -1    0    0    0  501 -0.00000000000E+00 -0.00000000000E+00 -0.22233256350E+03  0.22233256350E+03  0.00000000000E+00 0.  1.
         25    2    1    2    0    0  0.32850877873E+02 -0.35149007771E+02 -0.57544275771E+02  0.14585211368E+03  0.12508741930E+03 0.  0.
          5    1    3    3  502    0  0.65329083414E+02  0.18156612014E+02 -0.13290353462E+02  0.69221799996E+02  0.41800000000E+01 0.  1.
         -5    1    3    3    0  502 -0.32478205541E+02 -0.53305619785E+02 -0.44253922308E+02  0.76630313685E+02  0.41800000000E+01 0.  1.
        -11    1    1    2    0    0 -0.27928047551E+02  0.10803550565E+02 -0.11111629117E+03  0.11508050533E+03  0.00000000000E+00 0.  1.
         11    1    1    2    0    0 -0.49228303217E+01  0.24345457206E+02  0.12930389541E+02  0.28002330593E+02  0.00000000000E+00 0. -1.
</event>
<event>
 7    1  0.2651429E-009  0.1122055E+03  0.7561462E-02  0.1256539E+00
         -2   -1    0    0    0  501 -0.00000000000E+00  0.00000000000E+00  0.10483503710E+03  0.10483503710E+03  0.00000000000E+00 0. -1.
          2   -1    0    0  501    0  0.00000000000E+00 -0.00000000000E+00 -0.12884190744E+03  0.12884190744E+03  0.00000000000E+00 0.  1.
         25    2    1    2    0    0  0.31936681323E+01  0.38305969872E+02 -0.21864236175E+02  0.13267710095E+03  0.12509045307E+03 0.  0.
          5    1    3    3  502    0  0.58020126653E+02  0.77164104779E+00  0.97332464035E+01  0.58984226809E+02  0.41800000000E+01 0. -1.
         -5    1    3    3    0  502 -0.54826458521E+02  0.37534328824E+02 -0.31597482579E+02  0.73692874144E+02  0.41800000000E+01 0. -1.
        -11    1    1    2    0    0 -0.47426850480E+02 -0.15510386625E+02 -0.92019017321E+01  0.50740055530E+02  0.00000000000E+00 0.  1.
         11    1    1    2    0    0  0.44233182347E+02 -0.22795583247E+02  0.70592675669E+01  0.50259788049E+02  0.00000000000E+00 0. -1.
</event>
<event>
 7    1  0.2651429E-009  0.1725488E+03  0.7561462E-02  0.1175216E+00
         -2   -1    0    0    0  501 -0.00000000000E+00  0.00000000000E+00  0.32214246318E+03  0.32214246318E+03  0.00000000000E+00 0.  1.
          2   -1    0    0  501    0  0.00000000000E+00 -0.00000000000E+00 -0.12629139687E+03  0.12629139687E+03  0.00000000000E+00 0. -1.
         25    2    1    2    0    0 -0.15272161361E+03  0.39342768385E+02  0.17160845222E+03  0.26451710723E+03  0.12509234371E+03 0.  0.
          5    1    3    3  502    0 -0.12974752471E+03  0.51974707311E+02  0.18725212232E+03  0.23370198990E+03  0.41800000000E+01 0. -1.
         -5    1    3    3    0  502 -0.22974088897E+02 -0.12631938926E+02 -0.15643670102E+02  0.30815117328E+02  0.41800000000E+01 0. -1.
        -11    1    1    2    0    0  0.20211430588E+02 -0.41530526959E+02 -0.95134106482E+01  0.47157094674E+02  0.00000000000E+00 0. -1.
         11    1    1    2    0    0  0.13251018302E+03  0.21877585740E+01  0.33756024734E+02  0.13675965815E+03  0.00000000000E+00 0.  1.
</event>
<event>
 7    1  0.2651429E-009  0.1602106E+03  0.7561462E-02  0.1188459E+00
         -2   -1    0    0    0  501 -0.00000000000E+00  0.00000000000E+00  0.65047994690E+02  0.65047994690E+02  0.00000000000E+00 0. -1.
          2   -1    0    0  501    0  0.00000000000E+00 -0.00000000000E+00 -0.44509244345E+03  0.44509244345E+03  0.00000000000E+00 0.  1.
         25    2    1    2    0    0 -0.20373586465E+02  0.12578379260E+03 -0.24248803542E+03  0.30113791167E+03  0.12508776526E+03 0.  0.
          5    1    3    3  502    0  0.44631690253E+02  0.67504069718E+02 -0.16710479559E+03  0.18571556831E+03  0.41800000000E+01 0. -1.
         -5    1    3    3    0  502 -0.65005276719E+02  0.58279722877E+02 -0.75383239834E+02  0.11542234336E+03  0.41800000000E+01 0. -1.
        -11    1    1    2    0    0  0.32282588745E+02 -0.75530157024E+01 -0.55313480376E+02  0.64488717568E+02  0.00000000000E+00 0.  1.
         11    1    1    2    0    0 -0.11909002280E+02 -0.11823077689E+03 -0.82242932962E+02  0.14451380890E+03  0.00000000000E+00 0. -1.
</event>
<event>
 7    1  0.2651429E-009  0.8607578E+02  0.7561462E-02  0.1312643E+00
          1   -1    0    0  501    0  0.00000000000E+00  0.00000000000E+00  0.38860055880E+03  0.38860055880E+03  0.00000000000E+00 0. -1.
         -1   -1    0    0    0  501 -0.00000000000E+00 -0.00000000000E+00 -0.36092096923E+02  0.36092096923E+02  0.00000000000E+00 0.  1.
         25    2    1    2    0    0  0.11150711541E+02 -0.20870225890E+02  0.27397943930E+03  0.30211197187E+03  0.12508799179E+03 0.  0.
          5    1    3    3  502    0  0.18123913158E+02  0.34311931314E+02  0.22350391039E+03  0.22688599608E+03  0.41800000000E+01 0. -1.
         -5    1    3    3    0  502 -0.69732016164E+01 -0.55182157204E+02  0.50475528911E+02  0.75225975788E+02  0.41800000000E+01 0. -1.
        -11    1    1    2    0    0 -0.29578413117E+02  0.40675180897E+02  0.81077086915E+02  0.95408840713E+02  0.00000000000E+00 0. -1.
         11    1    1    2    0    0  0.18427701576E+02 -0.19804955008E+02 -0.25480643302E+01  0.27171843148E+02  0.00000000000E+00 0.  1.
</event>
<event>
 7    1  0.2651429E-009  0.1636769E+03  0.7561462E-02  0.1184607E+00
          1   -1    0    0  501    0  0.00000000000E+00  0.00000000000E+00  0.21638506309E+03  0.21638506309E+03  0.00000000000E+00 0. -1.
         -1   -1    0    0    0  501 -0.00000000000E+00 -0.00000000000E+00 -0.21690187071E+03  0.21690187071E+03  0.00000000000E+00 0.  1.
         25    2    1    2    0    0 -0.37111421534E+02  0.15715458449E+03 -0.94674132898E+02  0.22513482310E+03  0.12509067150E+03 0.  0.
          5    1    3    3  502    0 -0.13369552062E+02  0.93182476450E+02  0.15478528709E+02  0.95492282886E+02  0.41800000000E+01 0. -1.
         -5    1    3    3    0  502 -0.23741869472E+02  0.63972108042E+02 -0.11015266161E+03  0.12964254021E+03  0.41800000000E+01 0. -1.
        -11    1    1    2    0    0  0.20169492582E+02 -0.28046470095E+02  0.66639131568E+02  0.75061220161E+02  0.00000000000E+00 0. -1.
         11    1    1    2    0    0  0.16941928952E+02 -0.12910811440E+03  0.27518193711E+02  0.13309089054E+03  0.00000000000E+00 0.  1.
</event>
<event>
 7    1  0.2651429E-009  0.1105793E+03  0.7561462E-02  0.1259501E+00
          1   -1    0    0  501    0  0.00000000000E+00  0.00000000000E+00  0.18529454459E+03  0.18529454459E+03  0.00000000000E+00 0. -1.
         -1   -1    0    0    0  501 -0.00000000000E+00 -0.00000000000E+00 -0.11541555397E+03  0.11541555397E+03  0.00000000000E+00 0.  1.
         25    2    1    2    0    0  0.55785487407E+02 -0.59470438279E+02 -0.17027508223E+02  0.15028505907E+03  0.12508760653E+03 0.  0.
          5    1    3    3  502    0 -0.21236152509E+02  0.70702407551E+01  0.30346282901E+02  0.37938526113E+02  0.41800000000E+01 0. -1.
         -5    1    3    3    0  502  0.77021639916E+02 -0.66540679034E+02 -0.47373791123E+02  0.11234653295E+03  0.41800000000E+01 0. -1.
        -11    1    1    2    0    0 -0.37594135173E+01  0.41211377624E+02 -0.65679746502E+01  0.41900466903E+02  0.00000000000E+00 0.  1.
         11    1    1    2    0    0 -0.52026073890E+02  0.18259060655E+02  0.93474473491E+02  0.10852457258E+03  0.00000000000E+00 0. -1.
</event>
<event>
 7    1  0.2651429E-009  0.1519055E+03  0.7561462E-02  0.1198151E+00
         -1   -1    0    0    0  501 -0.00000000000E+00  0.00000000000E+00  0.37925065079E+02  0.37925065079E+02  0.00000000000E+00 0.  1.
          1   -1    0    0  501    0  0.00000000000E+00 -0.00000000000E+00 -0.88350853364E+03  0.88350853364E+03  0.00000000000E+00 0. -1.
         25    2    1    2    0    0 -0.45488710755E+02 -0.12738391780E+03 -0.59870933713E+03  0.62641529555E+03  0.12508943524E+03 0.  0.
          5    1    3    3  502    0 -0.50185283921E+02 -0.39027106763E+02 -0.91300061284E+02  0.11133216685E+03  0.41800000000E+01 0. -1.
         -5    1    3    3    0  502  0.46965731661E+01 -0.88356811041E+02 -0.50740927585E+03  0.51508312870E+03  0.41800000000E+01 0. -1.
        -11    1    1    2    0    0  0.30994828867E+02  0.90330599793E+01 -0.18038373604E+02  0.36981867332E+02  0.00000000000E+00 0.  1.
         11    1    1    2    0    0  0.14493881887E+02  0.11835085782E+03 -0.22883575782E+03  0.25803643583E+03  0.00000000000E+00 0. -1.
</event>
<event>
 7    1  0.2651429E-009  0.1238698E+03  0.7561462E-02  0.1236846E+00
          1   -1    0    0  501    0  0.00000000000E+00  0.00000000000E+00  0.22914153929E+03  0.22914153929E+03  0.00000000000E+00 0. -1.
         -1   -1    0    0    0  501 -0.00000000000E+00 -0.00000000000E+00 -0.71001867768E+02  0.71001867768E+02  0.00000000000E+00 0.  1.
         25    2    1    2    0    0  0.61989480476E+02 -0.16003119832E+02  0.10503059182E+03  0.17543843230E+03  0.12509365603E+03 0.  0.
          5    1    3    3  502    0  0.98223646307E+02 -0.11996243690E+02  0.95369460552E+02  0.13749400337E+03  0.41800000000E+01 0. -1.
         -5    1    3    3    0  502 -0.36234165831E+02 -0.40068761425E+01  0.96611312639E+01  0.37944428934E+02  0.41800000000E+01 0. -1.
        -11    1    1    2    0    0 -0.49613914003E+02 -0.34225208483E+02  0.36062525313E+02  0.70238245211E+02  0.00000000000E+00 0.  1.
         11    1    1    2    0    0 -0.12375566473E+02  0.50228328315E+02  0.17046554397E+02  0.54466729548E+02  0.00000000000E+00 0. -1.
</event>
<event>
 7    1  0.2651429E-009  0.1341072E+03  0.7561462E-02  0.1221486E+00
          3   -1    0    0  501    0  0.00000000000E+00  0.00000000000E+00  0.16058884746E+03  0.16058884746E+03  0.00000000000E+00 0. -1.
         -3   -1    0    0    0  501 -0.00000000000E+00 -0.00000000000E+00 -0.12414501079E+03  0.12414501079E+03  0.00000000000E+00 0.  1.
         25    2    1    2    0    0  0.90882137548E+02  0.43383605273E+01  0.31745636627E+02  0.15792011746E+03  0.12511032634E+03 0.  0.
          5    1    3    3  502    0 -0.17865221312E+02  0.36499127673E+02  0.36527562894E+01  0.41014235114E+02  0.41800000000E+01 0. -1.
         -5    1    3    3    0  502  0.10874735886E+03 -0.32160767146E+02  0.28092880338E+02  0.11690588235E+03  0.41800000000E+01 0. -1.
        -11    1    1    2    0    0 -0.23151847106E+02  0.30040589144E+02 -0.24817082069E+02  0.45324745812E+02  0.00000000000E+00 0.  1.
         11    1    1    2    0    0 -0.67730290442E+02 -0.34378949671E+02  0.29515282115E+02  0.81488994976E+02  0.00000000000E+00 0. -1.
</event>
<event>
 7    1  0.2651429E-009  0.9359185E+02  0.7561462E-02  0.1294379E+00
          1   -1    0    0  501    0  0.00000000000E+00  0.00000000000E+00  0.52758081747E+02  0.52758081747E+02  0.00000000000E+00 0. -1.
         -1   -1    0    0    0  501 -0.00000000000E+00 -0.00000000000E+00 -0.24880448906E+03  0.24880448906E+03  0.00000000000E+00 0.  1.
         25    2    1    2    0    0 -0.34733051824E+02 -0.18177176974E+01 -0.12432117823E+03  0.17976188427E+03  0.12509552628E+03 0.  0.
          5    1    3    3  502    0  0.29858045610E+02 -0.42526770760E+02 -0.62830174086E+02  0.81640261480E+02  0.41800000000E+01 0. -1.
         -5    1    3    3    0  502 -0.64591097434E+02  0.40709053062E+02 -0.61491004140E+02  0.98121622791E+02  0.41800000000E+01 0. -1.
        -11    1    1    2    0    0  0.34114209388E+02  0.20564597994E+02 -0.88236956845E+02  0.96811376016E+02  0.00000000000E+00 0.  1.
         11    1    1    2    0    0  0.61884243566E+00 -0.18746880296E+02  0.16511727757E+02  0.24989310521E+02  0.00000000000E+00 0. -1.
</event>
<event>
 7    1  0.2651429E-009  0.1048793E+03  0.7561462E-02  0.1270358E+00
          2   -1    0    0  501    0  0.00000000000E+00  0.00000000000E+00  0.29072998010E+03  0.29072998010E+03  0.00000000000E+00 0. -1.
         -2   -1    0    0    0  501 -0.00000000000E+00 -0.00000000000E+00 -0.43412114844E+02  0.43412114844E+02  0.00000000000E+00 0.  1.
         25    2    1    2    0    0  0.16986721587E+02  0.17499638785E+02  0.15441207140E+03  0.20021166105E+03  0.12508731093E+03 0.  0.
          5    1    3    3  502    0  0.68755481451E+01  0.70913962867E+02  0.10271707411E+03  0.12507730812E+03  0.41800000000E+01 0.  1.
         -5    1    3    3    0  502  0.10111173442E+02 -0.53414324081E+02  0.51694997293E+02  0.75134352932E+02  0.41800000000E+01 0.  1.
        -11    1    1    2    0    0 -0.43218971224E+02  0.11539519318E+02  0.81832264478E+02  0.93260707103E+02  0.00000000000E+00 0. -1.
         11    1    1    2    0    0  0.26232249637E+02 -0.29039158103E+02  0.11073529370E+02  0.40669726789E+02  0.00000000000E+00 0.  1.
</event>
<event>
 7    1  0.2651429E-009  0.1540470E+03  0.7561462E-02  0.1195586E+00
          2   -1    0    0  501    0  0.00000000000E+00  0.00000000000E+00  0.39077861720E+03  0.39077861720E+03  0.00000000000E+00 0. -1.
         -2   -1    0    0    0  501 -0.00000000000E+00 -0.00000000000E+00 -0.67588617006E+02  0.67588617006E+02  0.00000000000E+00 0.  1.
         25    2    1    2    0    0  0.63451696749E+02 -0.86327990524E+02  0.24276098331E+03  0.29335816495E+03  0.12508988031E+03 0.  0.
          5    1    3    3  502    0 -0.37882238190E+02 -0.28416214001E+02  0.79385237955E+02  0.92531257387E+02  0.41800000000E+01 0.  1.
         -5    1    3    3    0  502  0.10133393494E+03 -0.57911776523E+02  0.16337574536E+03  0.20082690756E+03  0.41800000000E+01 0.  1.
        -11    1    1    2    0    0 -0.79320472765E+02  0.29281926775E+02  0.52644402985E+02  0.99602217852E+02  0.00000000000E+00 0. -1.
         11    1    1    2    0    0  0.15868776016E+02  0.57046063748E+02  0.27784613899E+02  0.65406851407E+02  0.00000000000E+00 0.  1.
</event>
<event>
 7    1  0.2651429E-009  0.9884752E+02  0.7561462E-02  0.1282738E+00
         -2   -1    0    0    0  501 -0.00000000000E+00  0.00000000000E+00  0.30874073341E+02  0.30874073341E+02  0.00000000000E+00 0.  1.
          2   -1    0    0  501    0  0.00000000000E+00 -0.00000000000E+00 -0.52001294005E+03  0.52001294005E+03  0.00000000000E+00 0. -1.
         25    2    1    2    0    0  0.55370094194E+02  0.29141123401E+01 -0.35168615048E+03  0.37736614302E+03  0.12509083928E+03 0.  0.
          5    1    3    3  502    0  0.67417922632E+02 -0.17911299261E+02 -0.87160728238E+02  0.11171596072E+03  0.41800000000E+01 0.  1.
         -5    1    3    3    0  502 -0.12047828438E+02  0.20825411601E+02 -0.26452542225E+03  0.26565018230E+03  0.41800000000E+01 0.  1.
        -11    1    1    2    0    0  0.84741162628E+01  0.30274604601E+02 -0.25698147663E+02  0.40604890389E+02  0.00000000000E+00 0.  1.
         11    1    1    2    0    0 -0.63844210457E+02 -0.33188716941E+02 -0.11175456856E+03  0.13291597999E+03  0.00000000000E+00 0. -1.
</event>
<event>
 7    1  0.2651429E-009  0.1883708E+03  0.7561462E-02  0.1159939E+00
         -2   -1    0    0    0  501 -0.00000000000E+00  0.00000000000E+00  0.12818518025E+03  0.12818518025E+03  0.00000000000E+00 0.  1.
          2   -1    0    0  501    0  0.00000000000E+00 -0.00000000000E+00 -0.41120687198E+03  0.41120687198E+03  0.00000000000E+00 0. -1.
         25    2    1    2    0    0  0.80091736256E+02 -0.16435438678E+03 -0.44472336324E+02  0.22594922190E+03  0.12509281158E+03 0.  0.
          5    1    3    3  502    0  0.42158397746E+02 -0.13950725729E+03  0.19844976680E+02  0.14714245083E+03  0.41800000000E+01 0. -1.
         -5    1    3    3    0  502  0.37933338510E+02 -0.24847129495E+02 -0.64317313005E+02  0.78806771072E+02  0.41800000000E+01 0. -1.
        -11    1    1    2    0    0 -0.21272569414E+02  0.78521248295E+02 -0.43202200710E+02  0.92111556221E+02  0.00000000000E+00 0.  1.
         11    1    1    2    0    0 -0.58819166842E+02  0.85833138489E+02 -0.19534715469E+03  0.22133127410E+03  0.00000000000E+00 0. -1.
</event>
<event>
 7    1  0.2651429E-009  0.9640332E+02  0.7561462E-02  0.1288046E+00
         -3   -1    0    0    0  501 -0.00000000000E+00  0.00000000000E+00  0.14832498823E+03  0.14832498823E+03  0.00000000000E+00 0.  1.
          3   -1    0    0  501    0  0.00000000000E+00 -0.00000000000E+00 -0.98032132613E+02  0.98032132613E+02  0.00000000000E+00 0. -1.
         25    2    1    2    0    0  0.28398269326E+02  0.31618480345E+02  0.37196786793E+02  0.13724686708E+03  0.12508761560E+03 0.  0.
          5    1    3    3  502    0  0.27550699375E+01 -0.28713496107E+02 -0.31005996809E+02  0.42554664929E+02  0.41800000000E+01 0. -1.
         -5    1    3    3    0  502  0.25643199389E+02  0.60331976452E+02  0.68202783602E+02  0.94692202153E+02  0.41800000000E+01 0. -1.
        -11    1    1    2    0    0  0.27747789458E+02  0.84364758318E+01  0.25992882518E+02  0.38945396208E+02  0.00000000000E+00 0.  1.
         11    1    1    2    0    0 -0.56146058784E+02 -0.40054956177E+02 -0.12896813697E+02  0.70164857549E+02  0.00000000000E+00 0. -1.
</event>
<event>
 7    1  0.2651429E-009  0.1346824E+03  0.7561462E-02  0.1220669E+00
          1   -1    0    0  501    0  0.00000000000E+00  0.00000000000E+00  0.44350437630E+03  0.44350437630E+03  0.00000000000E+00 0. -1.
         -1   -1    0    0    0  501 -0.00000000000E+00 -0.00000000000E+00 -0.46259034112E+02  0.46259034112E+02  0.00000000000E+00 0.  1.
         25    2    1    2    0    0  0.82104179124E+02 -0.16541400196E+02  0.14954236840E+03  0.21219176816E+03  0.12509081653E+03 0.  0.
          5    1    3    3  502    0  0.76338102107E+02  0.44134695929E+02  0.75179606534E+02  0.11595181265E+03  0.41800000000E+01 0.  1.
         -5    1    3    3    0  502  0.57660770178E+01 -0.60676096126E+02  0.74362761865E+02  0.96239955515E+02  0.41800000000E+01 0.  1.
        -11    1    1    2    0    0 -0.41650810613E+02  0.51705596372E+02  0.96376349582E+02  0.11703272824E+03  0.00000000000E+00 0.  1.
         11    1    1    2    0    0 -0.40453368512E+02 -0.35164196176E+02  0.15132662421E+03  0.16053891401E+03  0.00000000000E+00 0. -1.
</event>
<event>
 6    1  0.2651429E-009  0.1511521E+03  0.7561462E-02  0.1199064E+00
          2   -1    0    0  501    0  0.00000000000E+00  0.00000000000E+00  0.27991542851E+02  0.27991542851E+02  0.00000000000E+00 0.  1.
         -2   -1    0    0    0  501 -0.00000000000E+00 -0.00000000000E+00 -0.94417802449E+03  0.94417802449E+03  0.00000000000E+00 0. -1.
          5    1    1    2  502    0 -0.37811548748E+02  0.24628345447E+02 -0.60437643751E+02  0.75541047122E+02  0.41800000000E+01 0. -1.
         -5    1    1    2    0  502  0.51303596027E+02  0.94051701418E+02 -0.48183576687E+03  0.49362025904E+03  0.41800000000E+01 0. -1.
        -11    1    1    2    0    0 -0.52157555574E+02 -0.76048271126E+02 -0.24707579178E+03  0.26372371344E+03  0.00000000000E+00 0. -1.
         11    1    1    2    0    0  0.38665508294E+02 -0.42631775739E+02 -0.12683727924E+03  0.13928454774E+03  0.00000000000E+00 0.  1.
</event>
<event>
 7    1  0.2651429E-009  0.6896863E+02  0.7561462E-02  0.1363636E+00
         -3   -1    0    0    0  501 -0.00000000000E+00  0.00000000000E+00  0.28289410639E+02  0.28289410639E+02  0.00000000000E+00 0.  1.
          3   -1    0    0  501    0  0.00000000000E+00 -0.00000000000E+00 -0.45616402951E+03  0.45616402951E+03  0.00000000000E+00 0. -1.
         25    2    1    2    0    0 -0.24939204963E+02  0.87068503614E+01 -0.23077030137E+03  0.26381738800E+03  0.12508760541E+03 0.  0.
          5    1    3    3  502    0 -0.16218791128E+02 -0.11313438457E+02  0.96317324635E+01  0.22389411462E+02  0.41800000000E+01 0. -1.
         -5    1    3    3    0  502 -0.87204138347E+01  0.20020288818E+02 -0.24040203383E+03  0.24142797653E+03  0.41800000000E+01 0. -1.
        -11    1    1    2    0    0  0.19074262572E+02  0.41116064973E+02 -0.64274064182E+02  0.78648036326E+02  0.00000000000E+00 0.  1.
         11    1    1    2    0    0  0.58649423906E+01 -0.49822915335E+02 -0.13283025331E+03  0.14198801582E+03  0.00000000000E+00 0. -1.
</event>
<event>
 7    1  0.2651429E-009  0.8340070E+02  0.7561462E-02  0.1319669E+00
          2   -1    0    0  501    0  0.00000000000E+00  0.00000000000E+00  0.63064879087E+02  0.63064879087E+02  0.00000000000E+00 0.  1.
         -2   -1    0    0    0  501 -0.00000000000E+00 -0.00000000000E+00 -0.17480984127E+03  0.17480984127E+03  0.00000000000E+00 0. -1.
         25    2    1    2    0    0 -0.11612135663E+02  0.12056187778E+02 -0.60279258379E+02  0.13986005432E+03  0.12508817868E+03 0.  0.
          5    1    3    3  502    0  0.39608458728E+02 -0.32177295072E+02 -0.33282518218E+01  0.51310408117E+02  0.41800000000E+01 0.  1.
         -5    1    3    3    0  502 -0.51220594391E+02  0.44233482851E+02 -0.56951006557E+02  0.88549646204E+02  0.41800000000E+01 0.  1.
        -11    1    1    2    0    0  0.17841524485E+01  0.17013702976E+02  0.16297306439E+02  0.23627346150E+02  0.00000000000E+00 0.  1.
         11    1    1    2    0    0  0.98279832143E+01 -0.29069890754E+02 -0.67763010239E+02  0.74387319882E+02  0.00000000000E+00 0. -1.
</event>
<event>
 7    1  0.2651429E-009  0.1187430E+03  0.7561462E-02  0.1245185E+00
         -2   -1    0    0    0  501 -0.00000000000E+00  0.00000000000E+00  0.23677676618E+02  0.23677676618E+02  0.00000000000E+00 0.  1.
          2   -1    0    0  501    0  0.00000000000E+00 -0.00000000000E+00 -0.10172048329E+04  0.10172048329E+04  0.00000000000E+00 0. -1.
         25    2    1    2    0    0  0.62575982895E+02 -0.49876820993E+02 -0.77881746791E+03  0.79284803599E+03  0.12509160217E+03 0.  0.
          5    1    3    3  502    0 -0.18479274632E+02  0.29421920051E+02 -0.17673679471E+03  0.18016797710E+03  0.41800000000E+01 0.  1.
         -5    1    3    3    0  502  0.81055257527E+02 -0.79298741044E+02 -0.60208067321E+03  0.61268005888E+03  0.41800000000E+01 0.  1.
        -11    1    1    2    0    0 -0.11828462557E+02 -0.62293654565E+01  0.60486672052E+01  0.14673237387E+02  0.00000000000E+00 0.  1.
         11    1    1    2    0    0 -0.50747520338E+02  0.56106186450E+02 -0.22075835555E+03  0.23336123612E+03  0.00000000000E+00 0. -1.
</event>
<event>
 7    1  0.2651429E-009  0.9587487E+02  0.7561462E-02  0.1289218E+00
          2   -1    0    0  501    0  0.00000000000E+00  0.00000000000E+00  0.39625670134E+03  0.39625670134E+03  0.00000000000E+00 0. -1.
         -2   -1    0    0    0  501 -0.00000000000E+00 -0.00000000000E+00 -0.34553218463E+02  0.34553218463E+02  0.00000000000E+00 0.  1.
         25    2    1    2    0    0  0.13725726344E+02  0.40436071990E+02  0.17270449416E+03  0.21748022708E+03  0.12508930964E+03 0.  0.
          5    1    3    3  502    0  0.12292284517E+02 -0.39226804697E+02  0.10500822763E+03  0.11284521583E+03  0.41800000000E+01 0. -1.
         -5    1    3    3    0  502  0.14334418262E+01  0.79662876687E+02  0.67696266535E+02  0.10463501125E+03  0.41800000000E+01 0. -1.
        -11    1    1    2    0    0  0.18416325787E+02 -0.32786835484E+02  0.23014024205E+02  0.44088353867E+02  0.00000000000E+00 0.  1.
         11    1    1    2    0    0 -0.32142052131E+02 -0.76492365057E+01  0.16598496451E+03  0.16924133886E+03  0.00000000000E+00 0. -1.
</event>
<event>
 7    1  0.2651429E-009  0.1152948E+03  0.7561462E-02  0.1251067E+00
         -1   -1    0    0    0  501 -0.00000000000E+00  0.00000000000E+00  0.26448029143E+02  0.26448029143E+02  0.00000000000E+00 0.  1.
          1   -1    0    0  501    0  0.00000000000E+00 -0.00000000000E+00 -0.88144897984E+03  0.88144897984E+03  0.00000000000E+00 0. -1.
         25    2    1    2    0    0  0.24567156345E+02  0.55680613792E+02 -0.68362712709E+03  0.69763692838E+03  0.12508940413E+03 0.  0.
          5    1    3    3  502    0  0.72601389046E+02  0.51893388848E+02 -0.39420244067E+03  0.40419911198E+03  0.41800000000E+01 0. -1.
         -5    1    3    3    0  502 -0.48034232701E+02  0.37872249439E+01 -0.28942468642E+03  0.29343781640E+03  0.41800000000E+01 0. -1.
        -11    1    1    2    0    0 -0.48671515378E+02 -0.45812060401E+02 -0.17165807077E+03  0.18421225407E+03  0.00000000000E+00 0. -1.
         11    1    1    2    0    0  0.24104359033E+02 -0.98685533907E+01  0.28424717015E+00  0.26047826529E+02  0.00000000000E+00 0.  1.
</event>
<event>
 7    1  0.2651429E-009  0.1273856E+03  0.7561462E-02  0.1231387E+00
         -3   -1    0    0    0  501 -0.00000000000E+00  0.00000000000E+00  0.38098039738E+03  0.38098039738E+03  0.00000000000E+00 0.  1.
          3   -1    0    0  501    0  0.00000000000E+00 -0.00000000000E+00 -0.46979023925E+02  0.46979023925E+02  0.00000000000E+00 0. -1.
         25    2    1    2    0    0 -0.52479737419E+02  0.54552065513E+02  0.15175086375E+03  0.21072354647E+03  0.12508412249E+03 0.  0.
          5    1    3    3  502    0 -0.84728598736E+02  0.69227057925E+02  0.10310607211E+03  0.15039832279E+03  0.41800000000E+01 0. -1.
         -5    1    3    3    0  502  0.32248861317E+02 -0.14674992412E+02  0.48644791639E+02  0.60325223681E+02  0.41800000000E+01 0. -1.
        -11    1    1    2    0    0  0.31600771401E+02  0.16426819257E+02  0.10221551671E+03  0.10824260252E+03  0.00000000000E+00 0.  1.
         11    1    1    2    0    0  0.20878966019E+02 -0.70978884770E+02  0.80034992989E+02  0.10899327231E+03  0.00000000000E+00 0. -1.
</event>
<event>
 7    1  0.2651429E-009  0.1518364E+03  0.7561462E-02  0.1198234E+00
          3   -1    0    0  501    0  0.00000000000E+00  0.00000000000E+00  0.60216708141E+02  0.60216708141E+02  0.00000000000E+00 0. -1.
         -3   -1    0    0    0  501 -0.00000000000E+00 -0.00000000000E+00 -0.39943381825E+03  0.39943381825E+03  0.00000000000E+00 0.  1.
         25    2    1    2    0    0  0.28389416465E+02  0.10654284326E+03 -0.17549696188E+03  0.24208132142E+03  0.12508735401E+03 0.  0.
          5    1    3    3  502    0  0.70206005277E+02  0.94026903306E+02 -0.97582055023E+02  0.15267505227E+03  0.41800000000E+01 0.  1.
         -5    1    3    3    0  502 -0.41816588812E+02  0.12515939952E+02 -0.77914906859E+02  0.89406269152E+02  0.41800000000E+01 0.  1.
        -11    1    1    2    0    0  0.20004911895E+02 -0.88535993453E+02 -0.11569971731E+03  0.14705523867E+03  0.00000000000E+00 0.  1.
         11    1    1    2    0    0 -0.48394328360E+02 -0.18006849805E+02 -0.48020430918E+02  0.70513966297E+02  0.00000000000E+00 0. -1.
</event>
<event>
 6    1  0.2651429E-009  0.1136001E+03  0.7561462E-02  0.1254045E+00
          1   -1    0    0  501    0  0.00000000000E+00  0.00000000000E+00  0.29193401964E+03  0.29193401964E+03  0.00000000000E+00 0. -1.
         -1   -1    0    0    0  501 -0.00000000000E+00 -0.00000000000E+00 -0.51210767895E+02  0.51210767895E+02  0.00000000000E+00 0.  1.
          5    1    1    2  502    0  0.62256157624E+02 -0.20207340388E+02  0.77018654494E+02  0.10116081903E+03  0.41800000000E+01 0. -1.
         -5    1    1    2    0  502 -0.57758572572E+02 -0.28147197118E+02  0.32567512579E+02  0.72155614381E+02  0.41800000000E+01 0. -1.
        -11    1    1    2    0    0  0.14564946855E+02  0.68182329165E+02  0.12258420403E+03  0.14102430559E+03  0.00000000000E+00 0. -1.
         11    1    1    2    0    0 -0.19062531908E+02 -0.19827791659E+02  0.85528806394E+01  0.28804048536E+02  0.00000000000E+00 0.  1.
</event>
<event>
 7    1  0.2651429E-009  0.1071473E+03  0.7561462E-02  0.1265946E+00
          1   -1    0    0  501    0  0.00000000000E+00  0.00000000000E+00  0.40486182364E+02  0.40486182364E+02  0.00000000000E+00 0. -1.
         -1   -1    0    0    0  501 -0.00000000000E+00 -0.00000000000E+00 -0.52152888387E+03  0.52152888387E+03  0.00000000000E+00 0.  1.
         25    2    1    2    0    0 -0.86593608844E+02 -0.15079577124E+02 -0.18405520813E+03  0.23927088650E+03  0.12509352800E+03 0.  0.
          5    1    3    3  502    0 -0.67590816693E+02 -0.30544455673E+02 -0.19750221029E+03  0.21101203222E+03  0.41800000000E+01 0.  1.
         -5    1    3    3    0  502 -0.19002792151E+02  0.15464878549E+02  0.13447002157E+02  0.28258854277E+02  0.41800000000E+01 0.  1.
        -11    1    1    2    0    0  0.17680431211E+02 -0.28554317879E+02 -0.15852172830E+03  0.16204038095E+03  0.00000000000E+00 0.  1.
         11    1    1    2    0    0  0.68913177633E+02  0.43633895003E+02 -0.13846576508E+03  0.16070379879E+03  0.00000000000E+00 0. -1.
</event>
<event>
 7    1  0.2651429E-009  0.2169658E+03  0.7561462E-02  0.1136166E+00
         -1   -1    0    0    0  501 -0.00000000000E+00  0.00000000000E+00  0.36784913954E+02  0.36784913954E+02  0.00000000000E+00 0.  1.
          1   -1    0    0  501    0  0.00000000000E+00 -0.00000000000E+00 -0.13173985032E+04  0.13173985032E+04  0.00000000000E+00 0. -1.
         25    2    1    2    0    0 -0.10378412449E+03  0.15898786787E+03 -0.72946865573E+03  0.76408124221E+03  0.12508932155E+03 0.  0.
          5    1    3    3  502    0 -0.76175431163E+02  0.14609606047E+02 -0.30997865696E+03  0.31956279050E+03  0.41800000000E+01 0. -1.
         -5    1    3    3    0  502 -0.27608693326E+02  0.14437826183E+03 -0.41948999877E+03  0.44451845170E+03  0.41800000000E+01 0. -1.
        -11    1    1    2    0    0  0.10654232775E+03 -0.88070094211E+02 -0.32783564133E+03  0.35578619538E+03  0.00000000000E+00 0. -1.
         11    1    1    2    0    0 -0.27582032615E+01 -0.70917773662E+02 -0.22330929216E+03  0.23431597955E+03  0.00000000000E+00 0.  1.
</event>
<event>
 7    1  0.2651429E-009  0.1218372E+03  0.7561462E-02  0.1240097E+00
         -3   -1    0    0    0  501 -0.00000000000E+00  0.00000000000E+00  0.16332302640E+02  0.16332302640E+02  0.00000000000E+00 0.  1.
          3   -1    0    0  501    0  0.00000000000E+00 -0.00000000000E+00 -0.16710652665E+04  0.16710652665E+04  0.00000000000E+00 0. -1.
         25    2    1    2    0    0  0.52867435542E+01 -0.76650141596E+02 -0.13943581769E+04  0.14020647401E+04  0.12509043124E+03 0.  0.
          5    1    3    3  502    0  0.61676639981E+02 -0.58734207999E+02 -0.69916255807E+03  0.70434328997E+03  0.41800000000E+01 0. -1.
         -5    1    3    3    0  502 -0.56389896427E+02 -0.17915933597E+02 -0.69519561883E+03  0.69772145010E+03  0.41800000000E+01 0. -1.
        -11    1    1    2    0    0 -0.33996760037E+02  0.38929653160E+02 -0.58921943183E+02  0.78377885763E+02  0.00000000000E+00 0.  1.
         11    1    1    2    0    0  0.28710016483E+02  0.37720488436E+02 -0.20145284379E+03  0.20695494332E+03  0.00000000000E+00 0. -1.
</event>
<event>
 7    1  0.2651429E-009  0.1125920E+03  0.7561462E-02  0.1255844E+00
          2   -1    0    0  501    0  0.00000000000E+00  0.00000000000E+00  0.24378298535E+03  0.24378298535E+03  0.00000000000E+00 0. -1.
         -2   -1    0    0    0  501 -0.00000000000E+00 -0.00000000000E+00 -0.10220431575E+03  0.10220431575E+03  0.00000000000E+00 0.  1.
         25    2    1    2    0    0  0.38274098120E+02  0.28286693419E+02  0.18966357330E+03  0.23213478069E+03  0.12509692945E+03 0.  0.
          5    1    3    3  502    0  0.73079015574E+02  0.42970008337E+02  0.16840825225E+03  0.18858890730E+03  0.41800000000E+01 0.  1.
         -5    1    3    3    0  502 -0.34804917454E+02 -0.14683314918E+02  0.21255321051E+02  0.43545873386E+02  0.41800000000E+01 0.  1.
        -11    1    1    2    0    0 -0.38067709828E+02 -0.59743898456E+02 -0.26200253514E+02  0.75531034803E+02  0.00000000000E+00 0. -1.
         11    1    1    2    0    0 -0.20638829200E+00  0.31457205037E+02 -0.21884650184E+02  0.38321485599E+02  0.00000000000E+00 0.  1.
</event>
<event>
 7    1  0.2651429E-009  0.8949248E+02  0.7561462E-02  0.1304085E+00
         -2   -1    0    0    0  501 -0.00000000000E+00  0.00000000000E+00  0.14342002146E+03  0.14342002146E+03  0.00000000000E+00 0.  1.
          2   -1    0    0  501    0  0.00000000000E+00 -0.00000000000E+00 -0.82196328035E+02  0.82196328035E+02  0.00000000000E+00 0. -1.
         25    2    1    2    0    0 -0.42883673221E+01 -0.46886378398E+01  0.29451639290E+02  0.12866620173E+03  0.12508884439E+03 0.  0.
          5    1    3    3  502    0 -0.10652731458E+01 -0.64615841583E+02  0.10592713286E+02  0.65620269469E+02  0.41800000000E+01 0.  1.
         -5    1    3    3    0  502 -0.32230941763E+01  0.59927203743E+02  0.18858926003E+02  0.63045932260E+02  0.41800000000E+01 0.  1.
        -11    1    1    2    0    0  0.28237737905E+02 -0.41433189583E+01  0.55302928062E+02  0.62233036132E+02  0.00000000000E+00 0.  1.
         11    1    1    2    0    0 -0.23949370583E+02  0.88319567981E+01 -0.23530873929E+02  0.34717111632E+02  0.00000000000E+00 0. -1.
</event>
<event>
 7    1  0.2651429E-009  0.1104031E+03  0.7561462E-02  0.1259825E+00
         -1   -1    0    0    0  501 -0.00000000000E+00  0.00000000000E+00  0.18174814927E+03  0.18174814927E+03  0.00000000000E+00 0.  1.
          1   -1    0    0  501    0  0.00000000000E+00 -0.00000000000E+00 -0.98215067746E+02  0.98215067746E+02  0.00000000000E+00 0. -1.
         25    2    1    2    0    0 -0.48543438084E+02 -0.55607232585E+02  0.17369057193E+02  0.14628205651E+03  0.12509247065E+03 0.  0.
          5    1    3    3  502    0 -0.52148168910E+02 -0.90783852542E+02  0.29181845653E+02  0.10876668570E+03  0.41800000000E+01 0. -1.
         -5    1    3    3    0  502  0.36047308268E+01  0.35176619956E+02 -0.11812788460E+02  0.37515370811E+02  0.41800000000E+01 0. -1.
        -11    1    1    2    0    0  0.17203649960E+02  0.43578377194E+02  0.83615655994E+02  0.95846848973E+02  0.00000000000E+00 0.  1.
         11    1    1    2    0    0  0.31339788124E+02  0.12028855392E+02 -0.17451631658E+02  0.37834311533E+02  0.00000000000E+00 0. -1.
</event>
<event>
 7    1  0.2651429E-009  0.1057820E+03  0.7561462E-02  0.1268586E+00
          2   -1    0    0  501    0  0.00000000000E+00  0.00000000000E+00  0.53314744079E+03  0.53314744079E+03  0.00000000000E+00 0. -1.
         -2   -1    0    0    0  501 -0.00000000000E+00 -0.00000000000E+00 -0.25883804683E+02  0.25883804683E+02  0.00000000000E+00 0.  1.
         25    2    1    2    0    0 -0.31545983632E+02  0.17784097920E+01  0.20906787811E+03  0.24567634243E+03  0.12509666560E+03 0.  0.
          5    1    3    3  502    0  0.19125015170E+02  0.46226216242E+02  0.41921087390E+02  0.65402440637E+02  0.41800000000E+01 0.  1.
         -5    1    3    3    0  502 -0.50670998802E+02 -0.44447806450E+02  0.16714679072E+03  0.18027390179E+03  0.41800000000E+01 0.  1.
        -11    1    1    2    0    0  0.54000887453E+02 -0.26737368215E+02  0.15560324498E+03  0.16686327503E+03  0.00000000000E+00 0.  1.
         11    1    1    2    0    0 -0.22454903821E+02  0.24958958423E+02  0.14259251301E+03  0.14649162801E+03  0.00000000000E+00 0. -1.
</event>
<event>
 7    1  0.2651429E-009  0.8697227E+02  0.7561462E-02  0.1310354E+00
          1   -1    0    0  501    0  0.00000000000E+00  0.00000000000E+00  0.43208086385E+02  0.43208086385E+02  0.00000000000E+00 0.  1.
         -1   -1    0    0    0  501 -0.00000000000E+00 -0.00000000000E+00 -0.31695106451E+03  0.31695106451E+03  0.00000000000E+00 0. -1.
         25    2    1    2    0    0 -0.27766512905E+01  0.27297356013E+02 -0.19639478228E+03  0.23445518442E+03  0.12508184343E+03 0.  0.
          5    1    3    3  502    0  0.25184878570E+02  0.63471316057E+02 -0.16559245084E+03  0.17916812843E+03  0.41800000000E+01 0. -1.
         -5    1    3    3    0  502 -0.27961529861E+02 -0.36173960044E+02 -0.30802331440E+02  0.55287055985E+02  0.41800000000E+01 0. -1.
        -11    1    1    2    0    0  0.18394743266E+02  0.87237508440E+01  0.15045339545E+02  0.25314672636E+02  0.00000000000E+00 0.  1.
         11    1    1    2    0    0 -0.15618091976E+02 -0.36021106857E+02 -0.92393535393E+02  0.10038929384E+03  0.00000000000E+00 0. -1.
</event>
<event>
 7    1  0.2651429E-009  0.1609881E+03  0.7561462E-02  0.1187586E+00
         -1   -1    0    0    0  501 -0.00000000000E+00  0.00000000000E+00  0.16609011736E+02  0.16609011736E+02  0.00000000000E+00 0.  1.
          1   -1    0    0  501    0  0.00000000000E+00 -0.00000000000E+00 -0.17188874079E+04  0.17188874079E+04  0.00000000000E+00 0. -1.
         25    2    1    2    0    0 -0.68118492112E+02  0.10418015118E+03 -0.10647737484E+04  0.10792985062E+04  0.12509395366E+03 0.  0.
          5    1    3    3  502    0 -0.24082456944E+02  0.11892058288E+03 -0.89655316004E+03  0.90473593437E+03  0.41800000000E+01 0. -1.
         -5    1    3    3    0  502 -0.44036035168E+02 -0.14740431699E+02 -0.16822058838E+03  0.17456257180E+03  0.41800000000E+01 0. -1.
        -11    1    1    2    0    0  0.59501531071E+02 -0.11176216936E+02 -0.20667717130E+03  0.21536200491E+03  0.00000000000E+00 0.  1.
         11    1    1    2    0    0  0.86169610414E+01 -0.93003934247E+02 -0.43082747648E+03  0.44083590858E+03  0.00000000000E+00 0. -1.
</event>
<event>
 7    1  0.2651429E-009  0.1472951E+03  0.7561462E-02  0.1203837E+00
         -2   -1    0    0    0  501 -0.00000000000E+00  0.00000000000E+00  0.49222061247E+02  0.49222061247E+02  0.00000000000E+00 0.  1.
          2   -1    0    0  501    0  0.00000000000E+00 -0.00000000000E+00 -0.75008599527E+03  0.75008599527E+03  0.00000000000E+00 0. -1.
         25    2    1    2    0    0 -0.51108650021E+02  0.87326354138E+02 -0.11618331562E+03  0.19845096023E+03  0.12508490937E+03 0.  0.
          5    1    3    3  502    0 -0.33048777242E+01  0.10547515508E+03 -0.56588446343E+02  0.11981508759E+03  0.41800000000E+01 0.  1.
         -5    1    3    3    0  502 -0.47803772297E+02 -0.18148800938E+02 -0.59594869279E+02  0.78635872639E+02  0.41800000000E+01 0.  1.
        -11    1    1    2    0    0 -0.13854470660E+02 -0.68718772227E+02 -0.26525984392E+03  0.27436654462E+03  0.00000000000E+00 0. -1.
         11    1    1    2    0    0  0.64963120681E+02 -0.18607581911E+02 -0.31942077449E+03  0.32649055167E+03  0.00000000000E+00 0.  1.
</event>
<event>
 7    1  0.2651429E-009  0.3241929E+03  0.7561462E-02  0.1073736E+00
         -2   -1    0    0    0  501 -0.00000000000E+00  0.00000000000E+00  0.43236364957E+03  0.43236364957E+03  0.00000000000E+00 0. -1.
          2   -1    0    0  501    0  0.00000000000E+00 -0.00000000000E+00 -0.34140689492E+03  0.34140689492E+03  0.00000000000E+00 0.  1.
         25    2    1    2    0    0  0.29937807378E+03  0.92003841209E+02 -0.14821704059E+03  0.36838567456E+03  0.12509107180E+03 0.  0.
          5    1    3    3  502    0  0.12690922702E+03  0.10127714414E+03 -0.92185673282E+02  0.18675835346E+03  0.41800000000E+01 0.  1.
         -5    1    3    3    0  502  0.17246884676E+03 -0.92733029267E+01 -0.56031367307E+02  0.18162732110E+03  0.41800000000E+01 0.  1.
        -11    1    1    2    0    0 -0.26411521657E+03 -0.81058134158E+02  0.16310272845E+03  0.32082669584E+03  0.00000000000E+00 0.  1.
         11    1    1    2    0    0 -0.35262857208E+02 -0.10945707051E+02  0.76071066794E+02  0.84558174085E+02  0.00000000000E+00 0. -1.
</event>
<event>
 7    1  0.2651429E-009  0.1739115E+03  0.7561462E-02  0.1173829E+00
         -2   -1    0    0    0  501 -0.00000000000E+00  0.00000000000E+00  0.13941828662E+03  0.13941828662E+03  0.00000000000E+00 0.  1.
          2   -1    0    0  501    0  0.00000000000E+00 -0.00000000000E+00 -0.26064777616E+03  0.26064777616E+03  0.00000000000E+00 0. -1.
         25    2    1    2    0    0 -0.15470769635E+03  0.19413420262E+02 -0.85857357747E+02  0.21755514572E+03  0.12508958130E+03 0.  0.
          5    1    3    3  502    0 -0.44350918458E+02  0.39054889608E+02  0.20784269114E+02  0.62783330694E+02  0.41800000000E+01 0.  1.
         -5    1    3    3    0  502 -0.11035677790E+03 -0.19641469346E+02 -0.10664162686E+03  0.15477181502E+03  0.41800000000E+01 0.  1.
        -11    1    1    2    0    0  0.12107243629E+03  0.22004310706E+02 -0.10089218927E+02  0.12346868776E+03  0.00000000000E+00 0.  1.
         11    1    1    2    0    0  0.33635260064E+02 -0.41417730968E+02 -0.25282912863E+02  0.59042229302E+02  0.00000000000E+00 0. -1.
</event>
<event>
 7    1  0.2651429E-009  0.1224756E+03  0.7561462E-02  0.1239068E+00
         -2   -1    0    0    0  501 -0.00000000000E+00  0.00000000000E+00  0.51647191832E+02  0.51647191832E+02  0.00000000000E+00 0. -1.
          2   -1    0    0  501    0  0.00000000000E+00 -0.00000000000E+00 -0.33458217622E+03  0.33458217622E+03  0.00000000000E+00 0.  1.
         25    2    1    2    0    0 -0.21798861880E+01  0.73296990084E+02 -0.15307780745E+03  0.21085203889E+03  0.12509423053E+03 0.  0.
          5    1    3    3  502    0 -0.56970708337E+02  0.47634910775E+02 -0.45031330656E+02  0.86948487472E+02  0.41800000000E+01 0. -1.
         -5    1    3    3    0  502  0.54790822149E+02  0.25662079309E+02 -0.10804647679E+03  0.12390355142E+03  0.41800000000E+01 0. -1.
        -11    1    1    2    0    0  0.34409704285E+02 -0.54853583680E+01 -0.14505112653E+02  0.37742750277E+02  0.00000000000E+00 0. -1.
         11    1    1    2    0    0 -0.32229818097E+02 -0.67811631716E+02 -0.11535206429E+03  0.13763457889E+03  0.00000000000E+00 0.  1.
</event>
<event>
 7    1  0.2651429E-009  0.1610329E+03  0.7561462E-02  0.1187536E+00
          3   -1    0    0  501    0  0.00000000000E+00  0.00000000000E+00  0.47361351855E+02  0.47361351855E+02  0.00000000000E+00 0. -1.
         -3   -1    0    0    0  501 -0.00000000000E+00 -0.00000000000E+00 -0.79529624787E+03  0.79529624787E+03  0.00000000000E+00 0.  1.
         25    2    1    2    0    0 -0.20950268755E+02  0.15205619130E+03 -0.49040601439E+03  0.52887223490E+03  0.12509109811E+03 0.  0.
          5    1    3    3  502    0  0.21355405497E+01  0.45694855383E+02 -0.27966168242E+02  0.53778799801E+02  0.41800000000E+01 0. -1.
         -5    1    3    3    0  502 -0.23085809305E+02  0.10636133591E+03 -0.46243984615E+03  0.47509343510E+03  0.41800000000E+01 0. -1.
        -11    1    1    2    0    0  0.45121197919E+02 -0.10585432119E+03 -0.22390152551E+03  0.25173985172E+03  0.00000000000E+00 0.  1.
         11    1    1    2    0    0 -0.24170929164E+02 -0.46201870103E+02 -0.33627356114E+02  0.62045513108E+02  0.00000000000E+00 0. -1.
</event>
<event>
 7    1  0.2651429E-009  0.1372429E+03  0.7561462E-02  0.1217088E+00
         -4   -1    0    0    0  501 -0.00000000000E+00  0.00000000000E+00  0.10682970956E+03  0.10682970956E+03  0.00000000000E+00 0. -1.
          4   -1    0    0  501    0  0.00000000000E+00 -0.00000000000E+00 -0.19526329794E+03  0.19526329794E+03  0.00000000000E+00 0.  1.
         25    2    1    2    0    0 -0.37391262744E+02  0.88298257645E+02 -0.42455942101E+02  0.16323232622E+03  0.12509035322E+03 0.  0.
          5    1    3    3  502    0  0.38166830286E+02  0.35189025612E+02 -0.47712758052E+02  0.70632528898E+02  0.41800000000E+01 0. -1.
         -5    1    3    3    0  502 -0.75558093031E+02  0.53109232033E+02  0.52568159516E+01  0.92599797319E+02  0.41800000000E+01 0. -1.
        -11    1    1    2    0    0 -0.25130706976E+02 -0.47066102305E+01 -0.16359556296E+02  0.30353577963E+02  0.00000000000E+00 0.  1.
         11    1    1    2    0    0  0.62521969720E+02 -0.83591647414E+02 -0.29618089985E+02  0.10850710331E+03  0.00000000000E+00 0. -1.
</event>
<event>
 7    1  0.2651429E-009  0.1177453E+03  0.7561462E-02  0.1246864E+00
          2   -1    0    0  501    0  0.00000000000E+00  0.00000000000E+00  0.47051000768E+03  0.47051000768E+03  0.00000000000E+00 0.  1.
         -2   -1    0    0    0  501 -0.00000000000E+00 -0.00000000000E+00 -0.48294184626E+02  0.48294184626E+02  0.00000000000E+00 0. -1.
         25    2    1    2    0    0  0.68124189688E+02  0.76337556175E+02  0.23878710021E+03  0.28832977389E+03  0.12508577690E+03 0.  0.
          5    1    3    3  502    0  0.45207374035E+02  0.21213746192E+01  0.98038953857E+01  0.46495114390E+02  0.41800000000E+01 0. -1.
         -5    1    3    3    0  502  0.22916815653E+02  0.74216181556E+02  0.22898320482E+03  0.24183465950E+03  0.41800000000E+01 0. -1.
        -11    1    1    2    0    0  0.43814684338E+01 -0.19889282596E+02  0.11267856841E+03  0.11450432571E+03  0.00000000000E+00 0.  1.
         11    1    1    2    0    0 -0.72505658122E+02 -0.56448273579E+02  0.70750154444E+02  0.11597009271E+03  0.00000000000E+00 0. -1.
</event>
<event>
 7    1  0.2651429E-009  0.2772846E+03  0.7561462E-02  0.1097181E+00
         -2   -1    0    0    0  501 -0.00000000000E+00  0.00000000000E+00  0.90446906055E+02  0.90446906055E+02  0.00000000000E+00 0.  1.
          2   -1    0    0  501    0  0.00000000000E+00 -0.00000000000E+00 -0.90238028797E+03  0.90238028797E+03  0.00000000000E+00 0. -1.
         25    2    1    2    0    0 -0.13833454337E+03  0.22456466340E+03 -0.40315468480E+03  0.49774166888E+03  0.12508930859E+03 0.  0.
          5    1    3    3  502    0  0.27537692454E+01  0.10033983346E+03 -0.17804450393E+03  0.20443332215E+03  0.41800000000E+01 0. -1.
         -5    1    3    3    0  502 -0.14108831262E+03  0.12422482994E+03 -0.22511018086E+03  0.29330834673E+03  0.41800000000E+01 0. -1.
        -11    1    1    2    0    0  0.46319717577E+02 -0.10840598111E+03 -0.25809844567E+03  0.28374668392E+03  0.00000000000E+00 0.  1.
         11    1    1    2    0    0  0.92014825795E+02 -0.11615868229E+03 -0.15068025145E+03  0.21133884123E+03  0.00000000000E+00 0. -1.
</event>
<event>
 7    1  0.2651429E-009  0.9583928E+02  0.7561462E-02  0.1289297E+00
          1   -1    0    0  501    0  0.00000000000E+00  0.00000000000E+00  0.18243314636E+03  0.18243314636E+03  0.00000000000E+00 0. -1.
         -1   -1    0    0    0  501 -0.00000000000E+00 -0.00000000000E+00 -0.87695947379E+02  0.87695947379E+02  0.00000000000E+00 0.  1.
         25    2    1    2    0    0 -0.19551802933E+02 -0.15502325151E+02 -0.10847204107E+02  0.12801022626E+03  0.12508541525E+03 0.  0.
          5    1    3    3  502    0 -0.30775257650E+02 -0.52273900872E+02  0.33295312980E+02  0.69323354378E+02  0.41800000000E+01 0.  1.
         -5    1    3    3    0  502  0.11223454717E+02  0.36771575721E+02 -0.44142517088E+02  0.58686871885E+02  0.41800000000E+01 0.  1.
        -11    1    1    2    0    0  0.42757234206E+02 -0.22011619144E+02  0.37452446235E+02  0.60953902117E+02  0.00000000000E+00 0.  1.
         11    1    1    2    0    0 -0.23205431273E+02  0.37513944295E+02  0.68131956857E+02  0.81164965363E+02  0.00000000000E+00 0. -1.
</event>
<event>
 7    1  0.2651429E-009  0.1086003E+03  0.7561462E-02  0.1263184E+00
         -1   -1    0    0    0  501 -0.00000000000E+00  0.00000000000E+00  0.14515627654E+03  0.14515627654E+03  0.00000000000E+00 0.  1.
          1   -1    0    0  501    0  0.00000000000E+00 -0.00000000000E+00 -0.14890354178E+03  0.14890354178E+03  0.00000000000E+00 0. -1.
         25    2    1    2    0    0  0.21261771606E+02  0.61276131808E+02  0.73028747328E+02  0.15869902849E+03  0.12508139928E+03 0.  0.
          5    1    3    3  502    0 -0.31474294954E+02  0.33861498223E+02  0.85993406366E+02  0.97721904623E+02  0.41800000000E+01 0. -1.
         -5    1    3    3    0  502  0.52736066560E+02  0.27414633585E+02 -0.12964659038E+02  0.60977123865E+02  0.41800000000E+01 0. -1.
        -11    1    1    2    0    0  0.35746132265E+02 -0.25174342924E+02 -0.34929393970E+02  0.55960665442E+02  0.00000000000E+00 0. -1.
         11    1    1    2    0    0 -0.57007903871E+02 -0.36101788884E+02 -0.41846618598E+02  0.79400124386E+02  0.00000000000E+00 0.  1.
</event>
<event>
 7    1  0.2651429E-009  0.7698553E+02  0.7561462E-02  0.1337830E+00
         -2   -1    0    0    0  501 -0.00000000000E+00  0.00000000000E+00  0.70004514598E+02  0.70004514598E+02  0.00000000000E+00 0.  1.
          2   -1    0    0  501    0  0.00000000000E+00 -0.00000000000E+00 -0.18977618069E+03  0.18977618069E+03  0.00000000000E+00 0. -1.
         25    2    1    2    0    0 -0.83141110636E+01 -0.34680418576E+02 -0.46718523047E+02  0.13820834326E+03  0.12508824836E+03 0.  0.
          5    1    3    3  502    0 -0.26049788122E+02  0.14885965765E+02 -0.73134783636E+02  0.79160295701E+02  0.41800000000E+01 0. -1.
         -5    1    3    3    0  502  0.17735677058E+02 -0.49566384342E+02  0.26416260590E+02  0.59048047563E+02  0.41800000000E+01 0. -1.
        -11    1    1    2    0    0 -0.21949215592E+02  0.34156322999E+02  0.19956295742E+01  0.40649784788E+02  0.00000000000E+00 0.  1.
         11    1    1    2    0    0  0.30263326656E+02  0.52409557739E+00 -0.75048772615E+02  0.80922567232E+02  0.00000000000E+00 0. -1.
</event>
<event>
 7    1  0.2651429E-009  0.1541198E+03  0.7561462E-02  0.1195500E+00
         -1   -1    0    0    0  501 -0.00000000000E+00  0.00000000000E+00  0.40805686658E+02  0.40805686658E+02  0.00000000000E+00 0.  1.
          1   -1    0    0  501    0  0.00000000000E+00 -0.00000000000E+00 -0.13227476192E+04  0.13227476192E+04  0.00000000000E+00 0. -1.
         25    2    1    2    0    0 -0.11920773339E+03 -0.30587912700E+02 -0.11467235453E+04  0.11600704282E+04  0.12506960055E+03 0.  0.
          5    1    3    3  502    0 -0.10100845549E+03  0.23707787682E+02 -0.49223216924E+03  0.50306535173E+03  0.41800000000E+01 0.  1.
         -5    1    3    3    0  502 -0.18199277900E+02 -0.54295700381E+02 -0.65449137608E+03  0.65700507651E+03  0.41800000000E+01 0.  1.
        -11    1    1    2    0    0  0.84876351262E+01  0.35160564399E+02 -0.12825030931E+02  0.38376902653E+02  0.00000000000E+00 0.  1.
         11    1    1    2    0    0  0.11072009826E+03 -0.45726516993E+01 -0.12239335625E+03  0.16510597493E+03  0.00000000000E+00 0. -1.
</event>
<event>
 6    1  0.2651429E-009  0.7876126E+02  0.7561462E-02  0.1332604E+00
          2   -1    0    0  501    0  0.00000000000E+00  0.00000000000E+00  0.65369702766E+03  0.65369702766E+03  0.00000000000E+00 0. -1.
         -2   -1    0    0    0  501 -0.00000000000E+00 -0.00000000000E+00 -0.30058966232E+02  0.30058966232E+02  0.00000000000E+00 0.  1.
          5    1    1    2  502    0  0.43535266548E+02 -0.12633044889E+02  0.76821510356E+02  0.89296865062E+02  0.41800000000E+01 0.  1.
         -5    1    1    2    0  502 -0.38369716801E+02  0.70266841222E+00  0.47933436367E+03  0.48088629998E+03  0.41800000000E+01 0.  1.
        -11    1    1    2    0    0 -0.32908859935E+02 -0.13680069428E+02  0.66912332717E+02  0.75811592988E+02  0.00000000000E+00 0.  1.
         11    1    1    2    0    0  0.27743310188E+02  0.25610445905E+02  0.56985468485E+00  0.37761235864E+02  0.00000000000E+00 0. -1.
</event>
<event>
 7    1  0.2651429E-009  0.1808915E+03  0.7561462E-02  0.1166943E+00
          2   -1    0    0  501    0  0.00000000000E+00  0.00000000000E+00  0.10233741949E+04  0.10233741949E+04  0.00000000000E+00 0. -1.
         -2   -1    0    0    0  501 -0.00000000000E+00 -0.00000000000E+00 -0.36349835042E+02  0.36349835042E+02  0.00000000000E+00 0.  1.
         25    2    1    2    0    0  0.14988184658E+02 -0.15297064239E+03  0.63603511723E+03  0.66619370866E+03  0.12509485995E+03 0.  0.
          5    1    3    3  502    0  0.36710162628E+02 -0.16426543662E+03  0.49146606035E+03  0.51950662228E+03  0.41800000000E+01 0.  1.
         -5    1    3    3    0  502 -0.21721977970E+02  0.11294794230E+02  0.14456905688E+03  0.14668708638E+03  0.41800000000E+01 0.  1.
        -11    1    1    2    0    0 -0.36294083883E+02  0.13759681126E+03  0.33169988190E+03  0.36093621963E+03  0.00000000000E+00 0. -1.
         11    1    1    2    0    0  0.21305899225E+02  0.15373831137E+02  0.19289360742E+02  0.32594101666E+02  0.00000000000E+00 0.  1.
</event>
<event>
 7    1  0.2651429E-009  0.9269021E+02  0.7561462E-02  0.1296465E+00
          2   -1    0    0  501    0  0.00000000000E+00  0.00000000000E+00  0.18250765897E+03  0.18250765897E+03  0.00000000000E+00 0. -1.
         -2   -1    0    0    0  501 -0.00000000000E+00 -0.00000000000E+00 -0.76739778270E+02  0.76739778270E+02  0.00000000000E+00 0.  1.
         25    2    1    2    0    0 -0.46060274812E+02  0.22583844026E+02  0.93614261797E+02  0.16444755534E+03  0.12509112486E+03 0.  0.
          5    1    3    3  502    0 -0.36011349854E+01  0.57724202846E+02  0.92488229584E+02  0.10916316585E+03  0.41800000000E+01 0. -1.
         -5    1    3    3    0  502 -0.42459139827E+02 -0.35140358820E+02  0.11260322133E+01  0.55284389491E+02  0.41800000000E+01 0. -1.
        -11    1    1    2    0    0  0.24018323640E+02 -0.38188528811E+02  0.36814056748E+02  0.58228157944E+02  0.00000000000E+00 0. -1.
         11    1    1    2    0    0  0.22041951172E+02  0.15604684785E+02 -0.24660437840E+02  0.36571723957E+02  0.00000000000E+00 0.  1.
</event>
<event>
 7    1  0.2651429E-009  0.7843425E+02  0.7561462E-02  0.1333554E+00
          1   -1    0    0  501    0  0.00000000000E+00  0.00000000000E+00  0.53117595292E+03  0.53117595292E+03  0.00000000000E+00 0. -1.
         -1   -1    0    0    0  501 -0.00000000000E+00 -0.00000000000E+00 -0.23856302134E+02  0.23856302134E+02  0.00000000000E+00 0.  1.
         25    2    1    2    0    0 -0.18834678488E+02  0.55378340354E+02  0.35284387486E+03  0.37890292070E+03  0.12508843910E+03 0.  0.
          5    1    3    3  502    0 -0.25771774606E+02  0.58374770693E+02  0.65890180653E+02  0.91819314560E+02  0.41800000000E+01 0.  1.
         -5    1    3    3    0  502  0.69370961181E+01 -0.29964303393E+01  0.28695369421E+03  0.28708360614E+03  0.41800000000E+01 0.  1.
        -11    1    1    2    0    0  0.38428888729E+02 -0.18780766133E+02  0.86083412372E+02  0.96124141355E+02  0.00000000000E+00 0.  1.
         11    1    1    2    0    0 -0.19594210241E+02 -0.36597574221E+02  0.68392363548E+02  0.80005192991E+02  0.00000000000E+00 0. -1.
</event>
<event>
 7    1  0.2651429E-009  0.1091311E+03  0.7561462E-02  0.1262188E+00
          3   -1    0    0  501    0  0.00000000000E+00  0.00000000000E+00  0.69441726053E+03  0.69441726053E+03  0.00000000000E+00 0.  1.
         -3   -1    0    0    0  501 -0.00000000000E+00 -0.00000000000E+00 -0.29471708749E+02  0.29471708749E+02  0.00000000000E+00 0. -1.
         25    2    1    2    0    0 -0.76176842084E+02 -0.31145008147E+02  0.46825705115E+03  0.49161491480E+03  0.12509051001E+03 0.  0.
          5    1    3    3  502    0  0.10356818595E+02  0.84086425370E+01  0.28269474719E+03  0.28304021172E+03  0.41800000000E+01 0.  1.
         -5    1    3    3    0  502 -0.86533660678E+02 -0.39553650684E+02  0.18556230396E+03  0.20857470308E+03  0.41800000000E+01 0.  1.
        -11    1    1    2    0    0 -0.14138734771E+02  0.30870636954E+01  0.50008102702E+00  0.14480464917E+02  0.00000000000E+00 0.  1.
         11    1    1    2    0    0  0.90315576855E+02  0.28057944452E+02  0.19618841960E+03  0.21779358957E+03  0.00000000000E+00 0. -1.
</event>
<event>
 7    1  0.2651429E-009  0.1157251E+03  0.7561462E-02  0.1250321E+00
          2   -1    0    0  501    0  0.00000000000E+00  0.00000000000E+00  0.17675657389E+03  0.17675657389E+03  0.00000000000E+00 0.  1.
         -2   -1    0    0    0  501 -0.00000000000E+00 -0.00000000000E+00 -0.13819381444E+03  0.13819381444E+03  0.00000000000E+00 0. -1.
         25    2    1    2    0    0  0.68112747475E+02 -0.63783318980E+02  0.84254908285E+02  0.17734786699E+03  0.12508284537E+03 0.  0.
          5    1    3    3  502    0  0.18465611692E+02  0.12623164764E+02  0.83064169503E+02  0.86124629224E+02  0.41800000000E+01 0.  1.
         -5    1    3    3    0  502  0.49647135783E+02 -0.76406483744E+02  0.11907387820E+01  0.91223237766E+02  0.41800000000E+01 0.  1.
        -11    1    1    2    0    0  0.15121735101E+02  0.13254503812E+02 -0.34041316754E+02  0.39536818159E+02  0.00000000000E+00 0. -1.
         11    1    1    2    0    0 -0.83234482576E+02  0.50528815168E+02 -0.11650832090E+02  0.98065703181E+02  0.00000000000E+00 0.  1.
</event>
<event>
 7    1  0.2651429E-009  0.1237016E+03  0.7561462E-02  0.1237113E+00
          3   -1    0    0  501    0  0.00000000000E+00  0.00000000000E+00  0.48113994072E+03  0.48113994072E+03  0.00000000000E+00 0. -1.
         -3   -1    0    0    0  501 -0.00000000000E+00 -0.00000000000E+00 -0.32751854246E+02  0.32751854246E+02  0.00000000000E+00 0.  1.
         25    2    1    2    0    0  0.47629999069E+02 -0.17271690483E+02  0.20243774231E+03  0.24330136527E+03  0.12509031428E+03 0.  0.
          5    1    3    3  502    0 -0.30061642010E+01  0.50015632085E+02  0.84424183001E+02  0.98262482930E+02  0.41800000000E+01 0.  1.
         -5    1    3    3    0  502  0.50636163270E+02 -0.67287322569E+02  0.11801355931E+03  0.14503888234E+03  0.41800000000E+01 0.  1.
        -11    1    1    2    0    0 -0.75783160334E+02  0.30514156649E+02  0.17962063701E+03  0.19732656787E+03  0.00000000000E+00 0. -1.
         11    1    1    2    0    0  0.28153161265E+02 -0.13242466166E+02  0.66329707147E+02  0.73263861826E+02  0.00000000000E+00 0.  1.
</event>
<event>
 7    1  0.2651429E-009  0.1022404E+03  0.7561462E-02  0.1275654E+00
         -2   -1    0    0    0  501 -0.00000000000E+00  0.00000000000E+00  0.57229988831E+02  0.57229988831E+02  0.00000000000E+00 0. -1.
          2   -1    0    0  501    0  0.00000000000E+00 -0.00000000000E+00 -0.22061879218E+03  0.22061879218E+03  0.00000000000E+00 0.  1.
         25    2    1    2    0    0 -0.11903133257E+02  0.50357317934E+01 -0.73514731752E+02  0.14566304493E+03  0.12508502588E+03 0.  0.
          5    1    3    3  502    0  0.27780173072E+01  0.56738373333E+02 -0.71902460613E+02  0.91730020336E+02  0.41800000000E+01 0. -1.
         -5    1    3    3    0  502 -0.14681150564E+02 -0.51702641539E+02 -0.16122711389E+01  0.53933024598E+02  0.41800000000E+01 0. -1.
        -11    1    1    2    0    0 -0.35326346438E+02  0.19540848435E+02 -0.56171271636E+02  0.69173746953E+02  0.00000000000E+00 0.  1.
         11    1    1    2    0    0  0.47229479695E+02 -0.24576580229E+02 -0.33702799959E+02  0.63011989122E+02  0.00000000000E+00 0. -1.
</event>
<event>
 7    1  0.2651429E-009  0.1000070E+03  0.7561462E-02  0.1280281E+00
          2   -1    0    0  501    0  0.00000000000E+00  0.00000000000E+00  0.37384404196E+03  0.37384404196E+03  0.00000000000E+00 0. -1.
         -2   -1    0    0    0  501 -0.00000000000E+00 -0.00000000000E+00 -0.43738109060E+02  0.43738109060E+02  0.00000000000E+00 0.  1.
         25    2    1    2    0    0  0.47626998114E+02  0.47950770993E+02  0.18957385636E+03  0.23696689164E+03  0.12508978107E+03 0.  0.
          5    1    3    3  502    0  0.14068125798E+02  0.82541727295E+02  0.15897453846E+03  0.17972597249E+03  0.41800000000E+01 0.  1.
         -5    1    3    3    0  502  0.33558872316E+02 -0.34590956302E+02  0.30599317897E+02  0.57240919147E+02  0.41800000000E+01 0.  1.
        -11    1    1    2    0    0 -0.11000823629E+02 -0.79949195489E+01 -0.12374094146E+02  0.18386273821E+02  0.00000000000E+00 0.  1.
         11    1    1    2    0    0 -0.36626174486E+02 -0.39955851444E+02  0.15290617069E+03  0.16222898557E+03  0.00000000000E+00 0. -1.
</event>
<event>
 7    1  0.2651429E-009  0.2521881E+03  0.7561462E-02  0.1111930E+00
         -1   -1    0    0    0  501 -0.00000000000E+00  0.00000000000E+00  0.15932227408E+03  0.15932227408E+03  0.00000000000E+00 0. -1.
          1   -1    0    0  501    0  0.00000000000E+00 -0.00000000000E+00 -0.10281051807E+04  0.10281051807E+04  0.00000000000E+00 0.  1.
         25    2    1    2    0    0 -0.36293416758E+02  0.24431470239E+03 -0.88205637171E+03  0.92448861640E+03  0.12509545587E+03 0.  0.
          5    1    3    3  502    0  0.33322778967E+01  0.70596804567E+01 -0.21828432849E+03  0.21846387259E+03  0.41800000000E+01 0.  1.
         -5    1    3    3    0  502 -0.39625694654E+02  0.23725502194E+03 -0.66377204322E+03  0.70602474381E+03  0.41800000000E+01 0.  1.
        -11    1    1    2    0    0  0.50821536209E+02 -0.22558822050E+03  0.31042659558E+02  0.23331635280E+03  0.00000000000E+00 0. -1.
         11    1    1    2    0    0 -0.14528119451E+02 -0.18726481895E+02 -0.17769194448E+02  0.29622485553E+02  0.00000000000E+00 0.  1.
</event>
<event>
 7    1  0.2954508E-009  0.1411724E+03  0.7561462E-02  0.1211760E+00
         -2   -1    0    0    0  501 -0.00000000000E+00  0.00000000000E+00  0.52407968851E+02  0.52407968851E+02  0.00000000000E+00 0.  1.
          2   -1    0    0  501    0  0.00000000000E+00 -0.00000000000E+00 -0.43291102427E+03  0.43291102427E+03  0.00000000000E+00 0. -1.
         25    2    1    2    0    0  0.80866605794E+02 -0.61046132720E+02 -0.24305981733E+03  0.29153330762E+03  0.12509019304E+03 0.  0.
          5    1    3    3  502    0 -0.32717856307E+02 -0.23780184535E+02 -0.50350037410E+02  0.64719038660E+02  0.41800000000E+01 0. -1.
         -5    1    3    3    0  502  0.11358446210E+03 -0.37265948184E+02 -0.19270977992E+03  0.22681426896E+03  0.41800000000E+01 0. -1.
        -11    1    1    2    0    0 -0.91937953379E+02  0.44454379316E+02 -0.70908410942E+02  0.12432530657E+03  0.00000000000E+00 0.  1.
         11    1    1    2    0    0  0.11071347585E+02  0.16591753403E+02 -0.66534827146E+02  0.69460378934E+02  0.00000000000E+00 0. -1.
</event>
<event>
 7    1  0.2651429E-009  0.9682097E+02  0.7561462E-02  0.1287127E+00
         -2   -1    0    0    0  501 -0.00000000000E+00  0.00000000000E+00  0.39683454184E+02  0.39683454184E+02  0.00000000000E+00 0.  1.
          2   -1    0    0  501    0  0.00000000000E+00 -0.00000000000E+00 -0.44823678998E+03  0.44823678998E+03  0.00000000000E+00 0. -1.
         25    2    1    2    0    0 -0.61982266336E+02  0.46295446849E+02 -0.22452051633E+03  0.26840225730E+03  0.12508093271E+03 0.  0.
          5    1    3    3  502    0 -0.75505113357E+01  0.32133517027E+02  0.35506295069E+01  0.33461209002E+02  0.41800000000E+01 0. -1.
         -5    1    3    3    0  502 -0.54431755000E+02  0.14161929821E+02 -0.22807114584E+03  0.23494104829E+03  0.41800000000E+01 0. -1.
        -11    1    1    2    0    0  0.61838916648E+02 -0.62408404816E+02 -0.18343948164E+03  0.20339347096E+03  0.00000000000E+00 0. -1.
         11    1    1    2    0    0  0.14334968753E+00  0.16112957968E+02 -0.59333782476E+00  0.16124515911E+02  0.00000000000E+00 0.  1.
</event>
<event>
 7    1  0.2651429E-009  0.1443094E+03  0.7561462E-02  0.1207645E+00
         -2   -1    0    0    0  501 -0.00000000000E+00  0.00000000000E+00  0.10380708554E+03  0.10380708554E+03  0.00000000000E+00 0.  1.
          2   -1    0    0  501    0  0.00000000000E+00 -0.00000000000E+00 -0.23034866175E+03  0.23034866175E+03  0.00000000000E+00 0. -1.
         25    2    1    2    0    0 -0.85547977229E+02  0.68156019265E+02 -0.65311514120E+02  0.17854612664E+03  0.12509766621E+03 0.  0.
          5    1    3    3  502    0 -0.89409968014E+02  0.87987647426E+02 -0.17826275383E+02  0.12677230365E+03  0.41800000000E+01 0.  1.
         -5    1    3    3    0  502  0.38619907845E+01 -0.19831628161E+02 -0.47485238737E+02  0.51773822983E+02  0.41800000000E+01 0.  1.
        -11    1    1    2    0    0  0.99161304790E+02 -0.32570267485E+02 -0.50957008352E+02  0.11614819582E+03  0.00000000000E+00 0.  1.
         11    1    1    2    0    0 -0.13613327560E+02 -0.35585751780E+02 -0.10273053744E+02  0.39461424838E+02  0.00000000000E+00 0. -1.
</event>
<event>
 7    1  0.2651429E-009  0.7539803E+02  0.7561462E-02  0.1342643E+00
         -2   -1    0    0    0  501 -0.00000000000E+00  0.00000000000E+00  0.39129732489E+02  0.39129732489E+02  0.00000000000E+00 0.  1.
          2   -1    0    0  501    0  0.00000000000E+00 -0.00000000000E+00 -0.30179136085E+03  0.30179136085E+03  0.00000000000E+00 0. -1.
         25    2    1    2    0    0  0.45786958626E+01 -0.10532730281E+02 -0.17053912071E+03  0.21180912829E+03  0.12509041639E+03 0.  0.
          5    1    3    3  502    0  0.25045642682E+02 -0.28190339973E+02  0.11473528658E+01  0.37957453863E+02  0.41800000000E+01 0.  1.
         -5    1    3    3    0  502 -0.20466946820E+02  0.17657609692E+02 -0.17168647358E+03  0.17385167443E+03  0.41800000000E+01 0.  1.
        -11    1    1    2    0    0 -0.14149942033E+02  0.46333160809E+02 -0.30630372827E+02  0.57316685089E+02  0.00000000000E+00 0.  1.
         11    1    1    2    0    0  0.95712461707E+01 -0.35800430528E+02 -0.61492134824E+02  0.71795279960E+02  0.00000000000E+00 0. -1.
</event>
<event>
 7    1  0.2651429E-009  0.3998856E+02  0.7561462E-02  0.1508296E+00
         -2   -1    0    0    0  501 -0.00000000000E+00  0.00000000000E+00  0.14144812670E+03  0.14144812670E+03  0.00000000000E+00 0. -1.
          2   -1    0    0  501    0  0.00000000000E+00 -0.00000000000E+00 -0.12536833938E+03  0.12536833938E+03  0.00000000000E+00 0.  1.
         25    2    1    2    0    0 -0.29951312569E+02  0.74840009047E+01  0.76153053508E+02  0.14966685666E+03  0.12509112290E+03 0.  0.
          5    1    3    3  502    0 -0.22158662723E+02  0.93154128337E+01  0.11100980803E+03  0.11365928527E+03  0.41800000000E+01 0.  1.
         -5    1    3    3    0  502 -0.77926498458E+01 -0.18314119291E+01 -0.34856754520E+02  0.36007571384E+02  0.41800000000E+01 0.  1.
        -11    1    1    2    0    0  0.19707957842E+02  0.13025489697E+02  0.21789142854E+02  0.32137730637E+02  0.00000000000E+00 0. -1.
         11    1    1    2    0    0  0.10243354727E+02 -0.20509490601E+02 -0.81862409046E+02  0.85011878791E+02  0.00000000000E+00 0.  1.
</event>
<event>
 7    1  0.2651429E-009  0.1017343E+03  0.7561462E-02  0.1276691E+00
         -2   -1    0    0    0  501 -0.00000000000E+00  0.00000000000E+00  0.39542758788E+02  0.39542758788E+02  0.00000000000E+00 0.  1.
          2   -1    0    0  501    0  0.00000000000E+00 -0.00000000000E+00 -0.35968614543E+03  0.35968614543E+03  0.00000000000E+00 0. -1.
         25    2    1    2    0    0  0.85735338472E+01 -0.41787874769E+02 -0.13264804622E+03  0.18724838245E+03  0.12508685225E+03 0.  0.
          5    1    3    3  502    0 -0.31414869123E+02 -0.62275425072E+02 -0.12245121079E+03  0.14098543894E+03  0.41800000000E+01 0.  1.
         -5    1    3    3    0  502  0.39988402970E+02  0.20487550303E+02 -0.10196835429E+02  0.46262943511E+02  0.41800000000E+01 0.  1.
        -11    1    1    2    0    0  0.30341672157E+02  0.39055826833E+02 -0.14972119740E+03  0.15767819009E+03  0.00000000000E+00 0. -1.
         11    1    1    2    0    0 -0.38915206004E+02  0.27320479360E+01 -0.37774143021E+02  0.54302331674E+02  0.00000000000E+00 0.  1.
</event>
<event>
 7    1  0.3258221E-009  0.1483025E+03  0.7561462E-02  0.1202574E+00
         -4   -1    0    0    0  501 -0.00000000000E+00  0.00000000000E+00  0.52145412185E+02  0.52145412185E+02  0.00000000000E+00 0.  1.
          4   -1    0    0  501    0  0.00000000000E+00 -0.00000000000E+00 -0.61064369507E+03  0.61064369507E+03  0.00000000000E+00 0. -1.
         25    2    1    2    0    0 -0.12792023804E+03  0.27726121553E+02 -0.19704233914E+03  0.26760202038E+03  0.12511128158E+03 0.  0.
          5    1    3    3  502    0 -0.39573669797E+02 -0.24134450930E+02 -0.12130932225E+01  0.46556321354E+02  0.41800000000E+01 0.  1.
         -5    1    3    3    0  502 -0.88346568247E+02  0.51860572482E+02 -0.19582924592E+03  0.22104569902E+03  0.41800000000E+01 0.  1.
        -11    1    1    2    0    0  0.30428456507E+02 -0.38920749627E+02 -0.57635288451E+02  0.75911410155E+02  0.00000000000E+00 0.  1.
         11    1    1    2    0    0  0.97491781537E+02  0.11194628075E+02 -0.30382065529E+03  0.31927567672E+03  0.00000000000E+00 0. -1.
</event>
<event>
 7    1  0.2651429E-009  0.1272941E+03  0.7561462E-02  0.1231527E+00
         -1   -1    0    0    0  501 -0.00000000000E+00  0.00000000000E+00  0.21921440028E+02  0.21921440028E+02  0.00000000000E+00 0.  1.
          1   -1    0    0  501    0  0.00000000000E+00 -0.00000000000E+00 -0.84765983039E+03  0.84765983039E+03  0.00000000000E+00 0. -1.
         25    2    1    2    0    0 -0.17673013184E+02  0.80581602343E+02 -0.44183913560E+03  0.46655701721E+03  0.12509156061E+03 0.  0.
          5    1    3    3  502    0 -0.28483089629E+01 -0.28190598108E+02 -0.35412908645E+02  0.45545243268E+02  0.41800000000E+01 0. -1.
         -5    1    3    3    0  502 -0.14824704221E+02  0.10877220045E+03 -0.40642622695E+03  0.42101177394E+03  0.41800000000E+01 0. -1.
        -11    1    1    2    0    0  0.50602706353E+02 -0.50451253761E+02 -0.16809178666E+03  0.18264942277E+03  0.00000000000E+00 0. -1.
         11    1    1    2    0    0 -0.32929693169E+02 -0.30130348583E+02 -0.21580746811E+03  0.22037483043E+03  0.00000000000E+00 0.  1.
</event>
<event>
 7    1  0.2651429E-009  0.1016201E+03  0.7561462E-02  0.1276926E+00
          2   -1    0    0  501    0  0.00000000000E+00  0.00000000000E+00  0.25464580476E+03  0.25464580476E+03  0.00000000000E+00 0. -1.
         -2   -1    0    0    0  501 -0.00000000000E+00 -0.00000000000E+00 -0.57138564618E+02  0.57138564618E+02  0.00000000000E+00 0.  1.
         25    2    1    2    0    0 -0.34849547058E+02 -0.35550366904E+02  0.12896512425E+03  0.18643425347E+03  0.12508960020E+03 0.  0.
          5    1    3    3  502    0 -0.10598995152E+02 -0.61848524723E+02  0.13590971249E+03  0.14975480312E+03  0.41800000000E+01 0.  1.
         -5    1    3    3    0  502 -0.24250551906E+02  0.26298157819E+02 -0.69445882381E+01  0.36679450353E+02  0.41800000000E+01 0.  1.
        -11    1    1    2    0    0  0.61408444172E+02  0.45014719408E+02  0.43805653680E+02  0.87842229442E+02  0.00000000000E+00 0. -1.
         11    1    1    2    0    0 -0.26558897113E+02 -0.94643525038E+01  0.24736462213E+02  0.37507886464E+02  0.00000000000E+00 0.  1.
</event>
<event>
 7    1  0.2889696E-009  0.9648051E+02  0.7561462E-02  0.1287876E+00
          2   -1    0    0  501    0  0.00000000000E+00  0.00000000000E+00  0.24028734788E+03  0.24028734788E+03  0.00000000000E+00 0. -1.
         -2   -1    0    0    0  501 -0.00000000000E+00 -0.00000000000E+00 -0.92360939764E+02  0.92360939764E+02  0.00000000000E+00 0.  1.
         25    2    1    2    0    0  0.66639016803E+02  0.29926091137E+02  0.15861576855E+03  0.21480780519E+03  0.12508837535E+03 0.  0.
          5    1    3    3  502    0  0.28855896651E+02 -0.23486685896E+02  0.14244620876E+03  0.14728435754E+03  0.41800000000E+01 0. -1.
         -5    1    3    3    0  502  0.37783120151E+02  0.53412777032E+02  0.16169559785E+02  0.67523447648E+02  0.41800000000E+01 0. -1.
        -11    1    1    2    0    0 -0.22009369260E+02 -0.38659844103E+02  0.32523893761E+02  0.55107164204E+02  0.00000000000E+00 0. -1.
         11    1    1    2    0    0 -0.44629647543E+02  0.87337529661E+01 -0.43213254192E+02  0.62733318249E+02  0.00000000000E+00 0.  1.
</event>
<event>
 7    1  0.2651429E-009  0.9436871E+02  0.7561462E-02  0.1292604E+00
          2   -1    0    0  501    0  0.00000000000E+00  0.00000000000E+00  0.22588930111E+02  0.22588930111E+02  0.00000000000E+00 0.  1.
         -2   -1    0    0    0  501 -0.00000000000E+00 -0.00000000000E+00 -0.60801023762E+03  0.60801023762E+03  0.00000000000E+00 0. -1.
         25    2    1    2    0    0 -0.17412433645E+02  0.39871331101E+02 -0.39017593347E+03  0.41204041263E+03  0.12508847546E+03 0.  0.
          5    1    3    3  502    0  0.30406519982E+02 -0.27913038292E+02 -0.70982464862E+02  0.82217254163E+02  0.41800000000E+01 0.  1.
         -5    1    3    3    0  502 -0.47818953626E+02  0.67784369393E+02 -0.31919346861E+03  0.32982315847E+03  0.41800000000E+01 0.  1.
        -11    1    1    2    0    0  0.30184895217E+02 -0.10156831160E+02 -0.14589724430E+02  0.35030689080E+02  0.00000000000E+00 0.  1.
         11    1    1    2    0    0 -0.12772461572E+02 -0.29714499940E+02 -0.18065564961E+03  0.18352806602E+03  0.00000000000E+00 0. -1.
</event>
<event>
 7    1  0.2651429E-009  0.1272060E+03  0.7561462E-02  0.1231661E+00
         -2   -1    0    0    0  501 -0.00000000000E+00  0.00000000000E+00  0.30392822411E+02  0.30392822411E+02  0.00000000000E+00 0.  1.
          2   -1    0    0  501    0  0.00000000000E+00 -0.00000000000E+00 -0.86879802923E+03  0.86879802923E+03  0.00000000000E+00 0. -1.
         25    2    1    2    0    0  0.21085017743E+02 -0.98439938930E+02 -0.63109692840E+03  0.65120332854E+03  0.12508973785E+03 0.  0.
          5    1    3    3  502    0 -0.19518127236E+02 -0.97438173909E+02 -0.56366810032E+03  0.57237606059E+03  0.41800000000E+01 0.  1.
         -5    1    3    3    0  502  0.40603144978E+02 -0.10017650210E+01 -0.67428828086E+02  0.78827267950E+02  0.41800000000E+01 0.  1.
        -11    1    1    2    0    0 -0.30309194240E+02  0.22818722521E+02 -0.14406148366E+03  0.14897332790E+03  0.00000000000E+00 0. -1.
         11    1    1    2    0    0  0.92241764977E+01  0.75621216408E+02 -0.63246794761E+02  0.99014195198E+02  0.00000000000E+00 0.  1.
</event>
<event>
 7    1  0.2651429E-009  0.7796396E+02  0.7561462E-02  0.1334931E+00
          4   -1    0    0  501    0  0.00000000000E+00  0.00000000000E+00  0.18981606772E+03  0.18981606772E+03  0.00000000000E+00 0. -1.
         -4   -1    0    0    0  501 -0.00000000000E+00 -0.00000000000E+00 -0.71880145617E+02  0.71880145617E+02  0.00000000000E+00 0.  1.
         25    2    1    2    0    0  0.26569202367E+02  0.97016596357E+01  0.27482338792E+02  0.13116156762E+03  0.12509209872E+03 0.  0.
          5    1    3    3  502    0 -0.12529721259E+01  0.42332690881E+02  0.62518901341E+02  0.75628778128E+02  0.41800000000E+01 0. -1.
         -5    1    3    3    0  502  0.27822174493E+02 -0.32631031245E+02 -0.35036562548E+02  0.55532789493E+02  0.41800000000E+01 0. -1.
        -11    1    1    2    0    0 -0.20260681163E+02 -0.37045313652E+02  0.93219878291E+02  0.10233668049E+03  0.00000000000E+00 0. -1.
         11    1    1    2    0    0 -0.63085212046E+01  0.27343654016E+02 -0.27662949863E+01  0.28197965223E+02  0.00000000000E+00 0.  1.
</event>
<event>
 7    1  0.2651429E-009  0.1817544E+03  0.7561462E-02  0.1166116E+00
         -1   -1    0    0    0  501 -0.00000000000E+00  0.00000000000E+00  0.19585955817E+02  0.19585955817E+02  0.00000000000E+00 0.  1.
          1   -1    0    0  501    0  0.00000000000E+00 -0.00000000000E+00 -0.19650418254E+04  0.19650418254E+04  0.00000000000E+00 0. -1.
         25    2    1    2    0    0  0.56118264988E+02 -0.14283084801E+03 -0.13057912836E+04  0.13207151560E+04  0.12509091097E+03 0.  0.
          5    1    3    3  502    0  0.39271402737E+02  0.12694151819E+02 -0.27908780741E+03  0.28215396720E+03  0.41800000000E+01 0.  1.
         -5    1    3    3    0  502  0.16846862251E+02 -0.15552499983E+03 -0.10267034762E+04  0.10385611888E+04  0.41800000000E+01 0.  1.
        -11    1    1    2    0    0 -0.16419889559E+02  0.11705865717E+03 -0.54961260481E+03  0.56218000441E+03  0.00000000000E+00 0. -1.
         11    1    1    2    0    0 -0.39698375429E+02  0.25772190843E+02 -0.90051981085E+02  0.10173262078E+03  0.00000000000E+00 0.  1.
</event>
<event>
 7    1  0.2651429E-009  0.1295964E+03  0.7561462E-02  0.1228056E+00
         -3   -1    0    0    0  501 -0.00000000000E+00  0.00000000000E+00  0.11920501138E+03  0.11920501138E+03  0.00000000000E+00 0.  1.
          3   -1    0    0  501    0  0.00000000000E+00 -0.00000000000E+00 -0.19234739433E+03  0.19234739433E+03  0.00000000000E+00 0. -1.
         25    2    1    2    0    0  0.57876202811E+02  0.74499062557E+02 -0.88295571617E+02  0.17984114260E+03  0.12508782287E+03 0.  0.
          5    1    3    3  502    0  0.84160648276E+02  0.12351057451E+02 -0.68789985842E+02  0.10947647186E+03  0.41800000000E+01 0. -1.
         -5    1    3    3    0  502 -0.26284445465E+02  0.62148005106E+02 -0.19505585775E+02  0.70364670741E+02  0.41800000000E+01 0. -1.
        -11    1    1    2    0    0 -0.32830887979E+02 -0.74458756025E+02  0.44807181625E+02  0.92895947594E+02  0.00000000000E+00 0.  1.
         11    1    1    2    0    0 -0.25045314832E+02 -0.40306532174E-01 -0.29653992957E+02  0.38815315507E+02  0.00000000000E+00 0. -1.
</event>
<event>
 7    1  0.2651429E-009  0.8287413E+02  0.7561462E-02  0.1321087E+00
          4   -1    0    0  501    0  0.00000000000E+00  0.00000000000E+00  0.33496987676E+03  0.33496987676E+03  0.00000000000E+00 0. -1.
         -4   -1    0    0    0  501 -0.00000000000E+00 -0.00000000000E+00 -0.43991769396E+02  0.43991769396E+02  0.00000000000E+00 0.  1.
         25    2    1    2    0    0  0.28361209039E+02 -0.40987647127E+02  0.12984102707E+03  0.18706119240E+03  0.12509537159E+03 0.  0.
          5    1    3    3  502    0  0.39557089493E+02 -0.25257485229E+02 -0.80161514046E+01  0.47795763124E+02  0.41800000000E+01 0.  1.
         -5    1    3    3    0  502 -0.11195880453E+02 -0.15730161898E+02  0.13785717848E+03  0.13926542927E+03  0.41800000000E+01 0.  1.
        -11    1    1    2    0    0 -0.30632773333E+02  0.66523656327E+02  0.14245535514E+03  0.16017893701E+03  0.00000000000E+00 0.  1.
         11    1    1    2    0    0  0.22715642937E+01 -0.25536009200E+02  0.18681725145E+02  0.31721516745E+02  0.00000000000E+00 0. -1.
</event>
<event>
 7    1  0.2651429E-009  0.9372027E+02  0.7561462E-02  0.1294085E+00
          1   -1    0    0  501    0  0.00000000000E+00  0.00000000000E+00  0.55834071873E+03  0.55834071873E+03  0.00000000000E+00 0. -1.
         -1   -1    0    0    0  501 -0.00000000000E+00 -0.00000000000E+00 -0.23935303657E+02  0.23935303657E+02  0.00000000000E+00 0.  1.
         25    2    1    2    0    0  0.35165468619E+01  0.15704615514E+02  0.20561739174E+03  0.24121422604E+03  0.12508712966E+03 0.  0.
          5    1    3    3  502    0 -0.17785555347E+02 -0.39856184461E+02  0.23854558658E+02  0.49913462989E+02  0.41800000000E+01 0.  1.
         -5    1    3    3    0  502  0.21302102209E+02  0.55560799975E+02  0.18176283308E+03  0.19130076305E+03  0.41800000000E+01 0.  1.
        -11    1    1    2    0    0  0.29008116520E+02  0.20314910594E+02  0.78593201418E+02  0.86203583021E+02  0.00000000000E+00 0. -1.
         11    1    1    2    0    0 -0.32524663382E+02 -0.36019526108E+02  0.25019482191E+03  0.25485821333E+03  0.00000000000E+00 0.  1.
</event>
<event>
 7    1  0.2651429E-009  0.1400088E+03  0.7561462E-02  0.1213317E+00
         -1   -1    0    0    0  501 -0.00000000000E+00  0.00000000000E+00  0.34700260818E+02  0.34700260818E+02  0.00000000000E+00 0.  1.
          1   -1    0    0  501    0  0.00000000000E+00 -0.00000000000E+00 -0.74559731084E+03  0.74559731084E+03  0.00000000000E+00 0. -1.
         25    2    1    2    0    0  0.83475685930E+02  0.89539085462E+02 -0.48224401528E+03  0.51302237411E+03  0.12508888080E+03 0.  0.
          5    1    3    3  502    0  0.89423650492E+02  0.28692120786E+02 -0.16488219390E+03  0.18979841234E+03  0.41800000000E+01 0.  1.
         -5    1    3    3    0  502 -0.59479645612E+01  0.60846964676E+02 -0.31736182138E+03  0.32322396177E+03  0.41800000000E+01 0.  1.
        -11    1    1    2    0    0 -0.66082456673E+02 -0.54672644383E+02 -0.20366407186E+03  0.22098652287E+03  0.00000000000E+00 0. -1.
         11    1    1    2    0    0 -0.17393229258E+02 -0.34866441078E+02 -0.24988962891E+02  0.46288674682E+02  0.00000000000E+00 0.  1.
</event>
<event>
 7    1  0.2651429E-009  0.1716622E+03  0.7561462E-02  0.1176125E+00
         -1   -1    0    0    0  501 -0.00000000000E+00  0.00000000000E+00  0.26117350864E+03  0.26117350864E+03  0.00000000000E+00 0.  1.
          1   -1    0    0  501    0  0.00000000000E+00 -0.00000000000E+00 -0.18144976743E+03  0.18144976743E+03  0.00000000000E+00 0. -1.
         25    2    1    2    0    0 -0.15054580479E+03 -0.34051598849E+02  0.15107168917E+03  0.24958685915E+03  0.12508954500E+03 0.  0.
          5    1    3    3  502    0 -0.57503484074E+02  0.13806114737E+02 -0.72950959374E+01  0.59732322151E+02  0.41800000000E+01 0. -1.
         -5    1    3    3    0  502 -0.93042320718E+02 -0.47857713586E+02  0.15836678511E+03  0.18985453700E+03  0.41800000000E+01 0. -1.
        -11    1    1    2    0    0  0.14437361910E+03  0.57258181004E+02 -0.63175953635E+02  0.16767063637E+03  0.00000000000E+00 0. -1.
         11    1    1    2    0    0  0.61721856947E+01 -0.23206582155E+02 -0.81719943303E+01  0.25365780550E+02  0.00000000000E+00 0.  1.
</event>
<event>
 7    1  0.2651429E-009  0.1122828E+03  0.7561462E-02  0.1256400E+00
         -2   -1    0    0    0  501 -0.00000000000E+00  0.00000000000E+00  0.71402882425E+03  0.71402882425E+03  0.00000000000E+00 0.  1.
          2   -1    0    0  501    0  0.00000000000E+00 -0.00000000000E+00 -0.31385533280E+02  0.31385533280E+02  0.00000000000E+00 0. -1.
         25    2    1    2    0    0 -0.71045236460E+02 -0.66533821970E+02  0.27748023475E+03  0.31956265541E+03  0.12510329717E+03 0.  0.
          5    1    3    3  502    0 -0.30363752121E+02 -0.14618328592E+02  0.24234989733E+03  0.24471738416E+03  0.41800000000E+01 0.  1.
         -5    1    3    3    0  502 -0.40681484339E+02 -0.51915493379E+02  0.35130337418E+02  0.74845271246E+02  0.41800000000E+01 0.  1.
        -11    1    1    2    0    0  0.65454575479E+02  0.82548810067E+01  0.14687767358E+03  0.16101396060E+03  0.00000000000E+00 0. -1.
         11    1    1    2    0    0  0.55906609818E+01  0.58278940964E+02  0.25828538264E+03  0.26483774152E+03  0.00000000000E+00 0.  1.
</event>
<event>
 7    1  0.2651429E-009  0.9115208E+02  0.7561462E-02  0.1300086E+00
         -1   -1    0    0    0  501 -0.00000000000E+00  0.00000000000E+00  0.37096167238E+02  0.37096167238E+02  0.00000000000E+00 0. -1.
          1   -1    0    0  501    0  0.00000000000E+00 -0.00000000000E+00 -0.44094752584E+03  0.44094752584E+03  0.00000000000E+00 0.  1.
         25    2    1    2    0    0 -0.69243936415E+01 -0.66707017428E+02 -0.22028705761E+03  0.26205169582E+03  0.12508768977E+03 0.  0.
          5    1    3    3  502    0  0.40812501963E+02 -0.33993708694E+02 -0.25997867035E+02  0.59284011652E+02  0.41800000000E+01 0.  1.
         -5    1    3    3    0  502 -0.47736895604E+02 -0.32713308734E+02 -0.19428919057E+03  0.20276768417E+03  0.41800000000E+01 0.  1.
        -11    1    1    2    0    0 -0.66308794096E+01  0.44463331188E+02 -0.18452853294E+03  0.18992560610E+03  0.00000000000E+00 0.  1.
         11    1    1    2    0    0  0.13555273051E+02  0.22243686240E+02  0.96423194230E+00  0.26066391163E+02  0.00000000000E+00 0. -1.
</event>
<event>
 7    1  0.2651429E-009  0.1109913E+03  0.7561462E-02  0.1258745E+00
         -1   -1    0    0    0  501 -0.00000000000E+00  0.00000000000E+00  0.42469057607E+02  0.42469057607E+02  0.00000000000E+00 0.  1.
          1   -1    0    0  501    0  0.00000000000E+00 -0.00000000000E+00 -0.42092886548E+03  0.42092886548E+03  0.00000000000E+00 0. -1.
         25    2    1    2    0    0  0.50373292141E+02  0.59773732094E+02 -0.21406053829E+03  0.25996207455E+03  0.12509196034E+03 0.  0.
          5    1    3    3  502    0 -0.33547939982E+02  0.17480255504E+02 -0.17168251629E+02  0.41752184057E+02  0.41800000000E+01 0.  1.
         -5    1    3    3    0  502  0.83921232123E+02  0.42293476590E+02 -0.19689228666E+03  0.21820989049E+03  0.41800000000E+01 0.  1.
        -11    1    1    2    0    0  0.21695022731E+01 -0.28759130489E+02 -0.13047661782E+03  0.13362612815E+03  0.00000000000E+00 0. -1.
         11    1    1    2    0    0 -0.52542794414E+02 -0.31014601605E+02 -0.33922651761E+02  0.69809720384E+02  0.00000000000E+00 0.  1.
</event>
<event>
 7    1  0.2651429E-009  0.2316424E+03  0.7561462E-02  0.1125489E+00
         -1   -1    0    0    0  501 -0.00000000000E+00  0.00000000000E+00  0.14777088044E+03  0.14777088044E+03  0.00000000000E+00 0.  1.
          1   -1    0    0  501    0  0.00000000000E+00 -0.00000000000E+00 -0.39983424846E+03  0.39983424846E+03  0.00000000000E+00 0. -1.
         25    2    1    2    0    0  0.19493769572E+03 -0.92977793884E+02 -0.11488859309E+03  0.27475961435E+03  0.12509149247E+03 0.  0.
          5    1    3    3  502    0  0.80054760796E+02 -0.81542353115E+02 -0.36832210603E+01  0.11440698665E+03  0.41800000000E+01 0.  1.
         -5    1    3    3    0  502  0.11488293493E+03 -0.11435440769E+02 -0.11120537203E+03  0.16035262770E+03  0.41800000000E+01 0.  1.
        -11    1    1    2    0    0 -0.78726076602E+02 -0.84286119958E+01 -0.65558280198E+02  0.10279457544E+03  0.00000000000E+00 0. -1.
         11    1    1    2    0    0 -0.11621161912E+03  0.10140640588E+03 -0.71616494736E+02  0.17005093911E+03  0.00000000000E+00 0.  1.
</event>
<event>
 7    1  0.2651429E-009  0.1186848E+03  0.7561462E-02  0.1245283E+00
         -2   -1    0    0    0  501 -0.00000000000E+00  0.00000000000E+00  0.27892014179E+02  0.27892014179E+02  0.00000000000E+00 0.  1.
          2   -1    0    0  501    0  0.00000000000E+00 -0.00000000000E+00 -0.59931825370E+03  0.59931825370E+03  0.00000000000E+00 0. -1.
         25    2    1    2    0    0 -0.70624422629E+02 -0.72401441171E+01 -0.29054477457E+03  0.32419625257E+03  0.12508683139E+03 0.  0.
          5    1    3    3  502    0 -0.29343848644E+02  0.53937512300E+02 -0.18776851751E+03  0.19759758413E+03  0.41800000000E+01 0. -1.
         -5    1    3    3    0  502 -0.41280573985E+02 -0.61177656417E+02 -0.10277625707E+03  0.12659866844E+03  0.41800000000E+01 0. -1.
        -11    1    1    2    0    0  0.69415431336E+02 -0.21861955530E+02 -0.25078349695E+03  0.26112987104E+03  0.00000000000E+00 0.  1.
         11    1    1    2    0    0  0.12089912935E+01  0.29102099648E+02 -0.30097967992E+02  0.41884144268E+02  0.00000000000E+00 0. -1.
</event>
<event>
 7    1  0.2828999E-009  0.9845311E+02  0.7561462E-02  0.1283583E+00
          1   -1    0    0  501    0  0.00000000000E+00  0.00000000000E+00  0.13245368392E+03  0.13245368392E+03  0.00000000000E+00 0. -1.
         -1   -1    0    0    0  501 -0.00000000000E+00 -0.00000000000E+00 -0.11787460259E+03  0.11787460259E+03  0.00000000000E+00 0.  1.
         25    2    1    2    0    0  0.12784311000E+02  0.42889541824E+02  0.50368713825E+02  0.14207736547E+03  0.12508404791E+03 0.  0.
          5    1    3    3  502    0 -0.54812207512E+02  0.15341522038E+02  0.81542942155E+01  0.57651585450E+02  0.41800000000E+01 0. -1.
         -5    1    3    3    0  502  0.67596518511E+02  0.27548019786E+02  0.42214419610E+02  0.84425780020E+02  0.41800000000E+01 0. -1.
        -11    1    1    2    0    0  0.14782016322E+02 -0.35082770703E+02  0.21842012153E+02  0.43890571899E+02  0.00000000000E+00 0. -1.
         11    1    1    2    0    0 -0.27566327321E+02 -0.78067711210E+01 -0.57631644642E+02  0.64360349140E+02  0.00000000000E+00 0.  1.
</event>
<event>
 7    1  0.2651429E-009  0.3020190E+03  0.7561462E-02  0.1084236E+00
         -2   -1    0    0    0  501 -0.00000000000E+00  0.00000000000E+00  0.75207590650E+03  0.75207590650E+03  0.00000000000E+00 0.  1.
          2   -1    0    0  501    0  0.00000000000E+00 -0.00000000000E+00 -0.15696728427E+03  0.15696728427E+03  0.00000000000E+00 0. -1.
         25    2    1    2    0    0 -0.27779543799E+03  0.10074260917E+03  0.48340485442E+03  0.58021311703E+03  0.12509048416E+03 0.  0.
          5    1    3    3  502    0 -0.21057189911E+03  0.33310568816E+02  0.40122909904E+03  0.45437031263E+03  0.41800000000E+01 0.  1.
         -5    1    3    3    0  502 -0.67223538884E+02  0.67432040352E+02  0.82175755387E+02  0.12584280440E+03  0.41800000000E+01 0.  1.
        -11    1    1    2    0    0  0.19298472017E+03 -0.70225852367E+02  0.12076567475E+03  0.23824172757E+03  0.00000000000E+00 0.  1.
         11    1    1    2    0    0  0.84810717825E+02 -0.30516756802E+02 -0.90619069373E+01  0.90588346166E+02  0.00000000000E+00 0. -1.
</event>
<event>
 7    1  0.2651429E-009  0.1031629E+03  0.7561462E-02  0.1273782E+00
         -3   -1    0    0    0  501 -0.00000000000E+00  0.00000000000E+00  0.16596249376E+02  0.16596249376E+02  0.00000000000E+00 0.  1.
          3   -1    0    0  501    0  0.00000000000E+00 -0.00000000000E+00 -0.73971962019E+03  0.73971962019E+03  0.00000000000E+00 0. -1.
         25    2    1    2    0    0  0.10569533166E+02  0.32707827833E+01 -0.35179428356E+03  0.37353606956E+03  0.12509022451E+03 0.  0.
          5    1    3    3  502    0 -0.26662402485E+02  0.50819586928E+02 -0.10838650656E+03  0.12271357433E+03  0.41800000000E+01 0. -1.
         -5    1    3    3    0  502  0.37231935651E+02 -0.47548804145E+02 -0.24340777700E+03  0.25082249523E+03  0.41800000000E+01 0. -1.
        -11    1    1    2    0    0 -0.46979827220E+02  0.12431817610E+02 -0.26230801062E+03  0.26677171269E+03  0.00000000000E+00 0. -1.
         11    1    1    2    0    0  0.36410294054E+02 -0.15702600393E+02 -0.10902107664E+03  0.11600808732E+03  0.00000000000E+00 0.  1.
</event>
<event>
 7    1  0.2651429E-009  0.2527266E+03  0.7561462E-02  0.1111594E+00
          2   -1    0    0  501    0  0.00000000000E+00  0.00000000000E+00  0.61056642842E+03  0.61056642842E+03  0.00000000000E+00 0. -1.
         -2   -1    0    0    0  501 -0.00000000000E+00 -0.00000000000E+00 -0.19255780170E+03  0.19255780170E+03  0.00000000000E+00 0.  1.
         25    2    1    2    0    0  0.22701688184E+03  0.75523656225E+02  0.46851418351E+03  0.54073388432E+03  0.12508839360E+03 0.  0.
          5    1    3    3  502    0  0.19345579958E+03  0.15028364745E+02  0.39251839824E+03  0.43788030727E+03  0.41800000000E+01 0.  1.
         -5    1    3    3    0  502  0.33561082264E+02  0.60495291480E+02  0.75995785269E+02  0.10285357705E+03  0.41800000000E+01 0.  1.
        -11    1    1    2    0    0 -0.64864831774E+02 -0.39537755149E+02 -0.58834868091E+02  0.96084453408E+02  0.00000000000E+00 0.  1.
         11    1    1    2    0    0 -0.16215205007E+03 -0.35985901076E+02  0.83293112996E+01  0.16630589239E+03  0.00000000000E+00 0. -1.
</event>
<event>
 7    1  0.2651429E-009  0.1019361E+03  0.7561462E-02  0.1276277E+00
         -1   -1    0    0    0  501 -0.00000000000E+00  0.00000000000E+00  0.45957271039E+02  0.45957271039E+02  0.00000000000E+00 0.  1.
          1   -1    0    0  501    0  0.00000000000E+00 -0.00000000000E+00 -0.32690583380E+03  0.32690583380E+03  0.00000000000E+00 0. -1.
         25    2    1    2    0    0  0.37325332254E+02  0.43125715685E+02 -0.15706598744E+03  0.20873551715E+03  0.12509110251E+03 0.  0.
          5    1    3    3  502    0  0.10215104495E+02  0.62823047144E+02 -0.16246385899E+03  0.17453670528E+03  0.41800000000E+01 0.  1.
         -5    1    3    3    0  502  0.27110227759E+02 -0.19697331459E+02  0.53978715496E+01  0.34198811865E+02  0.41800000000E+01 0.  1.
        -11    1    1    2    0    0  0.18520859574E+02 -0.46818433104E+02 -0.71660056109E+02  0.87579401455E+02  0.00000000000E+00 0. -1.
         11    1    1    2    0    0 -0.55846191828E+02  0.36927174189E+01 -0.52222519211E+02  0.76548186238E+02  0.00000000000E+00 0.  1.
</event>
<event>
 7    1  0.2651429E-009  0.1239512E+03  0.7561462E-02  0.1236718E+00
         -2   -1    0    0    0  501 -0.00000000000E+00  0.00000000000E+00  0.13517350763E+02  0.13517350763E+02  0.00000000000E+00 0.  1.
          2   -1    0    0  501    0  0.00000000000E+00 -0.00000000000E+00 -0.12794416819E+04  0.12794416819E+04  0.00000000000E+00 0. -1.
         25    2    1    2    0    0 -0.63928123621E+02  0.35660151815E+02 -0.76219052822E+03  0.77584786124E+03  0.12508817318E+03 0.  0.
          5    1    3    3  502    0 -0.88601026335E+02  0.60450078405E+02 -0.62820534123E+03  0.63730979672E+03  0.41800000000E+01 0. -1.
         -5    1    3    3    0  502  0.24672902713E+02 -0.24789926589E+02 -0.13398518700E+03  0.13853806453E+03  0.41800000000E+01 0. -1.
        -11    1    1    2    0    0 -0.17372628610E+02 -0.25717470306E+01 -0.25967467573E+02  0.31348548288E+02  0.00000000000E+00 0.  1.
         11    1    1    2    0    0  0.81300752232E+02 -0.33088404785E+02 -0.47776633531E+03  0.48576262310E+03  0.00000000000E+00 0. -1.
</event>
<event>
 7    1  0.2734925E-009  0.9578257E+02  0.7561462E-02  0.1289423E+00
         -2   -1    0    0    0  501 -0.00000000000E+00  0.00000000000E+00  0.33110587264E+03  0.33110587264E+03  0.00000000000E+00 0.  1.
          2   -1    0    0  501    0  0.00000000000E+00 -0.00000000000E+00 -0.54234872375E+02  0.54234872375E+02  0.00000000000E+00 0. -1.
         25    2    1    2    0    0 -0.13339798028E+01 -0.37918724985E+02  0.25121312957E+03  0.28318490619E+03  0.12508415336E+03 0.  0.
          5    1    3    3  502    0 -0.60534158597E+02 -0.25774137017E+02  0.94967013788E+02  0.11560664602E+03  0.41800000000E+01 0.  1.
         -5    1    3    3    0  502  0.59200178795E+02 -0.12144587968E+02  0.15624611578E+03  0.16757826017E+03  0.41800000000E+01 0.  1.
        -11    1    1    2    0    0 -0.12591569069E+02 -0.94152181572E+01  0.46131249007E+02  0.48736906750E+02  0.00000000000E+00 0.  1.
         11    1    1    2    0    0  0.13925548872E+02  0.47333943142E+02 -0.20473378308E+02  0.53418932076E+02  0.00000000000E+00 0. -1.
</event>
<event>
 7    1  0.2868993E-009  0.1421354E+03  0.7561462E-02  0.1210484E+00
         -2   -1    0    0    0  501 -0.00000000000E+00  0.00000000000E+00  0.14201255979E+03  0.14201255979E+03  0.00000000000E+00 0.  1.
          2   -1    0    0  501    0  0.00000000000E+00 -0.00000000000E+00 -0.31587217847E+03  0.31587217847E+03  0.00000000000E+00 0. -1.
         25    2    1    2    0    0 -0.32242338441E+02  0.12220051218E+03  0.50108097004E+02  0.18474560275E+03  0.12509029852E+03 0.  0.
          5    1    3    3  502    0 -0.65683611805E+02  0.80247113365E+02  0.72352471946E+02  0.12651596208E+03  0.41800000000E+01 0.  1.
         -5    1    3    3    0  502  0.33441273364E+02  0.41953398819E+02 -0.22244374943E+02  0.58229640676E+02  0.41800000000E+01 0.  1.
        -11    1    1    2    0    0  0.77803738733E+01 -0.45641104487E+02 -0.17033454108E+03  0.17651487337E+03  0.00000000000E+00 0. -1.
         11    1    1    2    0    0  0.24461964568E+02 -0.76559407697E+02 -0.53633174608E+02  0.96624262150E+02  0.00000000000E+00 0.  1.
</event>
<event>
 7    1  0.2651429E-009  0.3793906E+03  0.7561462E-02  0.1051159E+00
         -1   -1    0    0    0  501 -0.00000000000E+00  0.00000000000E+00  0.39435297396E+03  0.39435297396E+03  0.00000000000E+00 0.  1.
          1   -1    0    0  501    0  0.00000000000E+00 -0.00000000000E+00 -0.39358719073E+03  0.39358719073E+03  0.00000000000E+00 0. -1.
         25    2    1    2    0    0  0.35471362966E+03  0.87233802745E+02 -0.82666780062E+02  0.39485830603E+03  0.12509112639E+03 0.  0.
          5    1    3    3  502    0  0.26917163770E+03  0.17290765360E+02 -0.27130066367E+02  0.27111963044E+03  0.41800000000E+01 0. -1.
         -5    1    3    3    0  502  0.85541991969E+02  0.69943037385E+02 -0.55536713695E+02  0.12373867559E+03  0.41800000000E+01 0. -1.
        -11    1    1    2    0    0 -0.29363342087E+02 -0.40098464723E+02 -0.11278819250E+02  0.50963756683E+02  0.00000000000E+00 0. -1.
         11    1    1    2    0    0 -0.32535028758E+03 -0.47135338022E+02  0.94711382545E+02  0.34211810198E+03  0.00000000000E+00 0.  1.
</event>
<event>
 7    1  0.2651429E-009  0.1121699E+03  0.7561462E-02  0.1256603E+00
          2   -1    0    0  501    0  0.00000000000E+00  0.00000000000E+00  0.27038520027E+03  0.27038520027E+03  0.00000000000E+00 0. -1.
         -2   -1    0    0    0  501 -0.00000000000E+00 -0.00000000000E+00 -0.65647424541E+02  0.65647424541E+02  0.00000000000E+00 0.  1.
         25    2    1    2    0    0  0.38674181849E+02 -0.64711266600E+02  0.89046824593E+02  0.17105705175E+03  0.12509171682E+03 0.  0.
          5    1    3    3  502    0  0.83832588386E+02 -0.44632530795E+02  0.69435387674E+02  0.11772302724E+03  0.41800000000E+01 0. -1.
         -5    1    3    3    0  502 -0.45158406537E+02 -0.20078735805E+02  0.19611436919E+02  0.53334024511E+02  0.41800000000E+01 0. -1.
        -11    1    1    2    0    0 -0.13685265088E+02  0.43699826382E+01 -0.13816463751E+02  0.19931831310E+02  0.00000000000E+00 0.  1.
         11    1    1    2    0    0 -0.24988916761E+02  0.60341283962E+02  0.12950741488E+03  0.14504374175E+03  0.00000000000E+00 0. -1.
</event>
<event>
 7    1  0.2651429E-009  0.9209145E+02  0.7561462E-02  0.1297865E+00
          1   -1    0    0  501    0  0.00000000000E+00  0.00000000000E+00  0.27197393676E+03  0.27197393676E+03  0.00000000000E+00 0. -1.
         -1   -1    0    0    0  501 -0.00000000000E+00 -0.00000000000E+00 -0.67206167635E+02  0.67206167635E+02  0.00000000000E+00 0.  1.
         25    2    1    2    0    0  0.49312857853E+02  0.59275090552E+02  0.13970774674E+03  0.20276168035E+03  0.12509496477E+03 0.  0.
          5    1    3    3  502    0  0.39402168703E+02  0.25749729815E+02 -0.10562975000E+02  0.48421362278E+02  0.41800000000E+01 0. -1.
         -5    1    3    3    0  502  0.99106891496E+01  0.33525360737E+02  0.15027072174E+03  0.15434031807E+03  0.41800000000E+01 0. -1.
        -11    1    1    2    0    0 -0.30141037449E+02 -0.72441378197E+02  0.77294463594E+02  0.11013931866E+03  0.00000000000E+00 0.  1.
         11    1    1    2    0    0 -0.19171820403E+02  0.13166287645E+02 -0.12234441205E+02  0.26279105379E+02  0.00000000000E+00 0. -1.
</event>
<event>
 7    1  0.2651429E-009  0.1779111E+03  0.7561462E-02  0.1169840E+00
          1   -1    0    0  501    0  0.00000000000E+00  0.00000000000E+00  0.65522952252E+02  0.65522952252E+02  0.00000000000E+00 0. -1.
         -1   -1    0    0    0  501 -0.00000000000E+00 -0.00000000000E+00 -0.66241062792E+03  0.66241062792E+03  0.00000000000E+00 0.  1.
         25    2    1    2    0    0 -0.88597972612E+02 -0.10948200966E+03 -0.12235696482E+03  0.22461643481E+03  0.12508159240E+03 0.  0.
          5    1    3    3  502    0  0.85335268395E+01  0.22481797751E+02 -0.14186646118E+02  0.28230934071E+02  0.41800000000E+01 0. -1.
         -5    1    3    3    0  502 -0.97131499451E+02 -0.13196380741E+03 -0.10817031871E+03  0.19638550074E+03  0.41800000000E+01 0. -1.
        -11    1    1    2    0    0  0.46400892727E+02 -0.38614859065E+01 -0.11942798449E+03  0.12818345213E+03  0.00000000000E+00 0.  1.
         11    1    1    2    0    0  0.42197079885E+02  0.11334349557E+03 -0.35510272635E+03  0.37513369324E+03  0.00000000000E+00 0. -1.
</event>
<event>
 7    1  0.2651429E-009  0.1330187E+03  0.7561462E-02  0.1223044E+00
         -2   -1    0    0    0  501 -0.00000000000E+00  0.00000000000E+00  0.73439523964E+02  0.73439523964E+02  0.00000000000E+00 0.  1.
          2   -1    0    0  501    0  0.00000000000E+00 -0.00000000000E+00 -0.26512059211E+03  0.26512059211E+03  0.00000000000E+00 0. -1.
         25    2    1    2    0    0  0.24417901873E+01  0.80998652416E+02 -0.14794731380E+03  0.21000518656E+03  0.12508807572E+03 0.  0.
          5    1    3    3  502    0 -0.59238465375E+02  0.57098193773E+02 -0.74500632852E+02  0.11107302196E+03  0.41800000000E+01 0. -1.
         -5    1    3    3    0  502  0.61680255562E+02  0.23900458643E+02 -0.73446680949E+02  0.98932164598E+02  0.41800000000E+01 0. -1.
        -11    1    1    2    0    0 -0.37295742477E+02 -0.72451447848E+02 -0.44122914310E+02  0.92666154929E+02  0.00000000000E+00 0.  1.
         11    1    1    2    0    0  0.34853952290E+02 -0.85472045681E+01  0.38915996110E+00  0.35888774591E+02  0.00000000000E+00 0. -1.
</event>
<event>
 7    1  0.2651429E-009  0.1497043E+03  0.7561462E-02  0.1200837E+00
         -1   -1    0    0    0  501 -0.00000000000E+00  0.00000000000E+00  0.15402549232E+02  0.15402549232E+02  0.00000000000E+00 0.  1.
          1   -1    0    0  501    0  0.00000000000E+00 -0.00000000000E+00 -0.15096844263E+04  0.15096844263E+04  0.00000000000E+00 0. -1.
         25    2    1    2    0    0 -0.10513490805E+03  0.18123041948E+02 -0.82006630850E+03  0.83638339354E+03  0.12508651851E+03 0.  0.
          5    1    3    3  502    0 -0.84497916968E+02  0.68236831406E+02 -0.59499817465E+03  0.60484416453E+03  0.41800000000E+01 0. -1.
         -5    1    3    3    0  502 -0.20636991082E+02 -0.50113789458E+02 -0.22506813385E+03  0.23153922901E+03  0.41800000000E+01 0. -1.
        -11    1    1    2    0    0  0.81140103839E+02 -0.50866814538E+02 -0.54203490120E+03  0.55042981696E+03  0.00000000000E+00 0. -1.
         11    1    1    2    0    0  0.23994804210E+02  0.32743772590E+02 -0.13218066740E+03  0.13827376507E+03  0.00000000000E+00 0.  1.
</event>
<event>
 7    1  0.2651429E-009  0.9231689E+02  0.7561462E-02  0.1297336E+00
         -1   -1    0    0    0  501 -0.00000000000E+00  0.00000000000E+00  0.25310800415E+03  0.25310800415E+03  0.00000000000E+00 0.  1.
          1   -1    0    0  501    0  0.00000000000E+00 -0.00000000000E+00 -0.71386950786E+02  0.71386950786E+02  0.00000000000E+00 0. -1.
         25    2    1    2    0    0  0.22962172384E+02 -0.70379511777E+02  0.65032447362E+02  0.15923953466E+03  0.12508986030E+03 0.  0.
          5    1    3    3  502    0 -0.24642716846E+02 -0.80878849758E+01  0.75587298346E+02  0.80022430907E+02  0.41800000000E+01 0.  1.
         -5    1    3    3    0  502  0.47604889230E+02 -0.62291626801E+02 -0.10554850985E+02  0.79217103755E+02  0.41800000000E+01 0.  1.
        -11    1    1    2    0    0 -0.23084578218E+02  0.23391997793E+02  0.11349704674E+03  0.11815948091E+03  0.00000000000E+00 0.  1.
         11    1    1    2    0    0  0.12240583488E+00  0.46987513984E+02  0.31915592668E+01  0.47095939359E+02  0.00000000000E+00 0. -1.
</event>
<event>
 7    1  0.2651429E-009  0.9390420E+02  0.7561462E-02  0.1293663E+00
         -1   -1    0    0    0  501 -0.00000000000E+00  0.00000000000E+00  0.55316187663E+02  0.55316187663E+02  0.00000000000E+00 0.  1.
          1   -1    0    0  501    0  0.00000000000E+00 -0.00000000000E+00 -0.26901382236E+03  0.26901382236E+03  0.00000000000E+00 0. -1.
         25    2    1    2    0    0  0.83315062116E+01  0.36591215674E+02 -0.17933673936E+03  0.22182804631E+03  0.12505072966E+03 0.  0.
          5    1    3    3  502    0  0.43413766947E+02  0.54307425915E+02 -0.16615592258E+03  0.18016468766E+03  0.41800000000E+01 0.  1.
         -5    1    3    3    0  502 -0.35082260735E+02 -0.17716210241E+02 -0.13180816777E+02  0.41663358656E+02  0.41800000000E+01 0.  1.
        -11    1    1    2    0    0 -0.20751214662E+02 -0.53654459650E+02  0.50987614099E+01  0.57753019992E+02  0.00000000000E+00 0.  1.
         11    1    1    2    0    0  0.12419708451E+02  0.17063243977E+02 -0.39459656747E+02  0.44748943715E+02  0.00000000000E+00 0. -1.
</event>
<event>
 7    1  0.2651429E-009  0.1418716E+03  0.7561462E-02  0.1210833E+00
          2   -1    0    0  501    0  0.00000000000E+00  0.00000000000E+00  0.43337043866E+02  0.43337043866E+02  0.00000000000E+00 0. -1.
         -2   -1    0    0    0  501 -0.00000000000E+00 -0.00000000000E+00 -0.48331629579E+03  0.48331629579E+03  0.00000000000E+00 0.  1.
         25    2    1    2    0    0  0.10379515347E+03  0.46192758894E+02 -0.25317595449E+03  0.30438862755E+03  0.12508863974E+03 0.  0.
          5    1    3    3  502    0 -0.12398226115E+02 -0.25777000212E+02 -0.24244454187E+02  0.37728446954E+02  0.41800000000E+01 0. -1.
         -5    1    3    3    0  502  0.11619337958E+03  0.71969759106E+02 -0.22893150030E+03  0.26666018059E+03  0.41800000000E+01 0. -1.
        -11    1    1    2    0    0 -0.43642783230E+02 -0.37056529898E+02 -0.11249199348E+03  0.12622332404E+03  0.00000000000E+00 0.  1.
         11    1    1    2    0    0 -0.60152370236E+02 -0.91362289953E+01 -0.74311303961E+02  0.96041388066E+02  0.00000000000E+00 0. -1.
</event>
<event>
 7    1  0.2651429E-009  0.1360129E+03  0.7561462E-02  0.1218797E+00
          1   -1    0    0  501    0  0.00000000000E+00  0.00000000000E+00  0.75333026586E+03  0.75333026586E+03  0.00000000000E+00 0. -1.
         -1   -1    0    0    0  501 -0.00000000000E+00 -0.00000000000E+00 -0.35390829817E+02  0.35390829817E+02  0.00000000000E+00 0.  1.
         25    2    1    2    0    0 -0.23557614372E+02 -0.10853614110E+03  0.26193597719E+03  0.31079414065E+03  0.12508991405E+03 0.  0.
          5    1    3    3  502    0  0.25721447645E+02 -0.75898681075E+02  0.59597153081E+02  0.99957469522E+02  0.41800000000E+01 0. -1.
         -5    1    3    3    0  502 -0.49279062017E+02 -0.32637460021E+02  0.20233882411E+03  0.21083667113E+03  0.41800000000E+01 0. -1.
        -11    1    1    2    0    0  0.45317209614E+02  0.39419675731E+02  0.29949299957E+03  0.30545640787E+03  0.00000000000E+00 0. -1.
         11    1    1    2    0    0 -0.21759595241E+02  0.69116465365E+02  0.15651045929E+03  0.17247054716E+03  0.00000000000E+00 0.  1.
</event>
<event>
 7    1  0.2651429E-009  0.1193212E+03  0.7561462E-02  0.1244221E+00
          3   -1    0    0  501    0  0.00000000000E+00  0.00000000000E+00  0.29312674804E+03  0.29312674804E+03  0.00000000000E+00 0. -1.
         -3   -1    0    0    0  501 -0.00000000000E+00 -0.00000000000E+00 -0.61146153527E+02  0.61146153527E+02  0.00000000000E+00 0.  1.
         25    2    1    2    0    0 -0.40552247493E+02  0.57086973057E+02  0.17190778320E+03  0.22383649041E+03  0.12508829380E+03 0.  0.
          5    1    3    3  502    0  0.49635027024E+01 -0.27796499749E+02  0.21643304694E+01  0.28625835948E+02  0.41800000000E+01 0. -1.
         -5    1    3    3    0  502 -0.45515750195E+02  0.84883472806E+02  0.16974345273E+03  0.19521065447E+03  0.41800000000E+01 0. -1.
        -11    1    1    2    0    0 -0.62300013702E+01 -0.65808699963E+02  0.46925395591E+02  0.81065348079E+02  0.00000000000E+00 0. -1.
         11    1    1    2    0    0  0.46782248863E+02  0.87217269053E+01  0.13147415720E+02  0.49371063073E+02  0.00000000000E+00 0.  1.
</event>
<event>
 7    1  0.2651429E-009  0.1872351E+03  0.7561462E-02  0.1160979E+00
         -1   -1    0    0    0  501 -0.00000000000E+00  0.00000000000E+00  0.19063179729E+02  0.19063179729E+02  0.00000000000E+00 0.  1.
          1   -1    0    0  501    0  0.00000000000E+00 -0.00000000000E+00 -0.20020193386E+04  0.20020193386E+04  0.00000000000E+00 0. -1.
         25    2    1    2    0    0 -0.15653405269E+03 -0.31745901988E+02 -0.88379116125E+03  0.90677714943E+03  0.12508904859E+03 0.  0.
          5    1    3    3  502    0 -0.17131096926E+02  0.33176094689E+02 -0.32611003651E+03  0.32826720222E+03  0.41800000000E+01 0. -1.
         -5    1    3    3    0  502 -0.13940295577E+03 -0.64921996677E+02 -0.55768112474E+03  0.57850994721E+03  0.41800000000E+01 0. -1.
        -11    1    1    2    0    0  0.10802372560E+03 -0.22445218068E+02 -0.65985275902E+03  0.66901313642E+03  0.00000000000E+00 0. -1.
         11    1    1    2    0    0  0.48510327090E+02  0.54191120056E+02 -0.43931223863E+03  0.44529223252E+03  0.00000000000E+00 0.  1.
</event>
<event>
 7    1  0.2651429E-009  0.9431581E+02  0.7561462E-02  0.1292725E+00
          2   -1    0    0  501    0  0.00000000000E+00  0.00000000000E+00  0.51812079329E+03  0.51812079329E+03  0.00000000000E+00 0. -1.
         -2   -1    0    0    0  501 -0.00000000000E+00 -0.00000000000E+00 -0.24728161164E+02  0.24728161164E+02  0.00000000000E+00 0.  1.
         25    2    1    2    0    0  0.11753739445E+01  0.31546717233E+02  0.29342196761E+03  0.32053708994E+03  0.12510394908E+03 0.  0.
          5    1    3    3  502    0  0.34711531692E+02  0.61246267593E+02  0.24269022770E+03  0.25272913316E+03  0.41800000000E+01 0.  1.
         -5    1    3    3    0  502 -0.33536157748E+02 -0.29699550359E+02  0.50731739913E+02  0.67807956779E+02  0.41800000000E+01 0.  1.
        -11    1    1    2    0    0 -0.24919022207E+02  0.86957492403E+01  0.12679797124E+02  0.29280556308E+02  0.00000000000E+00 0.  1.
         11    1    1    2    0    0  0.23743648262E+02 -0.40242466474E+02  0.18729086739E+03  0.19303130821E+03  0.00000000000E+00 0. -1.
</event>
<event>
 7    1  0.2651429E-009  0.1200260E+03  0.7561462E-02  0.1243054E+00
          2   -1    0    0  501    0  0.00000000000E+00  0.00000000000E+00  0.14110145818E+03  0.14110145818E+03  0.00000000000E+00 0. -1.
         -2   -1    0    0    0  501 -0.00000000000E+00 -0.00000000000E+00 -0.17127402228E+03  0.17127402228E+03  0.00000000000E+00 0.  1.
         25    2    1    2    0    0  0.39157159256E+02 -0.58568164686E+02 -0.10296562672E+03  0.17667140463E+03  0.12508937562E+03 0.  0.
          5    1    3    3  502    0  0.83118836842E+02 -0.45074631577E+02 -0.84708588059E+02  0.12701763949E+03  0.41800000000E+01 0. -1.
         -5    1    3    3    0  502 -0.43961677587E+02 -0.13493533110E+02 -0.18257038657E+02  0.49653765140E+02  0.41800000000E+01 0. -1.
        -11    1    1    2    0    0 -0.53690338740E+02  0.18795242122E+02  0.74005175199E+02  0.93341735342E+02  0.00000000000E+00 0. -1.
         11    1    1    2    0    0  0.14533179484E+02  0.39772922565E+02 -0.12121125773E+01  0.42362340494E+02  0.00000000000E+00 0.  1.
</event>
<event>
 7    1  0.2651429E-009  0.1504738E+03  0.7561462E-02  0.1199892E+00
          2   -1    0    0  501    0  0.00000000000E+00  0.00000000000E+00  0.17420040247E+04  0.17420040247E+04  0.00000000000E+00 0.  1.
         -2   -1    0    0    0  501 -0.00000000000E+00 -0.00000000000E+00 -0.14035565355E+02  0.14035565355E+02  0.00000000000E+00 0. -1.
         25    2    1    2    0    0 -0.66822716546E+02 -0.85836002148E+02  0.97551206018E+03  0.98949749440E+03  0.12509363356E+03 0.  0.
          5    1    3    3  502    0 -0.27728934138E+02  0.29373291842E+02  0.16666580872E+03  0.17154197230E+03  0.41800000000E+01 0.  1.
         -5    1    3    3    0  502 -0.39093782408E+02 -0.11520929399E+03  0.80884625146E+03  0.81795552211E+03  0.41800000000E+01 0.  1.
        -11    1    1    2    0    0 -0.18067829715E+02  0.26589824332E+00  0.39092971156E+02  0.43067128605E+02  0.00000000000E+00 0. -1.
         11    1    1    2    0    0  0.84890546261E+02  0.85570103904E+02  0.71336342800E+03  0.72347496704E+03  0.00000000000E+00 0.  1.
</event>
<event>
 7    1  0.2651429E-009  0.1054235E+03  0.7561462E-02  0.1269288E+00
         -1   -1    0    0    0  501 -0.00000000000E+00  0.00000000000E+00  0.86551618087E+03  0.86551618087E+03  0.00000000000E+00 0.  1.
          1   -1    0    0  501    0  0.00000000000E+00 -0.00000000000E+00 -0.15728204860E+02  0.15728204860E+02  0.00000000000E+00 0. -1.
         25    2    1    2    0    0 -0.28548461617E+02  0.20729989784E+02  0.59797747302E+03  0.61193980932E+03  0.12509406403E+03 0.  0.
          5    1    3    3  502    0 -0.69031151728E+02 -0.12491353200E+01  0.48427007086E+03  0.48918486708E+03  0.41800000000E+01 0.  1.
         -5    1    3    3    0  502  0.40482690111E+02  0.21979125104E+02  0.11370740216E+03  0.12275494225E+03  0.41800000000E+01 0.  1.
        -11    1    1    2    0    0 -0.13933608711E+02  0.27697218285E+02  0.86169939955E+02  0.91578053617E+02  0.00000000000E+00 0.  1.
         11    1    1    2    0    0  0.42482070328E+02 -0.48427208069E+02  0.16564056303E+03  0.17772652278E+03  0.00000000000E+00 0. -1.
</event>
<event>
 7    1  0.2651429E-009  0.1135955E+03  0.7561462E-02  0.1254053E+00
          2   -1    0    0  501    0  0.00000000000E+00  0.00000000000E+00  0.45587069629E+03  0.45587069629E+03  0.00000000000E+00 0.  1.
         -2   -1    0    0    0  501 -0.00000000000E+00 -0.00000000000E+00 -0.44034087106E+02  0.44034087106E+02  0.00000000000E+00 0. -1.
         25    2    1    2    0    0 -0.42323368000E+02  0.56031314004E+02  0.32241013594E+03  0.35288314049E+03  0.12508972564E+03 0.  0.
          5    1    3    3  502    0  0.36190740481E+02 -0.92927955678E+01  0.55200152926E+02  0.66788135391E+02  0.41800000000E+01 0. -1.
         -5    1    3    3    0  502 -0.78514108481E+02  0.65324109572E+02  0.26720998302E+03  0.28609500510E+03  0.41800000000E+01 0. -1.
        -11    1    1    2    0    0 -0.41016670111E+01 -0.36952457987E+02  0.89406796051E+02  0.96829143359E+02  0.00000000000E+00 0.  1.
         11    1    1    2    0    0  0.46425035011E+02 -0.19078856017E+02  0.19677188592E-01  0.50192499539E+02  0.00000000000E+00 0. -1.
</event>
<event>
 7    1  0.2651429E-009  0.9410941E+02  0.7561462E-02  0.1293195E+00
          2   -1    0    0  501    0  0.00000000000E+00  0.00000000000E+00  0.78212391998E+03  0.78212391998E+03  0.00000000000E+00 0. -1.
         -2   -1    0    0    0  501 -0.00000000000E+00 -0.00000000000E+00 -0.19522599748E+02  0.19522599748E+02  0.00000000000E+00 0.  1.
         25    2    1    2    0    0 -0.24248356519E+01  0.19639997292E+02  0.60005720307E+03  0.61327659559E+03  0.12509167206E+03 0.  0.
          5    1    3    3  502    0  0.40994125323E+02  0.43323902788E+02  0.16693409455E+03  0.17731876152E+03  0.41800000000E+01 0. -1.
         -5    1    3    3    0  502 -0.43418960975E+02 -0.23683905496E+02  0.43312310852E+03  0.43595783406E+03  0.41800000000E+01 0. -1.
        -11    1    1    2    0    0  0.32680200949E+02 -0.32343290987E+02  0.38225553324E+02  0.59793619500E+02  0.00000000000E+00 0.  1.
         11    1    1    2    0    0 -0.30255365297E+02  0.12703293695E+02  0.12431856384E+03  0.12857630464E+03  0.00000000000E+00 0. -1.
</event>
<event>
 7    1  0.2651429E-009  0.1376272E+03  0.7561462E-02  0.1216558E+00
         -1   -1    0    0    0  501 -0.00000000000E+00  0.00000000000E+00  0.10109615347E+03  0.10109615347E+03  0.00000000000E+00 0.  1.
          1   -1    0    0  501    0  0.00000000000E+00 -0.00000000000E+00 -0.27858851319E+03  0.27858851319E+03  0.00000000000E+00 0. -1.
         25    2    1    2    0    0  0.42274633673E+02 -0.87478680679E+02 -0.18863097800E+03  0.24631059009E+03  0.12509035416E+03 0.  0.
          5    1    3    3  502    0  0.73833804727E+02 -0.19791917564E+02 -0.13160934747E+03  0.15225519191E+03  0.41800000000E+01 0. -1.
         -5    1    3    3    0  502 -0.31559171054E+02 -0.67686763116E+02 -0.57021630520E+02  0.94055398175E+02  0.41800000000E+01 0. -1.
        -11    1    1    2    0    0 -0.35859761415E+02 -0.32628636685E+00  0.25726327144E+02  0.44134712641E+02  0.00000000000E+00 0.  1.
         11    1    1    2    0    0 -0.64148722581E+01  0.87804967046E+02 -0.14587708875E+02  0.89239363928E+02  0.00000000000E+00 0. -1.
</event>
<event>
 7    1  0.2651429E-009  0.1396031E+03  0.7561462E-02  0.1213864E+00
          1   -1    0    0  501    0  0.00000000000E+00  0.00000000000E+00  0.15000484014E+04  0.15000484014E+04  0.00000000000E+00 0. -1.
         -1   -1    0    0    0  501 -0.00000000000E+00 -0.00000000000E+00 -0.17221976610E+02  0.17221976610E+02  0.00000000000E+00 0.  1.
         25    2    1    2    0    0 -0.11585365675E+03 -0.20269223779E+02  0.81736423399E+03  0.83520332988E+03  0.12508956797E+03 0.  0.
          5    1    3    3  502    0 -0.12566942960E+02  0.15413842204E+02  0.14595505347E+02  0.25020307016E+02  0.41800000000E+01 0. -1.
         -5    1    3    3    0  502 -0.10328671379E+03 -0.35683065983E+02  0.80276872864E+03  0.81018302286E+03  0.41800000000E+01 0. -1.
        -11    1    1    2    0    0  0.10057960829E+03 -0.23398497206E+02  0.45076273901E+03  0.46244004385E+03  0.00000000000E+00 0.  1.
         11    1    1    2    0    0  0.15274048466E+02  0.43667720985E+02  0.21469945181E+03  0.21962700431E+03  0.00000000000E+00 0. -1.
</event>
<event>
 7    1  0.2651429E-009  0.6587072E+02  0.7561462E-02  0.1374726E+00
         -2   -1    0    0    0  501 -0.00000000000E+00  0.00000000000E+00  0.34507903578E+03  0.34507903578E+03  0.00000000000E+00 0.  1.
          2   -1    0    0  501    0  0.00000000000E+00 -0.00000000000E+00 -0.34983458514E+02  0.34983458514E+02  0.00000000000E+00 0. -1.
         25    2    1    2    0    0 -0.58331445291E+01 -0.61354149322E+01  0.14622271944E+03  0.19261460295E+03  0.12509049803E+03 0.  0.
          5    1    3    3  502    0 -0.15494999343E+02  0.31606902666E+02  0.14916705771E+03  0.15332114924E+03  0.41800000000E+01 0. -1.
         -5    1    3    3    0  502  0.96618548138E+01 -0.37742317599E+02 -0.29443382642E+01  0.39293453704E+02  0.41800000000E+01 0. -1.
        -11    1    1    2    0    0  0.92389443810E+01  0.30828711130E+02  0.13295976727E+02  0.34821696115E+02  0.00000000000E+00 0. -1.
         11    1    1    2    0    0 -0.34057998519E+01 -0.24693296197E+02  0.15057688110E+03  0.15262619523E+03  0.00000000000E+00 0.  1.
</event>
<event>
 7    1  0.2651429E-009  0.8240192E+02  0.7561462E-02  0.1322370E+00
         -2   -1    0    0    0  501 -0.00000000000E+00  0.00000000000E+00  0.37804576904E+02  0.37804576904E+02  0.00000000000E+00 0.  1.
          2   -1    0    0  501    0  0.00000000000E+00 -0.00000000000E+00 -0.47176780860E+03  0.47176780860E+03  0.00000000000E+00 0. -1.
         25    2    1    2    0    0 -0.60246041361E+02 -0.39479147438E+02 -0.28826851927E+03  0.32238902444E+03  0.12509098809E+03 0.  0.
          5    1    3    3  502    0  0.18374525873E+01  0.40762366394E+01  0.11565019838E+02  0.13084877569E+02  0.41800000000E+01 0. -1.
         -5    1    3    3    0  502 -0.62083493948E+02 -0.43555384077E+02 -0.29983353910E+03  0.30930414687E+03  0.41800000000E+01 0. -1.
        -11    1    1    2    0    0  0.20659300789E+02 -0.68740968161E+01  0.69193503410E+01  0.22845947677E+02  0.00000000000E+00 0.  1.
         11    1    1    2    0    0  0.39586740573E+02  0.46353244254E+02 -0.15261406277E+03  0.16433741338E+03  0.00000000000E+00 0. -1.
</event>
<event>
 7    1  0.2651429E-009  0.1096724E+03  0.7561462E-02  0.1261178E+00
          1   -1    0    0  501    0  0.00000000000E+00  0.00000000000E+00  0.25841490182E+03  0.25841490182E+03  0.00000000000E+00 0. -1.
         -1   -1    0    0    0  501 -0.00000000000E+00 -0.00000000000E+00 -0.91341640106E+02  0.91341640106E+02  0.00000000000E+00 0.  1.
         25    2    1    2    0    0  0.56299869335E+02 -0.12836839461E+02  0.12492829078E+02  0.13834630974E+03  0.12509664627E+03 0.  0.
          5    1    3    3  502    0 -0.24591273803E+02 -0.18624043441E+02  0.41708808893E+02  0.52045008220E+02  0.41800000000E+01 0. -1.
         -5    1    3    3    0  502  0.80891143138E+02  0.57872039800E+01 -0.29215979816E+02  0.86301301523E+02  0.41800000000E+01 0. -1.
        -11    1    1    2    0    0 -0.16943764519E+02 -0.38651634477E+02  0.13829114980E+03  0.14458728201E+03  0.00000000000E+00 0. -1.
         11    1    1    2    0    0 -0.39356104816E+02  0.51488473938E+02  0.16289282830E+02  0.66822950173E+02  0.00000000000E+00 0.  1.
</event>
<event>
 7    1  0.2651429E-009  0.1363441E+03  0.7561462E-02  0.1218335E+00
         -1   -1    0    0    0  501 -0.00000000000E+00  0.00000000000E+00  0.27582273600E+03  0.27582273600E+03  0.00000000000E+00 0.  1.
          1   -1    0    0  501    0  0.00000000000E+00 -0.00000000000E+00 -0.90989193262E+02  0.90989193262E+02  0.00000000000E+00 0. -1.
         25    2    1    2    0    0  0.58177571263E+02  0.92093652426E+02  0.56865707307E+02  0.17534828143E+03  0.12508972986E+03 0.  0.
          5    1    3    3  502    0  0.73508824809E+02  0.62063440105E+02 -0.13473030335E+02  0.97233805175E+02  0.41800000000E+01 0. -1.
         -5    1    3    3    0  502 -0.15331253545E+02  0.30030212321E+02  0.70338737642E+02  0.78114476254E+02  0.41800000000E+01 0. -1.
        -11    1    1    2    0    0  0.30447299427E+01 -0.79942331416E+02  0.71828841122E+02  0.10751478573E+03  0.00000000000E+00 0.  1.
         11    1    1    2    0    0 -0.61222301206E+02 -0.12151321010E+02  0.56138994311E+02  0.83948862109E+02  0.00000000000E+00 0. -1.
</event>
<event>
 7    1  0.2651429E-009  0.9770438E+02  0.7561462E-02  0.1285199E+00
          3   -1    0    0  501    0  0.00000000000E+00  0.00000000000E+00  0.77366328272E+02  0.77366328272E+02  0.00000000000E+00 0. -1.
         -3   -1    0    0    0  501 -0.00000000000E+00 -0.00000000000E+00 -0.16335545937E+03  0.16335545937E+03  0.00000000000E+00 0.  1.
         25    2    1    2    0    0  0.69348432406E+01 -0.29599250042E+02 -0.48337397046E+02  0.13750356944E+03  0.12508605039E+03 0.  0.
          5    1    3    3  502    0 -0.30155294653E+02 -0.65851570029E+02 -0.44984736051E+02  0.85363165056E+02  0.41800000000E+01 0. -1.
         -5    1    3    3    0  502  0.37090137893E+02  0.36252319987E+02 -0.33526609944E+01  0.52140404382E+02  0.41800000000E+01 0. -1.
        -11    1    1    2    0    0  0.15007281284E+02  0.42708261432E+02  0.12470974692E+02  0.46954651483E+02  0.00000000000E+00 0. -1.
         11    1    1    2    0    0 -0.21942124525E+02 -0.13109011390E+02 -0.50122708745E+02  0.56263566721E+02  0.00000000000E+00 0.  1.
</event>
<event>
 7    1  0.2651429E-009  0.1137756E+03  0.7561462E-02  0.1253734E+00
         -1   -1    0    0    0  501 -0.00000000000E+00  0.00000000000E+00  0.15180591166E+03  0.15180591166E+03  0.00000000000E+00 0.  1.
          1   -1    0    0  501    0  0.00000000000E+00 -0.00000000000E+00 -0.27515224691E+03  0.27515224691E+03  0.00000000000E+00 0. -1.
         25    2    1    2    0    0 -0.98712151461E+02  0.13498856557E+02 -0.21252756118E+03  0.26597067834E+03  0.12508448944E+03 0.  0.
          5    1    3    3  502    0 -0.12406441497E+02  0.27823758662E+02  0.52913478519E+01  0.31201796403E+02  0.41800000000E+01 0.  1.
         -5    1    3    3    0  502 -0.86305709964E+02 -0.14324902104E+02 -0.21781890903E+03  0.23476888193E+03  0.41800000000E+01 0.  1.
        -11    1    1    2    0    0  0.14355414719E+02 -0.19988220117E+02  0.70047967904E+02  0.74245031367E+02  0.00000000000E+00 0.  1.
         11    1    1    2    0    0  0.84356736742E+02  0.64893635603E+01  0.19133258016E+02  0.86742448868E+02  0.00000000000E+00 0. -1.
</event>
<event>
 7    1  0.2651429E-009  0.8622618E+02  0.7561462E-02  0.1312257E+00
          2   -1    0    0  501    0  0.00000000000E+00  0.00000000000E+00  0.24075850797E+02  0.24075850797E+02  0.00000000000E+00 0. -1.
         -2   -1    0    0    0  501 -0.00000000000E+00 -0.00000000000E+00 -0.66335489125E+03  0.66335489125E+03  0.00000000000E+00 0.  1.
         25    2    1    2    0    0  0.42083329513E+02 -0.40998751090E+02 -0.43777256010E+03  0.45906691821E+03  0.12508283976E+03 0.  0.
          5    1    3    3  502    0  0.34378545780E+02 -0.13539313530E+02 -0.23923866096E+02  0.44215621558E+02  0.41800000000E+01 0.  1.
         -5    1    3    3    0  502  0.77047837327E+01 -0.27459437560E+02 -0.41384869400E+03  0.41485129665E+03  0.41800000000E+01 0.  1.
        -11    1    1    2    0    0 -0.52884076367E+02 -0.10421507647E+02 -0.11759434617E+03  0.12935904919E+03  0.00000000000E+00 0.  1.
         11    1    1    2    0    0  0.10800746854E+02  0.51420258737E+02 -0.83912134181E+02  0.99004774652E+02  0.00000000000E+00 0. -1.
</event>
<event>
 7    1  0.2651429E-009  0.1378226E+03  0.7561462E-02  0.1216289E+00
         -2   -1    0    0    0  501 -0.00000000000E+00  0.00000000000E+00  0.20079123258E+03  0.20079123258E+03  0.00000000000E+00 0.  1.
          2   -1    0    0  501    0  0.00000000000E+00 -0.00000000000E+00 -0.40231529017E+03  0.40231529017E+03  0.00000000000E+00 0. -1.
         25    2    1    2    0    0 -0.10808014648E+03  0.73393821840E+02  0.13802623143E+03  0.22751843937E+03  0.12508168748E+03 0.  0.
          5    1    3    3  502    0 -0.12761461154E+02 -0.29888555876E+01  0.97928410187E+02  0.98890009962E+02  0.41800000000E+01 0. -1.
         -5    1    3    3    0  502 -0.95318685327E+02  0.76382677427E+02  0.40097821244E+02  0.12862842941E+03  0.41800000000E+01 0. -1.
        -11    1    1    2    0    0  0.57081933326E+02 -0.94173062794E+01 -0.56177952739E+02  0.80641150437E+02  0.00000000000E+00 0.  1.
         11    1    1    2    0    0  0.50998213154E+02 -0.63976515560E+02 -0.28337233628E+03  0.29494693295E+03  0.00000000000E+00 0. -1.
</event>
<event>
 7    1  0.2651429E-009  0.1274357E+03  0.7561462E-02  0.1231311E+00
         -1   -1    0    0    0  501 -0.00000000000E+00  0.00000000000E+00  0.17091477377E+02  0.17091477377E+02  0.00000000000E+00 0.  1.
          1   -1    0    0  501    0  0.00000000000E+00 -0.00000000000E+00 -0.16254346059E+04  0.16254346059E+04  0.00000000000E+00 0. -1.
         25    2    1    2    0    0  0.52579677557E+02  0.68253782279E+02 -0.13131783318E+04  0.13219333523E+04  0.12508899085E+03 0.  0.
          5    1    3    3  502    0  0.81103308944E+02  0.44848590894E+02 -0.54358600536E+03  0.55144570036E+03  0.41800000000E+01 0.  1.
         -5    1    3    3    0  502 -0.28523631387E+02  0.23405191385E+02 -0.76959232640E+03  0.77048765194E+03  0.41800000000E+01 0.  1.
        -11    1    1    2    0    0 -0.69902723681E+02 -0.18538114139E+02 -0.17883926181E+03  0.19290809734E+03  0.00000000000E+00 0. -1.
         11    1    1    2    0    0  0.17323046124E+02 -0.49715668140E+02 -0.11632553495E+03  0.12768463364E+03  0.00000000000E+00 0.  1.
</event>
<event>
 7    1  0.2651429E-009  0.1129058E+03  0.7561462E-02  0.1255281E+00
          2   -1    0    0  501    0  0.00000000000E+00  0.00000000000E+00  0.59571858004E+03  0.59571858004E+03  0.00000000000E+00 0. -1.
         -2   -1    0    0    0  501 -0.00000000000E+00 -0.00000000000E+00 -0.39659760312E+02  0.39659760312E+02  0.00000000000E+00 0.  1.
         25    2    1    2    0    0 -0.68155645839E+02 -0.65885577705E+02  0.18732259069E+03  0.24438195078E+03  0.12508670383E+03 0.  0.
          5    1    3    3  502    0 -0.59777361156E+02 -0.50983582788E+02  0.27127168039E+02  0.83222678799E+02  0.41800000000E+01 0.  1.
         -5    1    3    3    0  502 -0.83782846837E+01 -0.14901994917E+02  0.16019542265E+03  0.16115927198E+03  0.41800000000E+01 0.  1.
        -11    1    1    2    0    0  0.25857591684E+02 -0.20731115649E+02  0.11016716099E+03  0.11504432870E+03  0.00000000000E+00 0.  1.
         11    1    1    2    0    0  0.42298054155E+02  0.86616693354E+02  0.25856906805E+03  0.27595206088E+03  0.00000000000E+00 0. -1.
</event>
<event>
 7    1  0.2651429E-009  0.1833402E+03  0.7561462E-02  0.1164609E+00
         -4   -1    0    0    0  501 -0.00000000000E+00  0.00000000000E+00  0.10106421778E+03  0.10106421778E+03  0.00000000000E+00 0.  1.
          4   -1    0    0  501    0  0.00000000000E+00 -0.00000000000E+00 -0.34336290337E+03  0.34336290337E+03  0.00000000000E+00 0. -1.
         25    2    1    2    0    0 -0.56155935296E+02 -0.13961414420E+03 -0.11033047197E+03  0.22464524009E+03  0.12508825892E+03 0.  0.
          5    1    3    3  502    0  0.31415325134E+02 -0.76903146915E+02 -0.24075515812E+02  0.86591682743E+02  0.41800000000E+01 0.  1.
         -5    1    3    3    0  502 -0.87571260429E+02 -0.62710997288E+02 -0.86254956157E+02  0.13805355735E+03  0.41800000000E+01 0.  1.
        -11    1    1    2    0    0  0.38642902693E+02  0.15030550572E+03 -0.11802441169E+03  0.19497379499E+03  0.00000000000E+00 0.  1.
         11    1    1    2    0    0  0.17513032603E+02 -0.10691361514E+02 -0.13943801935E+02  0.24808086068E+02  0.00000000000E+00 0. -1.
</event>
<event>
 7    1  0.2651429E-009  0.1080616E+03  0.7561462E-02  0.1264202E+00
         -1   -1    0    0    0  501 -0.00000000000E+00  0.00000000000E+00  0.57755206506E+02  0.57755206506E+02  0.00000000000E+00 0.  1.
          1   -1    0    0  501    0  0.00000000000E+00 -0.00000000000E+00 -0.37365105991E+03  0.37365105991E+03  0.00000000000E+00 0. -1.
         25    2    1    2    0    0  0.39795115521E+01 -0.36765617956E+02 -0.36589826530E+02  0.13546595139E+03  0.12507862090E+03 0.  0.
          5    1    3    3  502    0  0.59636989009E+02 -0.32864312089E+02 -0.40572449531E+02  0.79373985210E+02  0.41800000000E+01 0.  1.
         -5    1    3    3    0  502 -0.55657477457E+02 -0.39013058664E+01  0.39826230015E+01  0.56091966183E+02  0.41800000000E+01 0.  1.
        -11    1    1    2    0    0  0.23032914103E+02  0.54819413461E+02 -0.22437267975E+03  0.23211803601E+03  0.00000000000E+00 0. -1.
         11    1    1    2    0    0 -0.27012425655E+02 -0.18053795505E+02 -0.54933347122E+02  0.63822279009E+02  0.00000000000E+00 0.  1.
</event>
<event>
 7    1  0.2651429E-009  0.1922073E+03  0.7561462E-02  0.1156485E+00
          2   -1    0    0  501    0  0.00000000000E+00  0.00000000000E+00  0.74127021306E+02  0.74127021306E+02  0.00000000000E+00 0.  1.
         -2   -1    0    0    0  501 -0.00000000000E+00 -0.00000000000E+00 -0.61267721374E+03  0.61267721374E+03  0.00000000000E+00 0. -1.
         25    2    1    2    0    0  0.83153400464E+02  0.15147839136E+03 -0.18293595061E+03  0.28102146189E+03  0.12508920402E+03 0.  0.
          5    1    3    3  502    0  0.11405825672E+03  0.10467643666E+03 -0.11540185048E+03  0.19313596716E+03  0.41800000000E+01 0.  1.
         -5    1    3    3    0  502 -0.30904856254E+02  0.46801954700E+02 -0.67534100130E+02  0.87885494731E+02  0.41800000000E+01 0.  1.
        -11    1    1    2    0    0 -0.35547391462E+02 -0.78500455652E+02 -0.83242488387E+02  0.11981339846E+03  0.00000000000E+00 0. -1.
         11    1    1    2    0    0 -0.47606009002E+02 -0.72977935704E+02 -0.27237175344E+03  0.28596937469E+03  0.00000000000E+00 0.  1.
</event>
<event>
 7    1  0.2651429E-009  0.2250311E+03  0.7561462E-02  0.1130187E+00
         -2   -1    0    0    0  501 -0.00000000000E+00  0.00000000000E+00  0.11653092309E+03  0.11653092309E+03  0.00000000000E+00 0.  1.
          2   -1    0    0  501    0  0.00000000000E+00 -0.00000000000E+00 -0.58356923473E+03  0.58356923473E+03  0.00000000000E+00 0. -1.
         25    2    1    2    0    0 -0.21569526469E+03 -0.45954332384E+02 -0.35638755546E+03  0.43737332645E+03  0.12508832534E+03 0.  0.
          5    1    3    3  502    0 -0.69184874139E+01 -0.94570245346E+01 -0.11682948711E+03  0.11749000910E+03  0.41800000000E+01 0. -1.
         -5    1    3    3    0  502 -0.20877677727E+03 -0.36497307849E+02 -0.23955806835E+03  0.31988331735E+03  0.41800000000E+01 0. -1.
        -11    1    1    2    0    0  0.10674553046E+03 -0.16096032032E+01 -0.10479896780E+02  0.10727081305E+03  0.00000000000E+00 0.  1.
         11    1    1    2    0    0  0.10894973422E+03  0.47563935587E+02 -0.10017085940E+03  0.15545601831E+03  0.00000000000E+00 0. -1.
</event>
<event>
 7    1  0.2651429E-009  0.9693592E+02  0.7561462E-02  0.1286874E+00
         -2   -1    0    0    0  501 -0.00000000000E+00  0.00000000000E+00  0.42846438597E+02  0.42846438597E+02  0.00000000000E+00 0.  1.
          2   -1    0    0  501    0  0.00000000000E+00 -0.00000000000E+00 -0.34586373512E+03  0.34586373512E+03  0.00000000000E+00 0. -1.
         25    2    1    2    0    0  0.20044108343E+02 -0.14373053049E+02 -0.93713092577E+02  0.15823509445E+03  0.12509136845E+03 0.  0.
          5    1    3    3  502    0 -0.51636356503E+02 -0.10402545399E+02 -0.56153684096E+02  0.77105349368E+02  0.41800000000E+01 0. -1.
         -5    1    3    3    0  502  0.71680464846E+02 -0.39705076498E+01 -0.37559408481E+02  0.81129745081E+02  0.41800000000E+01 0. -1.
        -11    1    1    2    0    0 -0.90549127627E+01  0.40118597986E+02 -0.19451551893E+03  0.19881594617E+03  0.00000000000E+00 0. -1.
         11    1    1    2    0    0 -0.10989195580E+02 -0.25745544937E+02 -0.14788685016E+02  0.31659133091E+02  0.00000000000E+00 0.  1.
</event>
<event>
 7    1  0.2651429E-009  0.2186770E+03  0.7561462E-02  0.1134873E+00
          1   -1    0    0  501    0  0.00000000000E+00  0.00000000000E+00  0.37869966674E+03  0.37869966674E+03  0.00000000000E+00 0. -1.
         -1   -1    0    0    0  501 -0.00000000000E+00 -0.00000000000E+00 -0.14473261363E+03  0.14473261363E+03  0.00000000000E+00 0.  1.
         25    2    1    2    0    0  0.14273059694E+03 -0.14287966772E+03  0.73403384131E+02  0.24864042391E+03  0.12508949136E+03 0.  0.
          5    1    3    3  502    0  0.10364112530E+03 -0.42407750673E+02 -0.96671537300E+01  0.11247589267E+03  0.41800000000E+01 0. -1.
         -5    1    3    3    0  502  0.39089471646E+02 -0.10047191704E+03  0.83070537861E+02  0.13616453124E+03  0.41800000000E+01 0. -1.
        -11    1    1    2    0    0 -0.14056608032E+03  0.95413641182E+02  0.14880297997E+03  0.22584267247E+03  0.00000000000E+00 0. -1.
         11    1    1    2    0    0 -0.21645166207E+01  0.47466026536E+02  0.11760689013E+02  0.48949183991E+02  0.00000000000E+00 0.  1.
</event>
<event>
 7    1  0.2651429E-009  0.8307667E+02  0.7561462E-02  0.1320540E+00
          2   -1    0    0  501    0  0.00000000000E+00  0.00000000000E+00  0.51370631453E+02  0.51370631453E+02  0.00000000000E+00 0. -1.
         -2   -1    0    0    0  501 -0.00000000000E+00 -0.00000000000E+00 -0.35122173655E+03  0.35122173655E+03  0.00000000000E+00 0.  1.
         25    2    1    2    0    0  0.43477504967E+02  0.60034318236E+02 -0.19916390467E+03  0.24658727880E+03  0.12507842475E+03 0.  0.
          5    1    3    3  502    0  0.30981213435E+02  0.13284060872E+02 -0.19488991360E+03  0.19782783596E+03  0.41800000000E+01 0. -1.
         -5    1    3    3    0  502  0.12496291532E+02  0.46750257364E+02 -0.42739910680E+01  0.48759442832E+02  0.41800000000E+01 0. -1.
        -11    1    1    2    0    0  0.23827874403E+01 -0.26975862860E+02 -0.95464112053E+02  0.99230900143E+02  0.00000000000E+00 0.  1.
         11    1    1    2    0    0 -0.45860292408E+02 -0.33058455376E+02 -0.52230883748E+01  0.56774189063E+02  0.00000000000E+00 0. -1.
</event>
<event>
 7    1  0.2651429E-009  0.2446531E+03  0.7561462E-02  0.1116731E+00
         -2   -1    0    0    0  501 -0.00000000000E+00  0.00000000000E+00  0.59211185924E+02  0.59211185924E+02  0.00000000000E+00 0.  1.
          2   -1    0    0  501    0  0.00000000000E+00 -0.00000000000E+00 -0.10912349933E+04  0.10912349933E+04  0.00000000000E+00 0. -1.
         25    2    1    2    0    0  0.13397818907E+03  0.18570950718E+03 -0.56911222277E+03  0.62607460175E+03  0.12507001502E+03 0.  0.
          5    1    3    3  502    0  0.66775575064E+02  0.51123520477E+01 -0.17304886901E+03  0.18560306311E+03  0.41800000000E+01 0. -1.
         -5    1    3    3    0  502  0.67202614009E+02  0.18059715513E+03 -0.39606335375E+03  0.44047153865E+03  0.41800000000E+01 0. -1.
        -11    1    1    2    0    0 -0.10445349249E+03 -0.13377866318E+03 -0.24241436366E+03  0.29592564357E+03  0.00000000000E+00 0.  1.
         11    1    1    2    0    0 -0.29524696580E+02 -0.51930844001E+02 -0.22049722090E+03  0.22844593385E+03  0.00000000000E+00 0. -1.
</event>
<event>
 7    1  0.2651429E-009  0.2263336E+03  0.7561462E-02  0.1129247E+00
         -2   -1    0    0    0  501 -0.00000000000E+00  0.00000000000E+00  0.35535435280E+02  0.35535435280E+02  0.00000000000E+00 0. -1.
          2   -1    0    0  501    0  0.00000000000E+00 -0.00000000000E+00 -0.17014760216E+04  0.17014760216E+04  0.00000000000E+00 0.  1.
         25    2    1    2    0    0  0.19700377000E+03 -0.36874350147E+02 -0.53414371329E+03  0.58406226009E+03  0.12509601959E+03 0.  0.
          5    1    3    3  502    0 -0.12367421363E+02  0.13181787691E+02 -0.69874328889E+02  0.72295275611E+02  0.41800000000E+01 0.  1.
         -5    1    3    3    0  502  0.20937119136E+03 -0.50056137838E+02 -0.46426938441E+03  0.51176698448E+03  0.41800000000E+01 0.  1.
        -11    1    1    2    0    0 -0.18111371348E+03  0.27214062048E+01 -0.97576353141E+03  0.99243339952E+03  0.00000000000E+00 0.  1.
         11    1    1    2    0    0 -0.15890056516E+02  0.34152943942E+02 -0.15603334165E+03  0.16051579730E+03  0.00000000000E+00 0. -1.
</event>
<event>
 7    1  0.2651429E-009  0.1601568E+03  0.7561462E-02  0.1188520E+00
         -1   -1    0    0    0  501 -0.00000000000E+00  0.00000000000E+00  0.31221593895E+02  0.31221593895E+02  0.00000000000E+00 0.  1.
          1   -1    0    0  501    0  0.00000000000E+00 -0.00000000000E+00 -0.11021920225E+04  0.11021920225E+04  0.00000000000E+00 0. -1.
         25    2    1    2    0    0  0.95303309228E+02  0.11182021818E+03 -0.47361702545E+03  0.51141711210E+03  0.12509154170E+03 0.  0.
          5    1    3    3  502    0  0.49501667219E+02  0.37649042643E+02 -0.52932306797E+02  0.81775099952E+02  0.41800000000E+01 0.  1.
         -5    1    3    3    0  502  0.45801642009E+02  0.74171175536E+02 -0.42068471865E+03  0.42964201215E+03  0.41800000000E+01 0.  1.
        -11    1    1    2    0    0 -0.92230799032E+02 -0.42901330993E+02 -0.40729034659E+03  0.41980051324E+03  0.00000000000E+00 0. -1.
         11    1    1    2    0    0 -0.30725101952E+01 -0.68918887186E+02 -0.19006305656E+03  0.20219599106E+03  0.00000000000E+00 0.  1.
</event>
<event>
 7    1  0.3893734E-009  0.9206656E+02  0.7561462E-02  0.1297923E+00
         -2   -1    0    0    0  501 -0.00000000000E+00  0.00000000000E+00  0.37817426572E+02  0.37817426572E+02  0.00000000000E+00 0.  1.
          2   -1    0    0  501    0  0.00000000000E+00 -0.00000000000E+00 -0.51847114176E+03  0.51847114176E+03  0.00000000000E+00 0. -1.
         25    2    1    2    0    0 -0.95321657456E+01 -0.79937119500E+02 -0.33458580797E+03  0.36616402997E+03  0.12509048202E+03 0.  0.
          5    1    3    3  502    0 -0.12469423827E+02 -0.83755900404E+02 -0.98377879069E+02  0.12986999990E+03  0.41800000000E+01 0. -1.
         -5    1    3    3    0  502  0.29372580813E+01  0.38187809044E+01 -0.23620792890E+03  0.23629403007E+03  0.41800000000E+01 0. -1.
        -11    1    1    2    0    0  0.25103496012E+02  0.70330486633E+02 -0.44517099573E+02  0.86938685385E+02  0.00000000000E+00 0.  1.
         11    1    1    2    0    0 -0.15571330266E+02  0.96066328667E+01 -0.10155080765E+03  0.10318585298E+03  0.00000000000E+00 0. -1.
</event>
<event>
 7    1  0.2852922E-009  0.1017147E+03  0.7561462E-02  0.1276731E+00
          2   -1    0    0  501    0  0.00000000000E+00  0.00000000000E+00  0.55346834015E+03  0.55346834015E+03  0.00000000000E+00 0. -1.
         -2   -1    0    0    0  501 -0.00000000000E+00 -0.00000000000E+00 -0.31478183972E+02  0.31478183972E+02  0.00000000000E+00 0.  1.
         25    2    1    2    0    0 -0.18631353500E+02  0.17425245628E+02  0.44378089776E+03  0.46177896013E+03  0.12509019260E+03 0.  0.
          5    1    3    3  502    0 -0.66003008526E+02  0.29189213896E+02  0.18946738450E+03  0.20278996408E+03  0.41800000000E+01 0. -1.
         -5    1    3    3    0  502  0.47371655026E+02 -0.11763968268E+02  0.25431351326E+03  0.25898899605E+03  0.41800000000E+01 0. -1.
        -11    1    1    2    0    0  0.49424736301E+02 -0.12310059656E+02  0.15703012234E+02  0.53300344468E+02  0.00000000000E+00 0.  1.
         11    1    1    2    0    0 -0.30793382801E+02 -0.51151859720E+01  0.62506246192E+02  0.69867219530E+02  0.00000000000E+00 0. -1.
</event>
<event>
 7    1  0.2651429E-009  0.1125993E+03  0.7561462E-02  0.1255831E+00
         -2   -1    0    0    0  501 -0.00000000000E+00  0.00000000000E+00  0.26685029629E+03  0.26685029629E+03  0.00000000000E+00 0.  1.
          2   -1    0    0  501    0  0.00000000000E+00 -0.00000000000E+00 -0.67244193431E+02  0.67244193431E+02  0.00000000000E+00 0. -1.
         25    2    1    2    0    0 -0.42196613063E+02  0.16245768473E+02  0.28913506811E+02  0.13611591295E+03  0.12508825578E+03 0.  0.
          5    1    3    3  502    0 -0.73339973872E+02 -0.26865607966E+02  0.26956670339E+02  0.82732382624E+02  0.41800000000E+01 0.  1.
         -5    1    3    3    0  502  0.31143360808E+02  0.43111376439E+02  0.19568364726E+01  0.53383530324E+02  0.41800000000E+01 0.  1.
        -11    1    1    2    0    0  0.62614958728E+02 -0.29576257565E+02  0.89253262545E+02  0.11296695509E+03  0.00000000000E+00 0. -1.
         11    1    1    2    0    0 -0.20418345665E+02  0.13330489093E+02  0.81439333506E+02  0.85011621682E+02  0.00000000000E+00 0.  1.
</event>
<event>
 7    1  0.2651429E-009  0.9888033E+02  0.7561462E-02  0.1282668E+00
         -2   -1    0    0    0  501 -0.00000000000E+00  0.00000000000E+00  0.57571405913E+03  0.57571405913E+03  0.00000000000E+00 0.  1.
          2   -1    0    0  501    0  0.00000000000E+00 -0.00000000000E+00 -0.20874552855E+02  0.20874552855E+02  0.00000000000E+00 0. -1.
         25    2    1    2    0    0  0.75668117519E+01 -0.11975172793E+02  0.35820209980E+03  0.37968093397E+03  0.12509278922E+03 0.  0.
          5    1    3    3  502    0 -0.54274082671E+02  0.17313217037E+02  0.15176892221E+03  0.16216257794E+03  0.41800000000E+01 0. -1.
         -5    1    3    3    0  502  0.61840894423E+02 -0.29288389830E+02  0.20643317758E+03  0.21751835603E+03  0.41800000000E+01 0. -1.
        -11    1    1    2    0    0 -0.37519412117E+02 -0.46857362484E+01  0.16812408500E+03  0.17232344694E+03  0.00000000000E+00 0.  1.
         11    1    1    2    0    0  0.29952600365E+02  0.16660909042E+02  0.28513321476E+02  0.44584231072E+02  0.00000000000E+00 0. -1.
</event>
<event>
 7    1  0.2651429E-009  0.1165117E+03  0.7561462E-02  0.1248965E+00
         -2   -1    0    0    0  501 -0.00000000000E+00  0.00000000000E+00  0.13883839582E+02  0.13883839582E+02  0.00000000000E+00 0.  1.
          2   -1    0    0  501    0  0.00000000000E+00 -0.00000000000E+00 -0.13224207463E+04  0.13224207463E+04  0.00000000000E+00 0. -1.
         25    2    1    2    0    0 -0.64216803665E+02  0.41743505131E+02 -0.84381944945E+03  0.85647239502E+03  0.12508949622E+03 0.  0.
          5    1    3    3  502    0  0.20146322100E+02  0.22962528790E+02 -0.56097213696E+02  0.64011888014E+02  0.41800000000E+01 0. -1.
         -5    1    3    3    0  502 -0.84363125766E+02  0.18780976341E+02 -0.78772223576E+03  0.79246050701E+03  0.41800000000E+01 0. -1.
        -11    1    1    2    0    0  0.59258254800E+02  0.13022122780E+02 -0.18292141318E+03  0.19272093774E+03  0.00000000000E+00 0.  1.
         11    1    1    2    0    0  0.49585488655E+01 -0.54765627911E+02 -0.28179604412E+03  0.28711125316E+03  0.00000000000E+00 0. -1.
</event>
<event>
 6    1  0.2651429E-009  0.4497913E+03  0.7561462E-02  0.1027784E+00
         -1   -1    0    0    0  501 -0.00000000000E+00  0.00000000000E+00  0.91699627624E+03  0.91699627624E+03  0.00000000000E+00 0.  1.
          1   -1    0    0  501    0  0.00000000000E+00 -0.00000000000E+00 -0.24486225518E+03  0.24486225518E+03  0.00000000000E+00 0. -1.
          5    1    1    2  502    0  0.41456382959E+02  0.74648491181E+00  0.67391646973E+02  0.79235695299E+02  0.41800000000E+01 0. -1.
         -5    1    1    2    0  502  0.26091698383E+03 -0.32339173431E+03  0.43107046950E+03  0.59874795060E+03  0.41800000000E+01 0. -1.
        -11    1    1    2    0    0 -0.29252923196E+02  0.26015231942E+02 -0.10583833825E+02  0.40552969644E+02  0.00000000000E+00 0.  1.
         11    1    1    2    0    0 -0.27312044359E+03  0.29663001746E+03  0.18425573841E+03  0.44332191588E+03  0.00000000000E+00 0. -1.
</event>
<event>
 7    1  0.2651429E-009  0.1316383E+03  0.7561462E-02  0.1225045E+00
          2   -1    0    0  501    0  0.00000000000E+00  0.00000000000E+00  0.88895521467E+03  0.88895521467E+03  0.00000000000E+00 0. -1.
         -2   -1    0    0    0  501 -0.00000000000E+00 -0.00000000000E+00 -0.22286350703E+02  0.22286350703E+02  0.00000000000E+00 0.  1.
         25    2    1    2    0    0 -0.64122022455E+02 -0.63538958125E+02  0.46143678817E+03  0.48653675985E+03  0.12508107868E+03 0.  0.
          5    1    3    3  502    0  0.24749463842E+02 -0.55958604565E+02  0.24148420449E+03  0.24915054646E+03  0.41800000000E+01 0. -1.
         -5    1    3    3    0  502 -0.88871486297E+02 -0.75803535593E+01  0.21995258368E+03  0.23738621339E+03  0.41800000000E+01 0. -1.
        -11    1    1    2    0    0  0.17127630841E+01  0.48406451402E+02  0.82688903630E+02  0.95830959915E+02  0.00000000000E+00 0.  1.
         11    1    1    2    0    0  0.62409259371E+02  0.15132506723E+02  0.32254317217E+03  0.32887384561E+03  0.00000000000E+00 0. -1.
</event>
<event>
 7    1  0.2651429E-009  0.1782795E+03  0.7561462E-02  0.1169479E+00
         -2   -1    0    0    0  501 -0.00000000000E+00  0.00000000000E+00  0.40696688521E+02  0.40696688521E+02  0.00000000000E+00 0.  1.
          2   -1    0    0  501    0  0.00000000000E+00 -0.00000000000E+00 -0.86317072583E+03  0.86317072583E+03  0.00000000000E+00 0. -1.
         25    2    1    2    0    0  0.14574164696E+03  0.32693834267E+01 -0.33131447353E+03  0.38297117673E+03  0.12508527214E+03 0.  0.
          5    1    3    3  502    0  0.15198523959E+03 -0.32144564635E+02 -0.25757063683E+03  0.30082036409E+03  0.41800000000E+01 0.  1.
         -5    1    3    3    0  502 -0.62435926391E+01  0.35413948061E+02 -0.73743836698E+02  0.82150812639E+02  0.41800000000E+01 0.  1.
        -11    1    1    2    0    0 -0.70210485396E+02  0.36994164498E+02 -0.15659504797E+03  0.17555651373E+03  0.00000000000E+00 0.  1.
         11    1    1    2    0    0 -0.75531161559E+02 -0.40263547925E+02 -0.33456451581E+03  0.34533972389E+03  0.00000000000E+00 0. -1.
</event>
<event>
 7    1  0.2651429E-009  0.1528419E+03  0.7561462E-02  0.1197024E+00
         -1   -1    0    0    0  501 -0.00000000000E+00  0.00000000000E+00  0.36519565321E+02  0.36519565321E+02  0.00000000000E+00 0.  1.
          1   -1    0    0  501    0  0.00000000000E+00 -0.00000000000E+00 -0.74911281245E+03  0.74911281245E+03  0.00000000000E+00 0. -1.
         25    2    1    2    0    0 -0.90042532415E+02  0.81938519937E+02 -0.42897609028E+03  0.46313182453E+03  0.12509605179E+03 0.  0.
          5    1    3    3  502    0 -0.11135297119E+03  0.25819130745E+02 -0.28084023607E+03  0.30324053538E+03  0.41800000000E+01 0. -1.
         -5    1    3    3    0  502  0.21310438773E+02  0.56119389193E+02 -0.14813585421E+03  0.15989128915E+03  0.41800000000E+01 0. -1.
        -11    1    1    2    0    0  0.51034825769E+02 -0.14225117402E+02 -0.39229863027E+02  0.65923361257E+02  0.00000000000E+00 0.  1.
         11    1    1    2    0    0  0.39007706646E+02 -0.67713402535E+02 -0.24438729382E+03  0.25657719198E+03  0.00000000000E+00 0. -1.
</event>
<event>
 7    1  0.2651429E-009  0.9593331E+02  0.7561462E-02  0.1289088E+00
          2   -1    0    0  501    0  0.00000000000E+00  0.00000000000E+00  0.31573431437E+03  0.31573431437E+03  0.00000000000E+00 0. -1.
         -2   -1    0    0    0  501 -0.00000000000E+00 -0.00000000000E+00 -0.39349019570E+02  0.39349019570E+02  0.00000000000E+00 0.  1.
         25    2    1    2    0    0  0.84571463811E+01  0.19942388019E+02  0.17331699529E+03  0.21484116213E+03  0.12509485171E+03 0.  0.
          5    1    3    3  502    0 -0.51747824443E+02 -0.18694496445E+02  0.70820767992E+02  0.89779591840E+02  0.41800000000E+01 0.  1.
         -5    1    3    3    0  502  0.60204970824E+02  0.38636884465E+02  0.10249622730E+03  0.12506157029E+03  0.41800000000E+01 0.  1.
        -11    1    1    2    0    0  0.26572104930E+02 -0.54801595412E+01 -0.32935394906E+01  0.27330501484E+02  0.00000000000E+00 0.  1.
         11    1    1    2    0    0 -0.35029251311E+02 -0.14462228478E+02  0.10636183900E+03  0.11291167033E+03  0.00000000000E+00 0. -1.
</event>
<event>
 7    1  0.2651429E-009  0.1068282E+03  0.7561462E-02  0.1266559E+00
         -4   -1    0    0    0  501 -0.00000000000E+00  0.00000000000E+00  0.22278340855E+03  0.22278340855E+03  0.00000000000E+00 0. -1.
          4   -1    0    0  501    0  0.00000000000E+00 -0.00000000000E+00 -0.62819485375E+02  0.62819485375E+02  0.00000000000E+00 0.  1.
         25    2    1    2    0    0 -0.32426071434E+02 -0.70692326464E+01  0.47531584000E+02  0.13787837449E+03  0.12509904282E+03 0.  0.
          5    1    3    3  502    0 -0.75099622378E+02 -0.84957734018E+01  0.55989494194E+02  0.94151087658E+02  0.41800000000E+01 0. -1.
         -5    1    3    3    0  502  0.42673550944E+02  0.14265407554E+01 -0.84579101937E+01  0.43727286831E+02  0.41800000000E+01 0. -1.
        -11    1    1    2    0    0 -0.20498551867E+02  0.30849537963E+02  0.34947487192E+02  0.50923584734E+02  0.00000000000E+00 0. -1.
         11    1    1    2    0    0  0.52924623301E+02 -0.23780305316E+02  0.77484851983E+02  0.96800934703E+02  0.00000000000E+00 0.  1.
</event>
<event>
 7    1  0.2651429E-009  0.1186432E+03  0.7561462E-02  0.1245352E+00
          1   -1    0    0  501    0  0.00000000000E+00  0.00000000000E+00  0.69262870406E+03  0.69262870406E+03  0.00000000000E+00 0. -1.
         -1   -1    0    0    0  501 -0.00000000000E+00 -0.00000000000E+00 -0.27705442669E+02  0.27705442669E+02  0.00000000000E+00 0.  1.
         25    2    1    2    0    0  0.47782808957E+02  0.35649317512E+02  0.52802815203E+03  0.54590751879E+03  0.12508884469E+03 0.  0.
          5    1    3    3  502    0 -0.42149944590E+02  0.18919949969E+02  0.15417322272E+03  0.16100135819E+03  0.41800000000E+01 0.  1.
         -5    1    3    3    0  502  0.89932753547E+02  0.16729367543E+02  0.37385492931E+03  0.38490616060E+03  0.41800000000E+01 0.  1.
        -11    1    1    2    0    0 -0.34987653968E+02  0.21296560695E+02  0.24358886024E+02  0.47655374891E+02  0.00000000000E+00 0.  1.
         11    1    1    2    0    0 -0.12795154989E+02 -0.56945878207E+02  0.11253622334E+03  0.12677125305E+03  0.00000000000E+00 0. -1.
</event>
<event>
 7    1  0.2651429E-009  0.1565152E+03  0.7561462E-02  0.1192688E+00
          2   -1    0    0  501    0  0.00000000000E+00  0.00000000000E+00  0.55894413765E+03  0.55894413765E+03  0.00000000000E+00 0. -1.
         -2   -1    0    0    0  501 -0.00000000000E+00 -0.00000000000E+00 -0.65778648229E+02  0.65778648229E+02  0.00000000000E+00 0.  1.
         25    2    1    2    0    0 -0.31304368440E+02 -0.12625066658E+03  0.11293572137E+03  0.21288870114E+03  0.12509167685E+03 0.  0.
          5    1    3    3  502    0  0.35304690158E+02 -0.47059815538E+02  0.88713991838E+02  0.10653024046E+03  0.41800000000E+01 0.  1.
         -5    1    3    3    0  502 -0.66609058598E+02 -0.79190851039E+02  0.24221729535E+02  0.10635846068E+03  0.41800000000E+01 0.  1.
        -11    1    1    2    0    0  0.38864430244E+02  0.19522639907E+02  0.17576552708E+03  0.18106655660E+03  0.00000000000E+00 0.  1.
         11    1    1    2    0    0 -0.75600618039E+01  0.10672802667E+03  0.20446424097E+03  0.23076752814E+03  0.00000000000E+00 0. -1.
</event>
<event>
 7    1  0.2651429E-009  0.1175416E+03  0.7561462E-02  0.1247209E+00
          2   -1    0    0  501    0  0.00000000000E+00  0.00000000000E+00  0.31566990277E+02  0.31566990277E+02  0.00000000000E+00 0. -1.
         -2   -1    0    0    0  501 -0.00000000000E+00 -0.00000000000E+00 -0.60187707150E+03  0.60187707150E+03  0.00000000000E+00 0.  1.
         25    2    1    2    0    0 -0.15245303677E+02 -0.68863922923E+02 -0.20248697081E+03  0.24824051422E+03  0.12509084853E+03 0.  0.
          5    1    3    3  502    0 -0.53756107631E+02 -0.60888405869E+02 -0.19014758843E+03  0.20681077066E+03  0.41800000000E+01 0. -1.
         -5    1    3    3    0  502  0.38510803954E+02 -0.79755170538E+01 -0.12339382386E+02  0.41429743556E+02  0.41800000000E+01 0. -1.
        -11    1    1    2    0    0  0.43713760504E+02  0.46480934829E+01 -0.13068157677E+03  0.13787738080E+03  0.00000000000E+00 0.  1.
         11    1    1    2    0    0 -0.28468456827E+02  0.64215829440E+02 -0.23714153364E+03  0.24732616676E+03  0.00000000000E+00 0. -1.
</event>
<event>
 7    1  0.2651429E-009  0.9671641E+02  0.7561462E-02  0.1287356E+00
          3   -1    0    0  501    0  0.00000000000E+00  0.00000000000E+00  0.27748605797E+03  0.27748605797E+03  0.00000000000E+00 0. -1.
         -3   -1    0    0    0  501 -0.00000000000E+00 -0.00000000000E+00 -0.51537749436E+02  0.51537749436E+02  0.00000000000E+00 0.  1.
         25    2    1    2    0    0  0.34712559707E+02 -0.21580885684E+02  0.16060628128E+03  0.20763648129E+03  0.12509130405E+03 0.  0.
          5    1    3    3  502    0 -0.65149496089E+01  0.32440328954E+02  0.12776346232E+03  0.13204466750E+03  0.41800000000E+01 0.  1.
         -5    1    3    3    0  502  0.41227509315E+02 -0.54021214638E+02  0.32842818960E+02  0.75591813793E+02  0.41800000000E+01 0.  1.
        -11    1    1    2    0    0  0.88378474465E-01 -0.29876642665E+02  0.48601968716E+02  0.57050617444E+02  0.00000000000E+00 0. -1.
         11    1    1    2    0    0 -0.34800938181E+02  0.51457528349E+02  0.16740058534E+02  0.64336708665E+02  0.00000000000E+00 0.  1.
</event>
<event>
 7    1  0.2651429E-009  0.2210624E+03  0.7561462E-02  0.1133093E+00
          4   -1    0    0  501    0  0.00000000000E+00  0.00000000000E+00  0.37120839920E+02  0.37120839920E+02  0.00000000000E+00 0. -1.
         -4   -1    0    0    0  501 -0.00000000000E+00 -0.00000000000E+00 -0.16570267747E+04  0.16570267747E+04  0.00000000000E+00 0.  1.
         25    2    1    2    0    0  0.15213111464E+03  0.14101320088E+03 -0.55036208586E+03  0.60130833403E+03  0.12507872786E+03 0.  0.
          5    1    3    3  502    0  0.10111379882E+03  0.36113826347E+02 -0.37924181846E+03  0.39417006232E+03  0.41800000000E+01 0.  1.
         -5    1    3    3    0  502  0.51017315819E+02  0.10489937453E+03 -0.17112026740E+03  0.20713827171E+03  0.41800000000E+01 0.  1.
        -11    1    1    2    0    0 -0.10627008710E+03 -0.53106095226E+02 -0.71018112496E+03  0.72004917819E+03  0.00000000000E+00 0.  1.
         11    1    1    2    0    0 -0.45861027538E+02 -0.87907105656E+02 -0.35936272394E+03  0.37279010237E+03  0.00000000000E+00 0. -1.
</event>
<event>
 7    1  0.2651429E-009  0.1413111E+03  0.7561462E-02  0.1211576E+00
          1   -1    0    0  501    0  0.00000000000E+00  0.00000000000E+00  0.50580458615E+03  0.50580458615E+03  0.00000000000E+00 0. -1.
         -1   -1    0    0    0  501 -0.00000000000E+00 -0.00000000000E+00 -0.47598527087E+02  0.47598527087E+02  0.00000000000E+00 0.  1.
         25    2    1    2    0    0 -0.15794010861E+02 -0.94326052738E+02  0.34825437680E+03  0.38219422782E+03  0.12507782305E+03 0.  0.
          5    1    3    3  502    0  0.54730088151E+02 -0.41928468869E+02  0.13939708881E+03  0.15557120498E+03  0.41800000000E+01 0.  1.
         -5    1    3    3    0  502 -0.70524099011E+02 -0.52397583869E+02  0.20885728799E+03  0.22662302284E+03  0.41800000000E+01 0.  1.
        -11    1    1    2    0    0 -0.30475239791E+02  0.15500164134E+02  0.54390886419E+02  0.64244562835E+02  0.00000000000E+00 0.  1.
         11    1    1    2    0    0  0.46269250651E+02  0.78825888604E+02  0.55560795852E+02  0.10696432258E+03  0.00000000000E+00 0. -1.
</event>
<event>
 7    1  0.2651429E-009  0.1167017E+03  0.7561462E-02  0.1248640E+00
          2   -1    0    0  501    0  0.00000000000E+00  0.00000000000E+00  0.21929520744E+03  0.21929520744E+03  0.00000000000E+00 0. -1.
         -2   -1    0    0    0  501 -0.00000000000E+00 -0.00000000000E+00 -0.74852584467E+02  0.74852584467E+02  0.00000000000E+00 0.  1.
         25    2    1    2    0    0 -0.25886384444E+01 -0.39500764945E+02  0.13775475600E+03  0.19024053102E+03  0.12509226740E+03 0.  0.
          5    1    3    3  502    0 -0.39898797295E+02 -0.70573105341E+02  0.98652056925E+02  0.12775827941E+03  0.41800000000E+01 0.  1.
         -5    1    3    3    0  502  0.37310158850E+02  0.31072340396E+02  0.39102699077E+02  0.62482251610E+02  0.41800000000E+01 0.  1.
        -11    1    1    2    0    0 -0.43505436900E+02  0.11368260348E+01  0.60073404861E+01  0.43932943823E+02  0.00000000000E+00 0.  1.
         11    1    1    2    0    0  0.46094075344E+02  0.38363938910E+02  0.68052648378E+00  0.59974317060E+02  0.00000000000E+00 0. -1.
</event>
<event>
 7    1  0.2651429E-009  0.8987114E+02  0.7561462E-02  0.1303164E+00
          1   -1    0    0  501    0  0.00000000000E+00  0.00000000000E+00  0.47920279509E+03  0.47920279509E+03  0.00000000000E+00 0. -1.
         -1   -1    0    0    0  501 -0.00000000000E+00 -0.00000000000E+00 -0.21988181391E+02  0.21988181391E+02  0.00000000000E+00 0.  1.
         25    2    1    2    0    0  0.29576843659E+02 -0.13288248078E+02  0.29727596527E+03  0.32414737399E+03  0.12508858189E+03 0.  0.
          5    1    3    3  502    0  0.65488288783E+02 -0.16470412677E+02  0.27105891678E+03  0.27937501540E+03  0.41800000000E+01 0.  1.
         -5    1    3    3    0  502 -0.35911445124E+02  0.31821645995E+01  0.26217048483E+02  0.44772358588E+02  0.41800000000E+01 0.  1.
        -11    1    1    2    0    0 -0.12304129539E+02 -0.28245701320E+02  0.59983282819E+02  0.67432970159E+02  0.00000000000E+00 0. -1.
         11    1    1    2    0    0 -0.17272714121E+02  0.41533949398E+02  0.99955365617E+02  0.10961063234E+03  0.00000000000E+00 0.  1.
</event>
<event>
 7    1  0.2651429E-009  0.1535015E+03  0.7561462E-02  0.1196235E+00
          2   -1    0    0  501    0  0.00000000000E+00  0.00000000000E+00  0.41962240500E+03  0.41962240500E+03  0.00000000000E+00 0. -1.
         -2   -1    0    0    0  501 -0.00000000000E+00 -0.00000000000E+00 -0.63987144125E+02  0.63987144125E+02  0.00000000000E+00 0.  1.
         25    2    1    2    0    0 -0.60317367256E+02 -0.10231524237E+03  0.15601570493E+03  0.23258160810E+03  0.12508681237E+03 0.  0.
          5    1    3    3  502    0 -0.71827253943E+02 -0.12280561821E+03  0.10700593924E+03  0.17806773347E+03  0.41800000000E+01 0.  1.
         -5    1    3    3    0  502  0.11509886687E+02  0.20490375837E+02  0.49009765694E+02  0.54513874627E+02  0.41800000000E+01 0.  1.
        -11    1    1    2    0    0 -0.14983889870E+02  0.41138329123E+02  0.22855978387E+02  0.49389015243E+02  0.00000000000E+00 0.  1.
         11    1    1    2    0    0  0.75301257126E+02  0.61176913248E+02  0.17676357756E+03  0.20163892579E+03  0.00000000000E+00 0. -1.
</event>
<event>
 7    1  0.2651429E-009  0.8875432E+02  0.7561462E-02  0.1305897E+00
         -3   -1    0    0    0  501 -0.00000000000E+00  0.00000000000E+00  0.90526639420E+02  0.90526639420E+02  0.00000000000E+00 0.  1.
          3   -1    0    0  501    0  0.00000000000E+00 -0.00000000000E+00 -0.22602446721E+03  0.22602446721E+03  0.00000000000E+00 0. -1.
         25    2    1    2    0    0 -0.41257937511E+02  0.38440866752E+01 -0.16522843487E+03  0.21134111835E+03  0.12509052004E+03 0.  0.
          5    1    3    3  502    0 -0.72658451633E+02  0.38451327130E+02 -0.84460230920E+02  0.11793539824E+03  0.41800000000E+01 0. -1.
         -5    1    3    3    0  502  0.31400514122E+02 -0.34607240454E+02 -0.80768203949E+02  0.93405720104E+02  0.41800000000E+01 0. -1.
        -11    1    1    2    0    0  0.39861789211E+01 -0.97597586776E+01  0.57434824409E+02  0.58394362456E+02  0.00000000000E+00 0.  1.
         11    1    1    2    0    0  0.37271758590E+02  0.59156720024E+01 -0.27704217330E+02  0.46815625826E+02  0.00000000000E+00 0. -1.
</event>
<event>
 7    1  0.2651429E-009  0.9613923E+02  0.7561462E-02  0.1288631E+00
         -1   -1    0    0    0  501 -0.00000000000E+00  0.00000000000E+00  0.76978280651E+03  0.76978280651E+03  0.00000000000E+00 0.  1.
          1   -1    0    0  501    0  0.00000000000E+00 -0.00000000000E+00 -0.18535879005E+02  0.18535879005E+02  0.00000000000E+00 0. -1.
         25    2    1    2    0    0 -0.58723372311E+01 -0.18807070568E+02  0.56636486753E+03  0.58035082383E+03  0.12509886207E+03 0.  0.
          5    1    3    3  502    0 -0.89165952981E+01 -0.65239421926E+02  0.45233119484E+03  0.45711778578E+03  0.41800000000E+01 0. -1.
         -5    1    3    3    0  502  0.30442580670E+01  0.46432351357E+02  0.11403367269E+03  0.12323303805E+03  0.41800000000E+01 0. -1.
        -11    1    1    2    0    0  0.40685537518E+02  0.15258601327E+01  0.36835121999E+02  0.54904165825E+02  0.00000000000E+00 0. -1.
         11    1    1    2    0    0 -0.34813200287E+02  0.17281210436E+02  0.14804693797E+03  0.15306369586E+03  0.00000000000E+00 0.  1.
</event>
<event>
 7    1  0.2651429E-009  0.9684374E+02  0.7561462E-02  0.1287077E+00
          2   -1    0    0  501    0  0.00000000000E+00  0.00000000000E+00  0.26214367051E+03  0.26214367051E+03  0.00000000000E+00 0. -1.
         -2   -1    0    0    0  501 -0.00000000000E+00 -0.00000000000E+00 -0.92928236507E+02  0.92928236507E+02  0.00000000000E+00 0.  1.
         25    2    1    2    0    0 -0.19185998286E+02 -0.26403607532E+02  0.21486887885E+03  0.25076169117E+03  0.12509011807E+03 0.  0.
          5    1    3    3  502    0 -0.69502400355E+02 -0.30617864134E+02  0.15242179237E+03  0.17034644830E+03  0.41800000000E+01 0. -1.
         -5    1    3    3    0  502  0.50316402069E+02  0.42142566024E+01  0.62447086482E+02  0.80415242871E+02  0.41800000000E+01 0. -1.
        -11    1    1    2    0    0 -0.21006732880E+02  0.57950100452E+01  0.16602115165E+02  0.27395167378E+02  0.00000000000E+00 0. -1.
         11    1    1    2    0    0  0.40192731166E+02  0.20608597486E+02 -0.62255560011E+02  0.76915048471E+02  0.00000000000E+00 0.  1.
</event>
<event>
 7    1  0.2651429E-009  0.1509349E+03  0.7561462E-02  0.1199329E+00
         -2   -1    0    0    0  501 -0.00000000000E+00  0.00000000000E+00  0.41914756850E+03  0.41914756850E+03  0.00000000000E+00 0.  1.
          2   -1    0    0  501    0  0.00000000000E+00 -0.00000000000E+00 -0.55711586291E+02  0.55711586291E+02  0.00000000000E+00 0. -1.
         25    2    1    2    0    0 -0.98839711717E+02  0.45341750664E+02  0.21093052282E+03  0.26826131556E+03  0.12508910826E+03 0.  0.
          5    1    3    3  502    0 -0.11109332895E+03 -0.68827453862E+01  0.13166806570E+03  0.17246174024E+03  0.41800000000E+01 0.  1.
         -5    1    3    3    0  502  0.12253617234E+02  0.52224496051E+02  0.79262457117E+02  0.95799575319E+02  0.41800000000E+01 0.  1.
        -11    1    1    2    0    0  0.52819616453E+02 -0.67412392041E+02  0.75242058046E+02  0.11399872711E+03  0.00000000000E+00 0. -1.
         11    1    1    2    0    0  0.46020095264E+02  0.22070641377E+02  0.77263401342E+02  0.92599112122E+02  0.00000000000E+00 0.  1.
</event>
<event>
 7    1  0.2651429E-009  0.3233697E+03  0.7561462E-02  0.1074109E+00
          1   -1    0    0  501    0  0.00000000000E+00  0.00000000000E+00  0.23093545432E+03  0.23093545432E+03  0.00000000000E+00 0. -1.
         -1   -1    0    0    0  501 -0.00000000000E+00 -0.00000000000E+00 -0.47888744840E+03  0.47888744840E+03  0.00000000000E+00 0.  1.
         25    2    1    2    0    0  0.20880404177E+03  0.22303083884E+03 -0.53410506576E+02  0.33442833084E+03  0.12509094021E+03 0.  0.
          5    1    3    3  502    0 -0.12235080714E+02  0.20261926402E+01  0.87033004231E+01  0.15716949289E+02  0.41800000000E+01 0. -1.
         -5    1    3    3    0  502  0.22103912249E+03  0.22100464620E+03 -0.62113806999E+02  0.31871138155E+03  0.41800000000E+01 0. -1.
        -11    1    1    2    0    0 -0.18658007056E+03 -0.23144743597E+03 -0.17999999518E+03  0.34753422366E+03  0.00000000000E+00 0.  1.
         11    1    1    2    0    0 -0.22223971217E+02  0.84165971289E+01 -0.14541492324E+02  0.27860348219E+02  0.00000000000E+00 0. -1.
</event>
<event>
 7    1  0.2651429E-009  0.1406067E+03  0.7561462E-02  0.1212515E+00
         -2   -1    0    0    0  501 -0.00000000000E+00  0.00000000000E+00  0.86963358982E+02  0.86963358982E+02  0.00000000000E+00 0.  1.
          2   -1    0    0  501    0  0.00000000000E+00 -0.00000000000E+00 -0.29865918752E+03  0.29865918752E+03  0.00000000000E+00 0. -1.
         25    2    1    2    0    0  0.92491711364E+02 -0.45713738979E+02 -0.43150351864E+02  0.16778697929E+03  0.12508419144E+03 0.  0.
          5    1    3    3  502    0  0.10332926805E+03  0.11074170299E+02 -0.31428706605E+02  0.10864994653E+03  0.41800000000E+01 0. -1.
         -5    1    3    3    0  502 -0.10837556683E+02 -0.56787909278E+02 -0.11721645259E+02  0.59137032751E+02  0.41800000000E+01 0. -1.
        -11    1    1    2    0    0  0.25312011495E+01  0.20876383372E+02 -0.88993140704E+02  0.91444023612E+02  0.00000000000E+00 0. -1.
         11    1    1    2    0    0 -0.95022912514E+02  0.24837355607E+02 -0.79552335967E+02  0.12639154360E+03  0.00000000000E+00 0.  1.
</event>
<event>
 7    1  0.2651429E-009  0.1120367E+03  0.7561462E-02  0.1256844E+00
         -2   -1    0    0    0  501 -0.00000000000E+00  0.00000000000E+00  0.19470111021E+02  0.19470111021E+02  0.00000000000E+00 0.  1.
          2   -1    0    0  501    0  0.00000000000E+00 -0.00000000000E+00 -0.84983815891E+03  0.84983815891E+03  0.00000000000E+00 0. -1.
         25    2    1    2    0    0 -0.34200246751E+02  0.30017465219E+02 -0.28320525079E+03  0.31292755611E+03  0.12509091175E+03 0.  0.
          5    1    3    3  502    0  0.27601761695E+02  0.51088483908E+02 -0.76621106345E+02  0.96229708376E+02  0.41800000000E+01 0.  1.
         -5    1    3    3    0  502 -0.61802008445E+02 -0.21071018689E+02 -0.20658414444E+03  0.21669784773E+03  0.41800000000E+01 0.  1.
        -11    1    1    2    0    0  0.49125772142E+02 -0.53480062608E+02 -0.41765333659E+03  0.42391953027E+03  0.00000000000E+00 0.  1.
         11    1    1    2    0    0 -0.14925525391E+02  0.23462597389E+02 -0.12950946051E+03  0.13246118355E+03  0.00000000000E+00 0. -1.
</event>
<event>
 7    1  0.2651429E-009  0.1042836E+03  0.7561462E-02  0.1271538E+00
          1   -1    0    0  501    0  0.00000000000E+00  0.00000000000E+00  0.31625009275E+02  0.31625009275E+02  0.00000000000E+00 0. -1.
         -1   -1    0    0    0  501 -0.00000000000E+00 -0.00000000000E+00 -0.50624334177E+03  0.50624334177E+03  0.00000000000E+00 0.  1.
         25    2    1    2    0    0 -0.44701123745E+02  0.47950184278E+02 -0.26720741067E+03  0.30223275484E+03  0.12508967641E+03 0.  0.
          5    1    3    3  502    0  0.32003178129E+02 -0.31479036639E+01 -0.19353675213E+02  0.37764399268E+02  0.41800000000E+01 0. -1.
         -5    1    3    3    0  502 -0.76704301874E+02  0.51098087942E+02 -0.24785373546E+03  0.26446835557E+03  0.41800000000E+01 0. -1.
        -11    1    1    2    0    0  0.33221413591E+02  0.13602381409E+01 -0.16858665902E+03  0.17183414727E+03  0.00000000000E+00 0.  1.
         11    1    1    2    0    0  0.11479710154E+02 -0.49310422419E+02 -0.38824262811E+02  0.63801448943E+02  0.00000000000E+00 0. -1.
</event>
<event>
 7    1  0.2651429E-009  0.7991027E+02  0.7561462E-02  0.1329306E+00
          3   -1    0    0  501    0  0.00000000000E+00  0.00000000000E+00  0.27538236602E+03  0.27538236602E+03  0.00000000000E+00 0. -1.
         -3   -1    0    0    0  501 -0.00000000000E+00 -0.00000000000E+00 -0.57752499665E+02  0.57752499665E+02  0.00000000000E+00 0.  1.
         25    2    1    2    0    0 -0.13916185990E+02  0.54742634725E+02  0.84011454947E+02  0.16092257583E+03  0.12509090519E+03 0.  0.
          5    1    3    3  502    0 -0.29690733144E+00  0.89262546359E+01  0.10718613295E+03  0.10763877402E+03  0.41800000000E+01 0.  1.
         -5    1    3    3    0  502 -0.13619278659E+02  0.45816380089E+02 -0.23174677999E+02  0.53283801816E+02  0.41800000000E+01 0.  1.
        -11    1    1    2    0    0 -0.18294653078E+02 -0.65509988406E+02  0.11466076751E+03  0.13331670757E+03  0.00000000000E+00 0. -1.
         11    1    1    2    0    0  0.32210839068E+02  0.10767353681E+02  0.18957643902E+02  0.38895582282E+02  0.00000000000E+00 0.  1.
</event>
<event>
 7    1  0.2651429E-009  0.8777660E+02  0.7561462E-02  0.1308327E+00
         -1   -1    0    0    0  501 -0.00000000000E+00  0.00000000000E+00  0.25429894374E+03  0.25429894374E+03  0.00000000000E+00 0.  1.
          1   -1    0    0  501    0  0.00000000000E+00 -0.00000000000E+00 -0.55583440806E+02  0.55583440806E+02  0.00000000000E+00 0. -1.
         25    2    1    2    0    0 -0.15679297477E+02 -0.59706738191E+01  0.16838318202E+03  0.21043417723E+03  0.12509259628E+03 0.  0.
          5    1    3    3  502    0 -0.41283063212E+02 -0.55748103191E+02  0.83001467285E+02  0.10825367564E+03  0.41800000000E+01 0. -1.
         -5    1    3    3    0  502  0.25603765735E+02  0.49777429372E+02  0.85381714735E+02  0.10218050159E+03  0.41800000000E+01 0. -1.
        -11    1    1    2    0    0  0.11829120072E+02  0.26509535600E+02  0.57950909772E+02  0.64815056143E+02  0.00000000000E+00 0.  1.
         11    1    1    2    0    0  0.38501774042E+01 -0.20538861781E+02 -0.27618588861E+02  0.34633151170E+02  0.00000000000E+00 0. -1.
</event>
<event>
 7    1  0.2651429E-009  0.2125756E+03  0.7561462E-02  0.1139542E+00
          1   -1    0    0  501    0  0.00000000000E+00  0.00000000000E+00  0.87506466917E+03  0.87506466917E+03  0.00000000000E+00 0. -1.
         -1   -1    0    0    0  501 -0.00000000000E+00 -0.00000000000E+00 -0.56693328920E+02  0.56693328920E+02  0.00000000000E+00 0.  1.
         25    2    1    2    0    0 -0.16129702072E+03 -0.10373323788E+03  0.48769235071E+03  0.53876210412E+03  0.12507382764E+03 0.  0.
          5    1    3    3  502    0 -0.15002570533E+03 -0.44211595425E+02  0.26311300336E+03  0.30611811833E+03  0.41800000000E+01 0.  1.
         -5    1    3    3    0  502 -0.11271315395E+02 -0.59521642450E+02  0.22457934735E+03  0.23264398580E+03  0.41800000000E+01 0.  1.
        -11    1    1    2    0    0  0.47310282382E+02  0.77819458783E+02  0.18511881735E+03  0.20630828273E+03  0.00000000000E+00 0. -1.
         11    1    1    2    0    0  0.11398673834E+03  0.25913779092E+02  0.14556017219E+03  0.18668761124E+03  0.00000000000E+00 0.  1.
</event>
<event>
 7    1  0.2651429E-009  0.9728975E+02  0.7561462E-02  0.1286101E+00
          2   -1    0    0  501    0  0.00000000000E+00  0.00000000000E+00  0.34458677297E+03  0.34458677297E+03  0.00000000000E+00 0. -1.
         -2   -1    0    0    0  501 -0.00000000000E+00 -0.00000000000E+00 -0.14120290428E+03  0.14120290428E+03  0.00000000000E+00 0.  1.
         25    2    1    2    0    0  0.15949397527E+02 -0.63138708568E+02  0.30285873097E+03  0.33408482148E+03  0.12509347393E+03 0.  0.
          5    1    3    3  502    0  0.38208741040E+02 -0.86833464727E+02  0.14836495564E+03  0.17615218123E+03  0.41800000000E+01 0. -1.
         -5    1    3    3    0  502 -0.22259343513E+02  0.23694756158E+02  0.15449377532E+03  0.15793264025E+03  0.41800000000E+01 0. -1.
        -11    1    1    2    0    0 -0.47967474943E+01  0.46882895599E+02  0.31222289560E+01  0.47230953832E+02  0.00000000000E+00 0. -1.
         11    1    1    2    0    0 -0.11152650033E+02  0.16255812970E+02 -0.10259709123E+03  0.10447390195E+03  0.00000000000E+00 0.  1.
</event>
<event>
 7    1  0.2651429E-009  0.9451391E+02  0.7561462E-02  0.1292275E+00
          4   -1    0    0  501    0  0.00000000000E+00  0.00000000000E+00  0.44064372477E+03  0.44064372477E+03  0.00000000000E+00 0. -1.
         -4   -1    0    0    0  501 -0.00000000000E+00 -0.00000000000E+00 -0.37819922402E+02  0.37819922402E+02  0.00000000000E+00 0.  1.
         25    2    1    2    0    0 -0.47505865451E+02 -0.14653704381E+01  0.31646075855E+03  0.34359748953E+03  0.12511142453E+03 0.  0.
          5    1    3    3  502    0 -0.27592776531E+02  0.34370918938E+02  0.29269771820E+03  0.29602727581E+03  0.41800000000E+01 0. -1.
         -5    1    3    3    0  502 -0.19913088920E+02 -0.35836289376E+02  0.23763040350E+02  0.47570213719E+02  0.41800000000E+01 0. -1.
        -11    1    1    2    0    0  0.62617024744E+02  0.31372072833E+02  0.56580543466E+02  0.90035863080E+02  0.00000000000E+00 0.  1.
         11    1    1    2    0    0 -0.15111159293E+02 -0.29906702395E+02  0.29782500356E+02  0.44830294565E+02  0.00000000000E+00 0. -1.
</event>
<event>
 7    1  0.2651429E-009  0.9508426E+02  0.7561462E-02  0.1290986E+00
         -1   -1    0    0    0  501 -0.00000000000E+00  0.00000000000E+00  0.13648310665E+03  0.13648310665E+03  0.00000000000E+00 0.  1.
          1   -1    0    0  501    0  0.00000000000E+00 -0.00000000000E+00 -0.14145964734E+03  0.14145964734E+03  0.00000000000E+00 0. -1.
         25    2    1    2    0    0 -0.24529827086E+02  0.66913252694E+02  0.45287811414E+02  0.15092421854E+03  0.12509211836E+03 0.  0.
          5    1    3    3  502    0  0.28575322640E+02  0.37738394831E+02 -0.28456034398E+02  0.55389112667E+02  0.41800000000E+01 0. -1.
         -5    1    3    3    0  502 -0.53105149726E+02  0.29174857863E+02  0.73743845812E+02  0.95535105872E+02  0.41800000000E+01 0. -1.
        -11    1    1    2    0    0  0.21208511364E+02 -0.76346283939E+01  0.23343821265E+02  0.32450308107E+02  0.00000000000E+00 0.  1.
         11    1    1    2    0    0  0.33213157220E+01 -0.59278624300E+02 -0.73608173370E+02  0.94568227349E+02  0.00000000000E+00 0. -1.
</event>
<event>
 7    1  0.2651429E-009  0.1094757E+03  0.7561462E-02  0.1261544E+00
          2   -1    0    0  501    0  0.00000000000E+00  0.00000000000E+00  0.16629176481E+03  0.16629176481E+03  0.00000000000E+00 0. -1.
         -2   -1    0    0    0  501 -0.00000000000E+00 -0.00000000000E+00 -0.87442550886E+02  0.87442550886E+02  0.00000000000E+00 0.  1.
         25    2    1    2    0    0 -0.28108517182E+02 -0.19209393630E+02  0.46402223507E+01  0.12972876554E+03  0.12509568899E+03 0.  0.
          5    1    3    3  502    0  0.33513912065E+02  0.33708985167E+02 -0.42725596597E+01  0.47908299375E+02  0.41800000000E+01 0. -1.
         -5    1    3    3    0  502 -0.61622429247E+02 -0.52918378797E+02  0.89127820104E+01  0.81820466168E+02  0.41800000000E+01 0. -1.
        -11    1    1    2    0    0  0.55852268182E+02  0.25585232647E+02  0.73141809708E+02  0.95518607182E+02  0.00000000000E+00 0. -1.
         11    1    1    2    0    0 -0.27743751000E+02 -0.63758390174E+01  0.10671818651E+01  0.28486942971E+02  0.00000000000E+00 0.  1.
</event>
<event>
 7    1  0.2651429E-009  0.1248710E+03  0.7561462E-02  0.1235271E+00
         -1   -1    0    0    0  501 -0.00000000000E+00  0.00000000000E+00  0.58472925040E+02  0.58472925040E+02  0.00000000000E+00 0. -1.
          1   -1    0    0  501    0  0.00000000000E+00 -0.00000000000E+00 -0.44975061277E+03  0.44975061277E+03  0.00000000000E+00 0.  1.
         25    2    1    2    0    0 -0.38794146689E+02 -0.66180089883E+02 -0.32818463098E+03  0.35949549715E+03  0.12508825024E+03 0.  0.
          5    1    3    3  502    0 -0.66181843848E+01 -0.79573652444E+02 -0.30963771264E+03  0.31979485927E+03  0.41800000000E+01 0. -1.
         -5    1    3    3    0  502 -0.32175962304E+02  0.13393562561E+02 -0.18546918341E+02  0.39700637882E+02  0.41800000000E+01 0. -1.
        -11    1    1    2    0    0  0.70696972891E+02  0.73466591129E+02 -0.47781102970E+02  0.11259856033E+03  0.00000000000E+00 0. -1.
         11    1    1    2    0    0 -0.31902826202E+02 -0.72865012459E+01 -0.15311953783E+02  0.36129480327E+02  0.00000000000E+00 0.  1.
</event>
<event>
 7    1  0.2651429E-009  0.1298377E+03  0.7561462E-02  0.1227697E+00
          1   -1    0    0  501    0  0.00000000000E+00  0.00000000000E+00  0.14071476363E+03  0.14071476363E+03  0.00000000000E+00 0. -1.
         -1   -1    0    0    0  501 -0.00000000000E+00 -0.00000000000E+00 -0.18876843791E+03  0.18876843791E+03  0.00000000000E+00 0.  1.
         25    2    1    2    0    0 -0.72818584230E+02 -0.37481228286E+02 -0.11692374450E+03  0.18980563227E+03  0.12509047657E+03 0.  0.
          5    1    3    3  502    0 -0.10258441438E+03 -0.53158423491E+02 -0.90549821457E+02  0.14685408618E+03  0.41800000000E+01 0. -1.
         -5    1    3    3    0  502  0.29765830154E+02  0.15677195205E+02 -0.26373923047E+02  0.42951546086E+02  0.41800000000E+01 0. -1.
        -11    1    1    2    0    0  0.57259324128E+02 -0.11815568101E+02  0.65611217818E+02  0.87880997677E+02  0.00000000000E+00 0. -1.
         11    1    1    2    0    0  0.15559260103E+02  0.49296796387E+02  0.32588524060E+01  0.51796571585E+02  0.00000000000E+00 0.  1.
</event>
<event>
 7    1  0.2651429E-009  0.1245726E+03  0.7561462E-02  0.1235739E+00
         -4   -1    0    0    0  501 -0.00000000000E+00  0.00000000000E+00  0.34335975638E+03  0.34335975638E+03  0.00000000000E+00 0.  1.
          4   -1    0    0  501    0  0.00000000000E+00 -0.00000000000E+00 -0.56086406878E+02  0.56086406878E+02  0.00000000000E+00 0. -1.
         25    2    1    2    0    0  0.70287303829E+02 -0.12709559795E+02  0.88665198454E+02  0.16914893355E+03  0.12509199140E+03 0.  0.
          5    1    3    3  502    0  0.12657542567E+02  0.48511238348E+02  0.64041801499E+02  0.81439415329E+02  0.41800000000E+01 0. -1.
         -5    1    3    3    0  502  0.57629761262E+02 -0.61220798143E+02  0.24623396955E+02  0.87709518218E+02  0.41800000000E+01 0. -1.
        -11    1    1    2    0    0 -0.88330202980E+00 -0.32053984044E+02  0.38180855843E+02  0.49859962580E+02  0.00000000000E+00 0.  1.
         11    1    1    2    0    0 -0.69404001800E+02  0.44763543839E+02  0.16042729520E+03  0.18043726713E+03  0.00000000000E+00 0. -1.
</event>
<event>
 7    1  0.2651429E-009  0.7792650E+02  0.7561462E-02  0.1335041E+00
          4   -1    0    0  501    0  0.00000000000E+00  0.00000000000E+00  0.41521462296E+03  0.41521462296E+03  0.00000000000E+00 0. -1.
         -4   -1    0    0    0  501 -0.00000000000E+00 -0.00000000000E+00 -0.35298300541E+02  0.35298300541E+02  0.00000000000E+00 0.  1.
         25    2    1    2    0    0 -0.13242238031E+02 -0.36550022311E+01  0.30669029695E+03  0.33148606788E+03  0.12504142932E+03 0.  0.
          5    1    3    3  502    0  0.28027672762E+02 -0.21653144053E-01  0.28128309836E+03  0.28270692375E+03  0.41800000000E+01 0.  1.
         -5    1    3    3    0  502 -0.41269910793E+02 -0.36333490870E+01  0.25407198588E+02  0.48779144135E+02  0.41800000000E+01 0.  1.
        -11    1    1    2    0    0  0.48318366142E+02 -0.78686566702E+01  0.64701657944E+02  0.81134978924E+02  0.00000000000E+00 0. -1.
         11    1    1    2    0    0 -0.35076128111E+02  0.11523658901E+02  0.85243675241E+01  0.37891876694E+02  0.00000000000E+00 0.  1.
</event>
<event>
 7    1  0.2651429E-009  0.1744908E+03  0.7561462E-02  0.1173244E+00
          1   -1    0    0  501    0  0.00000000000E+00  0.00000000000E+00  0.19634999113E+03  0.19634999113E+03  0.00000000000E+00 0. -1.
         -1   -1    0    0    0  501 -0.00000000000E+00 -0.00000000000E+00 -0.23431814511E+03  0.23431814511E+03  0.00000000000E+00 0.  1.
         25    2    1    2    0    0 -0.15045642980E+03 -0.18022222324E+02  0.85150747021E+02  0.21415338263E+03  0.12509629814E+03 0.  0.
          5    1    3    3  502    0  0.22079708492E+02 -0.36013085076E+01  0.49218279540E+01  0.23284753391E+02  0.41800000000E+01 0. -1.
         -5    1    3    3    0  502 -0.17253613830E+03 -0.14420913817E+02  0.80228919067E+02  0.19086862924E+03  0.41800000000E+01 0. -1.
        -11    1    1    2    0    0  0.70249691563E+02  0.19175277378E+02 -0.40316325517E+01  0.72931231226E+02  0.00000000000E+00 0. -1.
         11    1    1    2    0    0  0.80206738241E+02 -0.11530550535E+01 -0.11908726844E+03  0.14358352238E+03  0.00000000000E+00 0.  1.
</event>
<event>
 7    1  0.2651429E-009  0.1224924E+03  0.7561462E-02  0.1239041E+00
         -4   -1    0    0    0  501 -0.00000000000E+00  0.00000000000E+00  0.84591292636E+02  0.84591292636E+02  0.00000000000E+00 0. -1.
          4   -1    0    0  501    0  0.00000000000E+00 -0.00000000000E+00 -0.31040749772E+03  0.31040749772E+03  0.00000000000E+00 0.  1.
         25    2    1    2    0    0 -0.40409935137E+02  0.11091474113E+03 -0.15039857801E+03  0.22847850479E+03  0.12509057609E+03 0.  0.
          5    1    3    3  502    0 -0.27571827951E+02  0.56178712978E+02 -0.15948493171E+03  0.17137435435E+03  0.41800000000E+01 0.  1.
         -5    1    3    3    0  502 -0.12838107187E+02  0.54736028147E+02  0.90863536968E+01  0.57104150436E+02  0.41800000000E+01 0.  1.
        -11    1    1    2    0    0 -0.60800991875E+01 -0.43948493175E+02  0.13023264570E+02  0.46238977914E+02  0.00000000000E+00 0. -1.
         11    1    1    2    0    0  0.46490034325E+02 -0.66966247951E+02 -0.88440891641E+02  0.12028130765E+03  0.00000000000E+00 0.  1.
</event>
<event>
 7    1  0.2651429E-009  0.2716978E+03  0.7561462E-02  0.1100312E+00
          1   -1    0    0  501    0  0.00000000000E+00  0.00000000000E+00  0.74183500089E+03  0.74183500089E+03  0.00000000000E+00 0. -1.
         -1   -1    0    0    0  501 -0.00000000000E+00 -0.00000000000E+00 -0.14267209660E+03  0.14267209660E+03  0.00000000000E+00 0.  1.
         25    2    1    2    0    0 -0.11798533681E+03  0.23293472207E+03  0.52314148551E+03  0.59791690506E+03  0.12509391288E+03 0.  0.
          5    1    3    3  502    0 -0.97934472253E+02  0.97715087751E+02  0.35596443335E+03  0.38192610469E+03  0.41800000000E+01 0.  1.
         -5    1    3    3    0  502 -0.20050864561E+02  0.13521963432E+03  0.16717705216E+03  0.21599080037E+03  0.41800000000E+01 0.  1.
        -11    1    1    2    0    0  0.11440053041E+03 -0.16835366662E+03  0.26779924669E+02  0.20529881341E+03  0.00000000000E+00 0.  1.
         11    1    1    2    0    0  0.35848064018E+01 -0.64581055455E+02  0.49241494111E+02  0.81291379020E+02  0.00000000000E+00 0. -1.
</event>
<event>
 7    1  0.2651429E-009  0.1061388E+03  0.7561462E-02  0.1267892E+00
         -2   -1    0    0    0  501 -0.00000000000E+00  0.00000000000E+00  0.77297636151E+02  0.77297636151E+02  0.00000000000E+00 0.  1.
          2   -1    0    0  501    0  0.00000000000E+00 -0.00000000000E+00 -0.44009436563E+03  0.44009436563E+03  0.00000000000E+00 0. -1.
         25    2    1    2    0    0 -0.62880072968E+01  0.64206315268E+02 -0.32759460013E+01  0.14078393293E+03  0.12508954390E+03 0.  0.
          5    1    3    3  502    0 -0.19607507105E+02  0.84498559233E+02 -0.40758369215E+02  0.95933195029E+02  0.41800000000E+01 0. -1.
         -5    1    3    3    0  502  0.13319499808E+02 -0.20292243965E+02  0.37482423214E+02  0.44850737900E+02  0.41800000000E+01 0. -1.
        -11    1    1    2    0    0  0.24960291818E+02  0.80081185024E+01 -0.35596812492E+02  0.44207230056E+02  0.00000000000E+00 0.  1.
         11    1    1    2    0    0 -0.18672284521E+02 -0.72214433771E+02 -0.32392397098E+03  0.33240083880E+03  0.00000000000E+00 0. -1.
</event>
<event>
 7    1  0.2651429E-009  0.1385548E+03  0.7561462E-02  0.1215287E+00
         -2   -1    0    0    0  501 -0.00000000000E+00  0.00000000000E+00  0.19607173966E+02  0.19607173966E+02  0.00000000000E+00 0.  1.
          2   -1    0    0  501    0  0.00000000000E+00 -0.00000000000E+00 -0.14589630042E+04  0.14589630042E+04  0.00000000000E+00 0. -1.
         25    2    1    2    0    0 -0.50243003228E+02 -0.37527341043E+02 -0.56405299872E+03  0.58115076799E+03  0.12509104315E+03 0.  0.
          5    1    3    3  502    0 -0.47695616932E+02 -0.47434510395E+01 -0.53474423891E+03  0.53690431704E+03  0.41800000000E+01 0. -1.
         -5    1    3    3    0  502 -0.25473862963E+01 -0.32783890004E+02 -0.29308759803E+02  0.44246450953E+02  0.41800000000E+01 0. -1.
        -11    1    1    2    0    0  0.59372796568E+02 -0.67803000608E+02 -0.46938905435E+03  0.47796282304E+03  0.00000000000E+00 0. -1.
         11    1    1    2    0    0 -0.91297933394E+01  0.10533034165E+03 -0.40591377721E+03  0.41945658718E+03  0.00000000000E+00 0.  1.
</event>
<event>
 7    1  0.2651429E-009  0.1127293E+03  0.7561462E-02  0.1255598E+00
          3   -1    0    0  501    0  0.00000000000E+00  0.00000000000E+00  0.47466055088E+02  0.47466055088E+02  0.00000000000E+00 0. -1.
         -3   -1    0    0    0  501 -0.00000000000E+00 -0.00000000000E+00 -0.32467441620E+03  0.32467441620E+03  0.00000000000E+00 0.  1.
         25    2    1    2    0    0  0.61325853317E+01  0.38279268938E+02 -0.22629987847E+03  0.26145425416E+03  0.12507510140E+03 0.  0.
          5    1    3    3  502    0  0.52235697437E+02 -0.17366370466E+02 -0.12784027605E+03  0.13925073605E+03  0.41800000000E+01 0. -1.
         -5    1    3    3    0  502 -0.46103112105E+02  0.55645639403E+02 -0.98459602420E+02  0.12220351811E+03  0.41800000000E+01 0. -1.
        -11    1    1    2    0    0  0.13436996917E+02 -0.64087288263E+02 -0.29206402611E+02  0.71699005269E+02  0.00000000000E+00 0.  1.
         11    1    1    2    0    0 -0.19569582249E+02  0.25808019325E+02 -0.21702080038E+02  0.38987211863E+02  0.00000000000E+00 0. -1.
</event>
<event>
 7    1  0.2651429E-009  0.1087921E+03  0.7561462E-02  0.1262823E+00
          2   -1    0    0  501    0  0.00000000000E+00  0.00000000000E+00  0.42161728949E+03  0.42161728949E+03  0.00000000000E+00 0. -1.
         -2   -1    0    0    0  501 -0.00000000000E+00 -0.00000000000E+00 -0.54666763792E+02  0.54666763792E+02  0.00000000000E+00 0.  1.
         25    2    1    2    0    0  0.16112985329E+02  0.22019317941E+01  0.36145082295E+03  0.38282807016E+03  0.12508459973E+03 0.  0.
          5    1    3    3  502    0 -0.42976290151E+02 -0.34951903859E+02  0.14080520189E+03  0.15136767943E+03  0.41800000000E+01 0. -1.
         -5    1    3    3    0  502  0.59089275481E+02  0.37153835653E+02  0.22064562106E+03  0.23146039072E+03  0.41800000000E+01 0. -1.
        -11    1    1    2    0    0 -0.38798770013E+02 -0.34983576109E+02  0.10473157623E+02  0.53281161610E+02  0.00000000000E+00 0. -1.
         11    1    1    2    0    0  0.22685784684E+02  0.32781644315E+02 -0.49734548684E+01  0.40174821519E+02  0.00000000000E+00 0.  1.
</event>
<event>
 7    1  0.2651429E-009  0.2961700E+03  0.7561462E-02  0.1087171E+00
          1   -1    0    0  501    0  0.00000000000E+00  0.00000000000E+00  0.12117246728E+04  0.12117246728E+04  0.00000000000E+00 0. -1.
         -1   -1    0    0    0  501 -0.00000000000E+00 -0.00000000000E+00 -0.81779699605E+02  0.81779699605E+02  0.00000000000E+00 0.  1.
         25    2    1    2    0    0 -0.26938900386E+03  0.11858100437E+03  0.62764764094E+03  0.70442937828E+03  0.12508915944E+03 0.  0.
          5    1    3    3  502    0 -0.13758469087E+03  0.72268655182E+02  0.19280137036E+03  0.24767346748E+03  0.41800000000E+01 0.  1.
         -5    1    3    3    0  502 -0.13180431299E+03  0.46312349192E+02  0.43484627058E+03  0.45675591080E+03  0.41800000000E+01 0.  1.
        -11    1    1    2    0    0  0.27753752593E+02  0.42297243974E+00  0.10835527621E+03  0.11185399220E+03  0.00000000000E+00 0. -1.
         11    1    1    2    0    0  0.24163525126E+03 -0.11900397681E+03  0.39394205601E+03  0.47722100189E+03  0.00000000000E+00 0.  1.
</event>
<event>
 7    1  0.2651429E-009  0.1104647E+03  0.7561462E-02  0.1259712E+00
         -2   -1    0    0    0  501 -0.00000000000E+00  0.00000000000E+00  0.49873320172E+02  0.49873320172E+02  0.00000000000E+00 0.  1.
          2   -1    0    0  501    0  0.00000000000E+00 -0.00000000000E+00 -0.26370622430E+03  0.26370622430E+03  0.00000000000E+00 0. -1.
         25    2    1    2    0    0  0.17909219149E+02 -0.12826846642E+02 -0.14931007436E+03  0.19602452959E+03  0.12508736854E+03 0.  0.
          5    1    3    3  502    0 -0.38650582611E+02  0.32017456615E+02 -0.87243813780E+02  0.10073698679E+03  0.41800000000E+01 0.  1.
         -5    1    3    3    0  502  0.56559801760E+02 -0.44844303257E+02 -0.62066260581E+02  0.95287542797E+02  0.41800000000E+01 0.  1.
        -11    1    1    2    0    0  0.19674502801E+02 -0.33353228167E+02 -0.25527221678E+02  0.46380631046E+02  0.00000000000E+00 0.  1.
         11    1    1    2    0    0 -0.37583721950E+02  0.46180074809E+02 -0.38995608092E+02  0.71174383843E+02  0.00000000000E+00 0. -1.
</event>
<event>
 7    1  0.2651429E-009  0.1117849E+03  0.7561462E-02  0.1257300E+00
         -1   -1    0    0    0  501 -0.00000000000E+00  0.00000000000E+00  0.11259959828E+02  0.11259959828E+02  0.00000000000E+00 0.  1.
          1   -1    0    0  501    0  0.00000000000E+00 -0.00000000000E+00 -0.20491857046E+04  0.20491857046E+04  0.00000000000E+00 0. -1.
         25    2    1    2    0    0 -0.32472478317E+02  0.36643940269E+02 -0.17440109908E+04  0.17491770324E+04  0.12509482173E+03 0.  0.
          5    1    3    3  502    0 -0.45543716652E+02 -0.29807616681E+02 -0.11515179500E+04  0.11528112533E+04  0.41800000000E+01 0. -1.
         -5    1    3    3    0  502  0.13071238335E+02  0.66451556950E+02 -0.59249304078E+03  0.59636577909E+03  0.41800000000E+01 0. -1.
        -11    1    1    2    0    0  0.63192039916E+02 -0.20581367511E+02 -0.16795820678E+03  0.18062886209E+03  0.00000000000E+00 0.  1.
         11    1    1    2    0    0 -0.30719561598E+02 -0.16062572758E+02 -0.12595654722E+03  0.13063976996E+03  0.00000000000E+00 0. -1.
</event>
<event>
 7    1  0.2651429E-009  0.1104607E+03  0.7561462E-02  0.1259719E+00
          2   -1    0    0  501    0  0.00000000000E+00  0.00000000000E+00  0.86427668713E+03  0.86427668713E+03  0.00000000000E+00 0. -1.
         -2   -1    0    0    0  501 -0.00000000000E+00 -0.00000000000E+00 -0.19787969607E+02  0.19787969607E+02  0.00000000000E+00 0.  1.
         25    2    1    2    0    0 -0.31187039968E+02 -0.32983996007E+02  0.65559367803E+03  0.66896113546E+03  0.12508139202E+03 0.  0.
          5    1    3    3  502    0  0.40907801001E+02 -0.18307485555E+02  0.11718118223E+03  0.12552893721E+03  0.41800000000E+01 0.  1.
         -5    1    3    3    0  502 -0.72094840969E+02 -0.14676510452E+02  0.53841249580E+03  0.54343219825E+03  0.41800000000E+01 0.  1.
        -11    1    1    2    0    0 -0.25238788309E+02  0.37946559780E+02  0.96643147713E+02  0.10684959445E+03  0.00000000000E+00 0.  1.
         11    1    1    2    0    0  0.56425828276E+02 -0.49625637732E+01  0.92251891777E+02  0.10825392682E+03  0.00000000000E+00 0. -1.
</event>
<event>
 7    1  0.2651429E-009  0.6904985E+02  0.7561462E-02  0.1363354E+00
          1   -1    0    0  501    0  0.00000000000E+00  0.00000000000E+00  0.31988656630E+03  0.31988656630E+03  0.00000000000E+00 0. -1.
         -1   -1    0    0    0  501 -0.00000000000E+00 -0.00000000000E+00 -0.46925295916E+02  0.46925295916E+02  0.00000000000E+00 0.  1.
         25    2    1    2    0    0  0.35714055409E+02 -0.33418679271E+02  0.22094073822E+03  0.25856365256E+03  0.12509216900E+03 0.  0.
          5    1    3    3  502    0  0.29441599389E+02 -0.28654717373E+02  0.23679762254E+03  0.24037156039E+03  0.41800000000E+01 0. -1.
         -5    1    3    3    0  502  0.62724560203E+01 -0.47639618977E+01 -0.15856884322E+02  0.18192092180E+02  0.41800000000E+01 0. -1.
        -11    1    1    2    0    0  0.15892540275E+02  0.32606801132E+02  0.19300482120E+01  0.36324941880E+02  0.00000000000E+00 0.  1.
         11    1    1    2    0    0 -0.51606595684E+02  0.81187813842E+00  0.50090483959E+02  0.71923267775E+02  0.00000000000E+00 0. -1.
</event>
<event>
 7    1  0.2651429E-009  0.1953962E+03  0.7561462E-02  0.1153682E+00
          2   -1    0    0  501    0  0.00000000000E+00  0.00000000000E+00  0.38347457194E+03  0.38347457194E+03  0.00000000000E+00 0.  1.
         -2   -1    0    0    0  501 -0.00000000000E+00 -0.00000000000E+00 -0.11378450604E+03  0.11378450604E+03  0.00000000000E+00 0. -1.
         25    2    1    2    0    0  0.65120484160E+02 -0.16472765360E+03  0.14641049946E+03  0.26164006837E+03  0.12507443268E+03 0.  0.
          5    1    3    3  502    0  0.18164186697E+02  0.46761658166E+00  0.72091078060E+02  0.74463093405E+02  0.41800000000E+01 0. -1.
         -5    1    3    3    0  502  0.46956297463E+02 -0.16519527018E+03  0.74319421401E+02  0.18717697497E+03  0.41800000000E+01 0. -1.
        -11    1    1    2    0    0  0.68127019391E+00  0.12177659986E+03  0.82459059458E+02  0.14706971439E+03  0.00000000000E+00 0.  1.
         11    1    1    2    0    0 -0.65801754354E+02  0.42951053734E+02  0.40820506984E+02  0.88549295217E+02  0.00000000000E+00 0. -1.
</event>
<event>
 7    1  0.2651429E-009  0.9644181E+02  0.7561462E-02  0.1287961E+00
          1   -1    0    0  501    0  0.00000000000E+00  0.00000000000E+00  0.21722773372E+03  0.21722773372E+03  0.00000000000E+00 0. -1.
         -1   -1    0    0    0  501 -0.00000000000E+00 -0.00000000000E+00 -0.11479821852E+03  0.11479821852E+03  0.00000000000E+00 0.  1.
         25    2    1    2    0    0 -0.59293578211E+00  0.19842170455E+02 -0.51643657884E+02  0.13677919147E+03  0.12508963393E+03 0.  0.
          5    1    3    3  502    0  0.46768377208E+02  0.10150093480E+02  0.18507865732E+02  0.51481248997E+02  0.41800000000E+01 0.  1.
         -5    1    3    3    0  502 -0.47361312990E+02  0.96920769746E+01 -0.70151523616E+02  0.85297942472E+02  0.41800000000E+01 0.  1.
        -11    1    1    2    0    0  0.44108057105E+02 -0.27724676649E+02  0.13913450114E+03  0.14856846167E+03  0.00000000000E+00 0. -1.
         11    1    1    2    0    0 -0.43515121323E+02  0.78825061945E+01  0.14938671944E+02  0.46678299103E+02  0.00000000000E+00 0.  1.
</event>
<event>
 7    1  0.2651429E-009  0.1726195E+03  0.7561462E-02  0.1175143E+00
          2   -1    0    0  501    0  0.00000000000E+00  0.00000000000E+00  0.18488644798E+04  0.18488644798E+04  0.00000000000E+00 0. -1.
         -2   -1    0    0    0  501 -0.00000000000E+00 -0.00000000000E+00 -0.17297938041E+02  0.17297938041E+02  0.00000000000E+00 0.  1.
         25    2    1    2    0    0 -0.12542920992E+03  0.64105658023E+02  0.86863878045E+03  0.88883196948E+03  0.12508763718E+03 0.  0.
          5    1    3    3  502    0 -0.65474731350E+02 -0.25351401830E+02  0.21081910386E+03  0.22224266235E+03  0.41800000000E+01 0.  1.
         -5    1    3    3    0  502 -0.59954478572E+02  0.89457059853E+02  0.65781967660E+03  0.66658930713E+03  0.41800000000E+01 0.  1.
        -11    1    1    2    0    0  0.11702143956E+02 -0.51379826296E+02  0.31296016650E+03  0.31736555033E+03  0.00000000000E+00 0.  1.
         11    1    1    2    0    0  0.11372706597E+03 -0.12725831727E+02  0.64996759481E+03  0.65996489802E+03  0.00000000000E+00 0. -1.
</event>
<event>
 7    1  0.2651429E-009  0.9347305E+02  0.7561462E-02  0.1294653E+00
          2   -1    0    0  501    0  0.00000000000E+00  0.00000000000E+00  0.21508046905E+03  0.21508046905E+03  0.00000000000E+00 0. -1.
         -2   -1    0    0    0  501 -0.00000000000E+00 -0.00000000000E+00 -0.74662356578E+02  0.74662356578E+02  0.00000000000E+00 0.  1.
         25    2    1    2    0    0 -0.39983881489E+02  0.31811999009E+02  0.11263997834E+03  0.17591449786E+03  0.12508969492E+03 0.  0.
          5    1    3    3  502    0  0.21319005837E+02  0.45856447709E+02  0.99263201210E+02  0.11148080248E+03  0.41800000000E+01 0. -1.
         -5    1    3    3    0  502 -0.61302887326E+02 -0.14044448700E+02  0.13376777132E+02  0.64433695379E+02  0.41800000000E+01 0. -1.
        -11    1    1    2    0    0  0.27481170705E+02  0.10221360664E+02 -0.29564945798E+02  0.41638647639E+02  0.00000000000E+00 0.  1.
         11    1    1    2    0    0  0.12502710784E+02 -0.42033359673E+02  0.57343079932E+02  0.72189680137E+02  0.00000000000E+00 0. -1.
</event>
<event>
 7    1  0.2651429E-009  0.1689278E+03  0.7561462E-02  0.1178971E+00
          2   -1    0    0  501    0  0.00000000000E+00  0.00000000000E+00  0.10591062720E+04  0.10591062720E+04  0.00000000000E+00 0. -1.
         -2   -1    0    0    0  501 -0.00000000000E+00 -0.00000000000E+00 -0.27499687987E+02  0.27499687987E+02  0.00000000000E+00 0.  1.
         25    2    1    2    0    0  0.75908311366E+02  0.10478539553E+03  0.61269796717E+03  0.63858310404E+03  0.12509009132E+03 0.  0.
          5    1    3    3  502    0 -0.19057783736E+02 -0.16326630925E+02  0.10602687146E+03  0.10903636031E+03  0.41800000000E+01 0.  1.
         -5    1    3    3    0  502  0.94966095102E+02  0.12111202646E+03  0.50667109571E+03  0.52954674374E+03  0.41800000000E+01 0.  1.
        -11    1    1    2    0    0 -0.69646701797E+02 -0.18663340095E+02  0.17455247122E+03  0.18885854109E+03  0.00000000000E+00 0. -1.
         11    1    1    2    0    0 -0.62616095690E+01 -0.86122055439E+02  0.24435614564E+03  0.25916431487E+03  0.00000000000E+00 0.  1.
</event>
<event>
 7    1  0.2651429E-009  0.1023709E+03  0.7561462E-02  0.1275388E+00
          2   -1    0    0  501    0  0.00000000000E+00  0.00000000000E+00  0.16723160178E+03  0.16723160178E+03  0.00000000000E+00 0. -1.
         -2   -1    0    0    0  501 -0.00000000000E+00 -0.00000000000E+00 -0.11501493940E+03  0.11501493940E+03  0.00000000000E+00 0.  1.
         25    2    1    2    0    0  0.58149630167E+02 -0.55543620698E+02 -0.31264091500E+01  0.14874270977E+03  0.12509254968E+03 0.  0.
          5    1    3    3  502    0  0.42703422262E+02 -0.50945803682E+02 -0.59899025594E+02  0.89579142956E+02  0.41800000000E+01 0.  1.
         -5    1    3    3    0  502  0.15446207905E+02 -0.45978170162E+01  0.56772616444E+02  0.59163566812E+02  0.41800000000E+01 0.  1.
        -11    1    1    2    0    0 -0.77630489637E+02  0.18765415131E+02  0.37068279058E+02  0.88049367054E+02  0.00000000000E+00 0. -1.
         11    1    1    2    0    0  0.19480859470E+02  0.36778205567E+02  0.18274792473E+02  0.45454464361E+02  0.00000000000E+00 0.  1.
</event>
<event>
 7    1  0.2765731E-009  0.1243820E+03  0.7561462E-02  0.1236038E+00
          2   -1    0    0  501    0  0.00000000000E+00  0.00000000000E+00  0.46661675317E+03  0.46661675317E+03  0.00000000000E+00 0. -1.
         -2   -1    0    0    0  501 -0.00000000000E+00 -0.00000000000E+00 -0.68259182672E+02  0.68259182672E+02  0.00000000000E+00 0.  1.
         25    2    1    2    0    0  0.73449963725E+02  0.79425397217E+02  0.34663852253E+03  0.38406882759E+03  0.12508920068E+03 0.  0.
          5    1    3    3  502    0  0.43984528428E+02  0.49175382421E+02  0.33299574915E+03  0.33949447467E+03  0.41800000000E+01 0. -1.
         -5    1    3    3    0  502  0.29465435297E+02  0.30250014795E+02  0.13642773378E+02  0.44574352915E+02  0.41800000000E+01 0. -1.
        -11    1    1    2    0    0 -0.18729307005E+00 -0.65678817572E+02  0.34965058051E+02  0.74406299739E+02  0.00000000000E+00 0.  1.
         11    1    1    2    0    0 -0.73262670655E+02 -0.13746579644E+02  0.16753989911E+02  0.76400808513E+02  0.00000000000E+00 0. -1.
</event>
<event>
 7    1  0.2651429E-009  0.1309947E+03  0.7561462E-02  0.1225987E+00
         -2   -1    0    0    0  501 -0.00000000000E+00  0.00000000000E+00  0.81263793274E+03  0.81263793274E+03  0.00000000000E+00 0.  1.
          2   -1    0    0  501    0  0.00000000000E+00 -0.00000000000E+00 -0.35461169963E+02  0.35461169963E+02  0.00000000000E+00 0. -1.
         25    2    1    2    0    0  0.10311008570E+03  0.38014240209E+02  0.58848550805E+03  0.61158827333E+03  0.12509296809E+03 0.  0.
          5    1    3    3  502    0  0.78720171547E+02 -0.95317042576E+01  0.51241469021E+03  0.51853062199E+03  0.41800000000E+01 0. -1.
         -5    1    3    3    0  502  0.24389914154E+02  0.47545944466E+02  0.76070817835E+02  0.93057651344E+02  0.41800000000E+01 0. -1.
        -11    1    1    2    0    0 -0.34605569598E+02 -0.48605252353E+02  0.13887144859E+03  0.15114660180E+03  0.00000000000E+00 0.  1.
         11    1    1    2    0    0 -0.68504516103E+02  0.10591012144E+02  0.49819806149E+02  0.85364227575E+02  0.00000000000E+00 0. -1.
</event>
<event>
 7    1  0.2651429E-009  0.9069266E+02  0.7561462E-02  0.1301183E+00
         -1   -1    0    0    0  501 -0.00000000000E+00  0.00000000000E+00  0.31275328588E+02  0.31275328588E+02  0.00000000000E+00 0.  1.
          1   -1    0    0  501    0  0.00000000000E+00 -0.00000000000E+00 -0.37818145489E+03  0.37818145489E+03  0.00000000000E+00 0. -1.
         25    2    1    2    0    0  0.71701056701E+01 -0.53377979118E+01 -0.20881976092E+03  0.24358111037E+03  0.12508462048E+03 0.  0.
          5    1    3    3  502    0 -0.45713208163E+02 -0.33964649071E+02 -0.14477853003E+03  0.15563286910E+03  0.41800000000E+01 0.  1.
         -5    1    3    3    0  502  0.52883313833E+02  0.28626851159E+02 -0.64041230884E+02  0.87948241269E+02  0.41800000000E+01 0.  1.
        -11    1    1    2    0    0  0.24546194258E+02 -0.12572633517E+02 -0.51703359276E+01  0.28059207753E+02  0.00000000000E+00 0.  1.
         11    1    1    2    0    0 -0.31716299928E+02  0.17910431429E+02 -0.13291602946E+03  0.13781646536E+03  0.00000000000E+00 0. -1.
</event>
<event>
 7    1  0.2651429E-009  0.9600879E+02  0.7561462E-02  0.1288920E+00
          2   -1    0    0  501    0  0.00000000000E+00  0.00000000000E+00  0.11892542194E+03  0.11892542194E+03  0.00000000000E+00 0. -1.
         -2   -1    0    0    0  501 -0.00000000000E+00 -0.00000000000E+00 -0.95749540515E+02  0.95749540515E+02  0.00000000000E+00 0.  1.
         25    2    1    2    0    0 -0.10161835307E+01 -0.19939583508E+01  0.19736803682E+02  0.12665196264E+03  0.12508465022E+03 0.  0.
          5    1    3    3  502    0  0.40660799332E+02  0.32274224281E+02  0.43200926668E+02  0.67666229541E+02  0.41800000000E+01 0. -1.
         -5    1    3    3    0  502 -0.41676982863E+02 -0.34268182632E+02 -0.23464122986E+02  0.58985733097E+02  0.41800000000E+01 0. -1.
        -11    1    1    2    0    0 -0.24825550365E+02  0.35615356425E+02  0.11380450186E+02  0.44880688616E+02  0.00000000000E+00 0. -1.
         11    1    1    2    0    0  0.25841733895E+02 -0.33621398075E+02 -0.79413724466E+01  0.43142311198E+02  0.00000000000E+00 0.  1.
</event>
<event>
 7    1  0.2651429E-009  0.1639704E+03  0.7561462E-02  0.1184286E+00
         -1   -1    0    0    0  501 -0.00000000000E+00  0.00000000000E+00  0.30649001058E+03  0.30649001058E+03  0.00000000000E+00 0.  1.
          1   -1    0    0  501    0  0.00000000000E+00 -0.00000000000E+00 -0.13418414131E+03  0.13418414131E+03  0.00000000000E+00 0. -1.
         25    2    1    2    0    0 -0.11050155500E+03  0.58921020360E+02  0.21680589766E+03  0.27988234994E+03  0.12508817789E+03 0.  0.
          5    1    3    3  502    0 -0.41186727849E+02 -0.38961583517E+02  0.74933232002E+02  0.94057499432E+02  0.41800000000E+01 0. -1.
         -5    1    3    3    0  502 -0.69314827153E+02  0.97882603877E+02  0.14187266566E+03  0.18582485051E+03  0.41800000000E+01 0. -1.
        -11    1    1    2    0    0 -0.13733133172E+02 -0.36965501132E+00 -0.14958099840E+02  0.20309612068E+02  0.00000000000E+00 0. -1.
         11    1    1    2    0    0  0.12423468817E+03 -0.58551365349E+02 -0.29541928557E+02  0.14048218988E+03  0.00000000000E+00 0.  1.
</event>
<event>
 7    1  0.2651429E-009  0.8820417E+02  0.7561462E-02  0.1307260E+00
         -2   -1    0    0    0  501 -0.00000000000E+00  0.00000000000E+00  0.72942880293E+02  0.72942880293E+02  0.00000000000E+00 0.  1.
          2   -1    0    0  501    0  0.00000000000E+00 -0.00000000000E+00 -0.24149292462E+03  0.24149292462E+03  0.00000000000E+00 0. -1.
         25    2    1    2    0    0 -0.33964514661E+02  0.19753803601E+01 -0.15483326188E+02  0.13055630241E+03  0.12509086428E+03 0.  0.
          5    1    3    3  502    0 -0.56193094083E+02  0.32431051546E+02  0.29769283200E+02  0.71506080505E+02  0.41800000000E+01 0.  1.
         -5    1    3    3    0  502  0.22228579422E+02 -0.30455671185E+02 -0.45252609388E+02  0.59050221904E+02  0.41800000000E+01 0.  1.
        -11    1    1    2    0    0  0.11687921815E+02 -0.33145357489E+02 -0.13850315698E+03  0.14289278055E+03  0.00000000000E+00 0.  1.
         11    1    1    2    0    0  0.22276592847E+02  0.31169977129E+02 -0.14563561161E+02  0.40986721957E+02  0.00000000000E+00 0. -1.
</event>
<event>
 7    1  0.2651429E-009  0.6797515E+02  0.7561462E-02  0.1367117E+00
         -1   -1    0    0    0  501 -0.00000000000E+00  0.00000000000E+00  0.23421992187E+03  0.23421992187E+03  0.00000000000E+00 0.  1.
          1   -1    0    0  501    0  0.00000000000E+00 -0.00000000000E+00 -0.53309819542E+02  0.53309819542E+02  0.00000000000E+00 0. -1.
         25    2    1    2    0    0 -0.27634002683E+01  0.87197195091E+01  0.70457936067E+02  0.14385802310E+03  0.12508852931E+03 0.  0.
          5    1    3    3  502    0  0.27069817820E+02 -0.56010655169E+01 -0.28202633030E+02  0.39711558538E+02  0.41800000000E+01 0. -1.
         -5    1    3    3    0  502 -0.29833218088E+02  0.14320785026E+02  0.98660569097E+02  0.10414646456E+03  0.41800000000E+01 0. -1.
        -11    1    1    2    0    0  0.28915643430E+02  0.20483643007E+02  0.95245653943E+02  0.10162395712E+03  0.00000000000E+00 0.  1.
         11    1    1    2    0    0 -0.26152243161E+02 -0.29203362516E+02  0.15206512314E+02  0.42047761193E+02  0.00000000000E+00 0. -1.
</event>
<event>
 7    1  0.2651429E-009  0.7839223E+02  0.7561462E-02  0.1333677E+00
          2   -1    0    0  501    0  0.00000000000E+00  0.00000000000E+00  0.41819437903E+02  0.41819437903E+02  0.00000000000E+00 0. -1.
         -2   -1    0    0    0  501 -0.00000000000E+00 -0.00000000000E+00 -0.35254868367E+03  0.35254868367E+03  0.00000000000E+00 0.  1.
         25    2    1    2    0    0 -0.30851176472E+02 -0.44371981641E+02 -0.20012401607E+03  0.24209749778E+03  0.12506361893E+03 0.  0.
          5    1    3    3  502    0 -0.26211967337E+02 -0.19928031315E+02 -0.21173797527E+03  0.21432367166E+03  0.41800000000E+01 0.  1.
         -5    1    3    3    0  502 -0.46392091348E+01 -0.24443950326E+02  0.11613959200E+02  0.27773826118E+02  0.41800000000E+01 0.  1.
        -11    1    1    2    0    0  0.59276140653E+02  0.32016327636E+02 -0.97747832120E+02  0.11871539399E+03  0.00000000000E+00 0.  1.
         11    1    1    2    0    0 -0.28424964182E+02  0.12355654005E+02 -0.12857397579E+02  0.33555229803E+02  0.00000000000E+00 0. -1.
</event>
<event>
 7    1  0.2651429E-009  0.1101418E+03  0.7561462E-02  0.1260308E+00
          1   -1    0    0  501    0  0.00000000000E+00  0.00000000000E+00  0.45250595124E+03  0.45250595124E+03  0.00000000000E+00 0. -1.
         -1   -1    0    0    0  501 -0.00000000000E+00 -0.00000000000E+00 -0.42314701091E+02  0.42314701091E+02  0.00000000000E+00 0.  1.
         25    2    1    2    0    0 -0.24744484307E+02 -0.30972940156E+02  0.90430434906E+02  0.15936277307E+03  0.12508883786E+03 0.  0.
          5    1    3    3  502    0 -0.68666722245E+02  0.96207482191E+01  0.61576594134E+02  0.92826865106E+02  0.41800000000E+01 0.  1.
         -5    1    3    3    0  502  0.43922237939E+02 -0.40593688375E+02  0.28853840771E+02  0.66535907965E+02  0.41800000000E+01 0.  1.
        -11    1    1    2    0    0 -0.92383134418E-01  0.55769814311E+02  0.11616003034E+03  0.12885431064E+03  0.00000000000E+00 0.  1.
         11    1    1    2    0    0  0.24836867441E+02 -0.24796874155E+02  0.20360078491E+03  0.20660356862E+03  0.00000000000E+00 0. -1.
</event>
<event>
 7    1  0.2651429E-009  0.1895617E+03  0.7561462E-02  0.1158857E+00
          1   -1    0    0  501    0  0.00000000000E+00  0.00000000000E+00  0.79036717144E+03  0.79036717144E+03  0.00000000000E+00 0. -1.
         -1   -1    0    0    0  501 -0.00000000000E+00 -0.00000000000E+00 -0.53345259327E+02  0.53345259327E+02  0.00000000000E+00 0.  1.
         25    2    1    2    0    0  0.15751306191E+03 -0.68440947592E+02  0.32236146052E+03  0.38608093708E+03  0.12508817197E+03 0.  0.
          5    1    3    3  502    0  0.60245574832E+02  0.29172188552E+02  0.15741240831E+03  0.17110430901E+03  0.41800000000E+01 0. -1.
         -5    1    3    3    0  502  0.97267487081E+02 -0.97613136144E+02  0.16494905221E+03  0.21497662807E+03  0.41800000000E+01 0. -1.
        -11    1    1    2    0    0 -0.95400464686E+02  0.25725456546E+02  0.32903760421E+03  0.34355318767E+03  0.00000000000E+00 0. -1.
         11    1    1    2    0    0 -0.62112597227E+02  0.42715491047E+02  0.85622847389E+02  0.11407830602E+03  0.00000000000E+00 0.  1.
</event>
<event>
 7    1  0.2651429E-009  0.2057759E+03  0.7561462E-02  0.1144955E+00
         -2   -1    0    0    0  501 -0.00000000000E+00  0.00000000000E+00  0.43165979399E+03  0.43165979399E+03  0.00000000000E+00 0.  1.
          2   -1    0    0  501    0  0.00000000000E+00 -0.00000000000E+00 -0.14777355467E+03  0.14777355467E+03  0.00000000000E+00 0. -1.
         25    2    1    2    0    0  0.19405773641E+03  0.25974430182E+02  0.12956848462E+02  0.23269717560E+03  0.12508804709E+03 0.  0.
          5    1    3    3  502    0  0.15119957911E+03  0.40881220142E+02 -0.41110458527E+02  0.16198805229E+03  0.41800000000E+01 0. -1.
         -5    1    3    3    0  502  0.42858157301E+02 -0.14906789960E+02  0.54067306989E+02  0.70709123310E+02  0.41800000000E+01 0. -1.
        -11    1    1    2    0    0 -0.65550995416E+02 -0.44831846394E+02  0.14770196886E+03  0.16769823808E+03  0.00000000000E+00 0.  1.
         11    1    1    2    0    0 -0.12850674100E+03  0.18857416212E+02  0.12322742200E+03  0.17903793497E+03  0.00000000000E+00 0. -1.
</event>
<event>
 7    1  0.2651429E-009  0.6397863E+02  0.7561462E-02  0.1381855E+00
          2   -1    0    0  501    0  0.00000000000E+00  0.00000000000E+00  0.20011038955E+03  0.20011038955E+03  0.00000000000E+00 0. -1.
         -2   -1    0    0    0  501 -0.00000000000E+00 -0.00000000000E+00 -0.64060917416E+02  0.64060917416E+02  0.00000000000E+00 0.  1.
         25    2    1    2    0    0 -0.20509418054E+02 -0.34366446527E+01  0.10694533805E+03  0.16588413143E+03  0.12509113867E+03 0.  0.
          5    1    3    3  502    0 -0.21127657749E+02  0.29907554046E+02  0.12316739436E+03  0.12856328848E+03  0.41800000000E+01 0.  1.
         -5    1    3    3    0  502  0.61823969550E+00 -0.33344198699E+02 -0.16222056311E+02  0.37320842946E+02  0.41800000000E+01 0.  1.
        -11    1    1    2    0    0 -0.98368780309E+01  0.20455842946E+02  0.51930771168E+02  0.56674603432E+02  0.00000000000E+00 0. -1.
         11    1    1    2    0    0  0.30346296084E+02 -0.17019198293E+02 -0.22826637086E+02  0.41612572106E+02  0.00000000000E+00 0.  1.
</event>
<event>
 7    1  0.2733686E-009  0.1245473E+03  0.7561462E-02  0.1235778E+00
          2   -1    0    0  501    0  0.00000000000E+00  0.00000000000E+00  0.47952991176E+03  0.47952991176E+03  0.00000000000E+00 0.  1.
         -2   -1    0    0    0  501 -0.00000000000E+00 -0.00000000000E+00 -0.51458824221E+02  0.51458824221E+02  0.00000000000E+00 0. -1.
         25    2    1    2    0    0  0.34277652313E+01 -0.95365278706E+02  0.33303960135E+03  0.36833363804E+03  0.12509199370E+03 0.  0.
          5    1    3    3  502    0 -0.24199560464E+02 -0.11236718759E+03  0.19431014360E+03  0.22580059318E+03  0.41800000000E+01 0. -1.
         -5    1    3    3    0  502  0.27627325695E+02  0.17001908884E+02  0.13872945775E+03  0.14253304486E+03  0.41800000000E+01 0. -1.
        -11    1    1    2    0    0  0.10731968954E+02  0.79003798916E+02  0.11035321559E+03  0.13614186568E+03  0.00000000000E+00 0.  1.
         11    1    1    2    0    0 -0.14159734185E+02  0.16361479790E+02 -0.15321729396E+02  0.26513232258E+02  0.00000000000E+00 0. -1.
</event>
<event>
 7    1  0.2651429E-009  0.1075858E+03  0.7561462E-02  0.1265107E+00
          2   -1    0    0  501    0  0.00000000000E+00  0.00000000000E+00  0.45925895363E+03  0.45925895363E+03  0.00000000000E+00 0. -1.
         -2   -1    0    0    0  501 -0.00000000000E+00 -0.00000000000E+00 -0.33231882636E+02  0.33231882636E+02  0.00000000000E+00 0.  1.
         25    2    1    2    0    0 -0.49363745396E+02  0.44889582831E+02  0.30784947547E+03  0.33893352973E+03  0.12511108674E+03 0.  0.
          5    1    3    3  502    0 -0.73765605323E+02  0.63660121265E+02  0.15629240076E+03  0.18422476083E+03  0.41800000000E+01 0.  1.
         -5    1    3    3    0  502  0.24401859927E+02 -0.18770538433E+02  0.15155707471E+03  0.15470876890E+03  0.41800000000E+01 0.  1.
        -11    1    1    2    0    0  0.29105530710E+02  0.77948291239E+01  0.79805975898E+02  0.85304660295E+02  0.00000000000E+00 0.  1.
         11    1    1    2    0    0  0.20258214686E+02 -0.52684411955E+02  0.38371619622E+02  0.68252646233E+02  0.00000000000E+00 0. -1.
</event>
<event>
 7    1  0.2651429E-009  0.1014206E+03  0.7561462E-02  0.1277337E+00
          2   -1    0    0  501    0  0.00000000000E+00  0.00000000000E+00  0.12955632635E+04  0.12955632635E+04  0.00000000000E+00 0. -1.
         -2   -1    0    0    0  501 -0.00000000000E+00 -0.00000000000E+00 -0.18787371204E+02  0.18787371204E+02  0.00000000000E+00 0.  1.
         25    2    1    2    0    0 -0.44227778030E+02 -0.14153588267E+02  0.11117740367E+04  0.11197525198E+04  0.12509107256E+03 0.  0.
          5    1    3    3  502    0  0.36073163690E+02  0.24200545714E+02  0.42155899636E+03  0.42381174992E+03  0.41800000000E+01 0.  1.
         -5    1    3    3    0  502 -0.80300941721E+02 -0.38354133981E+02  0.69021504037E+03  0.69594076988E+03  0.41800000000E+01 0.  1.
        -11    1    1    2    0    0  0.42740283098E+01  0.27621804821E+02  0.40827603144E+01  0.28247129967E+02  0.00000000000E+00 0.  1.
         11    1    1    2    0    0  0.39953749721E+02 -0.13468216554E+02  0.16091909524E+03  0.16635098493E+03  0.00000000000E+00 0. -1.
</event>
<event>
 7    1  0.2651429E-009  0.1313697E+03  0.7561462E-02  0.1225437E+00
          1   -1    0    0  501    0  0.00000000000E+00  0.00000000000E+00  0.39018628461E+03  0.39018628461E+03  0.00000000000E+00 0. -1.
         -1   -1    0    0    0  501 -0.00000000000E+00 -0.00000000000E+00 -0.51465210254E+02  0.51465210254E+02  0.00000000000E+00 0.  1.
         25    2    1    2    0    0  0.82945889303E+02 -0.35219678307E+02  0.17281267942E+03  0.23158736709E+03  0.12509212659E+03 0.  0.
          5    1    3    3  502    0 -0.10870279168E+02  0.34121445044E+02  0.54768939901E+02  0.65570917021E+02  0.41800000000E+01 0.  1.
         -5    1    3    3    0  502  0.93816168470E+02 -0.69341123351E+02  0.11804373952E+03  0.16601645007E+03  0.41800000000E+01 0.  1.
        -11    1    1    2    0    0 -0.87385711636E+02  0.45666492140E+02  0.17118231225E+03  0.19754765280E+03  0.00000000000E+00 0. -1.
         11    1    1    2    0    0  0.44398223337E+01 -0.10446813833E+02 -0.52739173182E+01  0.12516474963E+02  0.00000000000E+00 0.  1.
</event>
<event>
 7    1  0.2651429E-009  0.1222604E+03  0.7561462E-02  0.1239414E+00
         -2   -1    0    0    0  501 -0.00000000000E+00  0.00000000000E+00  0.19159133467E+04  0.19159133467E+04  0.00000000000E+00 0.  1.
          2   -1    0    0  501    0  0.00000000000E+00 -0.00000000000E+00 -0.12612660242E+02  0.12612660242E+02  0.00000000000E+00 0. -1.
         25    2    1    2    0    0  0.59450782919E+01 -0.71127196511E+02  0.15531033625E+04  0.15597663825E+04  0.12508673494E+03 0.  0.
          5    1    3    3  502    0  0.13340560368E+02 -0.10357212491E+03  0.13367064927E+04  0.13407859172E+04  0.41800000000E+01 0. -1.
         -5    1    3    3    0  502 -0.73954820765E+01  0.32444928403E+02  0.21639686980E+03  0.21898046532E+03  0.41800000000E+01 0. -1.
        -11    1    1    2    0    0  0.34728698379E+02  0.16729298950E+02  0.20325892596E+03  0.20688195406E+03  0.00000000000E+00 0.  1.
         11    1    1    2    0    0 -0.40673776671E+02  0.54397897562E+02  0.14693839798E+03  0.16187767038E+03  0.00000000000E+00 0. -1.
</event>
<event>
 7    1  0.2651429E-009  0.8564014E+02  0.7561462E-02  0.1313767E+00
         -1   -1    0    0    0  501 -0.00000000000E+00  0.00000000000E+00  0.11231664312E+03  0.11231664312E+03  0.00000000000E+00 0.  1.
          1   -1    0    0  501    0  0.00000000000E+00 -0.00000000000E+00 -0.17248080953E+03  0.17248080953E+03  0.00000000000E+00 0. -1.
         25    2    1    2    0    0  0.41461993356E+02  0.10380160317E+02 -0.90614203514E+02  0.16026434595E+03  0.12508749771E+03 0.  0.
          5    1    3    3  502    0 -0.80934106933E+01 -0.49638169454E+02 -0.17557019431E+02  0.53433814151E+02  0.41800000000E+01 0.  1.
         -5    1    3    3    0  502  0.49555404049E+02  0.60018329770E+02 -0.73057184082E+02  0.10683053180E+03  0.41800000000E+01 0.  1.
        -11    1    1    2    0    0 -0.19696500532E+02 -0.32375516501E+01  0.73286496466E+02  0.75956200788E+02  0.00000000000E+00 0.  1.
         11    1    1    2    0    0 -0.21765492824E+02 -0.71426086667E+01 -0.42836459367E+02  0.48576905907E+02  0.00000000000E+00 0. -1.
</event>
<event>
 7    1  0.2651429E-009  0.7736720E+02  0.7561462E-02  0.1336693E+00
          4   -1    0    0  501    0  0.00000000000E+00  0.00000000000E+00  0.10978916029E+03  0.10978916029E+03  0.00000000000E+00 0. -1.
         -4   -1    0    0    0  501 -0.00000000000E+00 -0.00000000000E+00 -0.13032085248E+03  0.13032085248E+03  0.00000000000E+00 0.  1.
         25    2    1    2    0    0 -0.26746201714E+02  0.13103322740E+02 -0.16621252508E+02  0.12969041372E+03  0.12512506145E+03 0.  0.
          5    1    3    3  502    0 -0.41114593330E+02 -0.21672650143E+01 -0.64853342395E+02  0.76932017016E+02  0.41800000000E+01 0. -1.
         -5    1    3    3    0  502  0.14368391615E+02  0.15270587755E+02  0.48232089887E+02  0.52758396705E+02  0.41800000000E+01 0. -1.
        -11    1    1    2    0    0 -0.14222392011E+02 -0.40340639609E+02 -0.32317803977E+02  0.53610484912E+02  0.00000000000E+00 0.  1.
         11    1    1    2    0    0  0.40968593725E+02  0.27237316869E+02  0.28407364293E+02  0.56809114129E+02  0.00000000000E+00 0. -1.
</event>
<event>
 7    1  0.2651429E-009  0.2026789E+03  0.7561462E-02  0.1147498E+00
          2   -1    0    0  501    0  0.00000000000E+00  0.00000000000E+00  0.67128243983E+03  0.67128243983E+03  0.00000000000E+00 0.  1.
         -2   -1    0    0    0  501 -0.00000000000E+00 -0.00000000000E+00 -0.72491577837E+02  0.72491577837E+02  0.00000000000E+00 0. -1.
         25    2    1    2    0    0 -0.32620766283E+02 -0.18870561888E+03  0.31170592713E+03  0.38662888870E+03  0.12508951826E+03 0.  0.
          5    1    3    3  502    0 -0.48264534550E+02 -0.13606145944E+03  0.29599791547E+03  0.32935455728E+03  0.41800000000E+01 0.  1.
         -5    1    3    3    0  502  0.15643768267E+02 -0.52644159442E+02  0.15708011660E+02  0.57274331417E+02  0.41800000000E+01 0.  1.
        -11    1    1    2    0    0 -0.19015914232E+02  0.13835899252E+02  0.10238283163E+02  0.25648772765E+02  0.00000000000E+00 0. -1.
         11    1    1    2    0    0  0.51636680515E+02  0.17486971963E+03  0.27684665170E+03  0.33149635620E+03  0.00000000000E+00 0.  1.
</event>
<event>
 7    1  0.2651429E-009  0.1424952E+03  0.7561462E-02  0.1210010E+00
         -2   -1    0    0    0  501 -0.00000000000E+00  0.00000000000E+00  0.87816860485E+02  0.87816860485E+02  0.00000000000E+00 0.  1.
          2   -1    0    0  501    0  0.00000000000E+00 -0.00000000000E+00 -0.42757941660E+03  0.42757941660E+03  0.00000000000E+00 0. -1.
         25    2    1    2    0    0 -0.96803395033E+02  0.51882832865E+02 -0.25551861004E+02  0.16841084228E+03  0.12508632444E+03 0.  0.
          5    1    3    3  502    0 -0.98470654670E+02 -0.12993819763E+02 -0.28167712942E+02  0.10332570656E+03  0.41800000000E+01 0.  1.
         -5    1    3    3    0  502  0.16672596373E+01  0.64876652628E+02  0.26158519372E+01  0.65085135725E+02  0.41800000000E+01 0.  1.
        -11    1    1    2    0    0  0.19125103709E+02 -0.36719028541E+02 -0.27869005905E+02  0.49907295449E+02  0.00000000000E+00 0.  1.
         11    1    1    2    0    0  0.77678291324E+02 -0.15163804324E+02 -0.28634168921E+03  0.29707813936E+03  0.00000000000E+00 0. -1.
</event>
<event>
 7    1  0.2651429E-009  0.1407217E+03  0.7561462E-02  0.1212361E+00
         -2   -1    0    0    0  501 -0.00000000000E+00  0.00000000000E+00  0.80087969300E+02  0.80087969300E+02  0.00000000000E+00 0.  1.
          2   -1    0    0  501    0  0.00000000000E+00 -0.00000000000E+00 -0.27667618810E+03  0.27667618810E+03  0.00000000000E+00 0. -1.
         25    2    1    2    0    0 -0.88684661483E+02  0.51052446577E+02 -0.10671855722E+03  0.19367692301E+03  0.12510227243E+03 0.  0.
          5    1    3    3  502    0 -0.10828199722E+03  0.71843257843E+02 -0.10001596895E+03  0.16403387170E+03  0.41800000000E+01 0.  1.
         -5    1    3    3    0  502  0.19597335742E+02 -0.20790811266E+02 -0.67025882672E+01  0.29643051307E+02  0.41800000000E+01 0.  1.
        -11    1    1    2    0    0 -0.54584915342E+01 -0.23981650120E+02 -0.52985124058E+02  0.58415220994E+02  0.00000000000E+00 0. -1.
         11    1    1    2    0    0  0.94143153017E+02 -0.27070796457E+02 -0.36884537528E+02  0.10467201340E+03  0.00000000000E+00 0.  1.
</event>
<event>
 7    1  0.2651429E-009  0.1205131E+03  0.7561462E-02  0.1242253E+00
         -2   -1    0    0    0  501 -0.00000000000E+00  0.00000000000E+00  0.58672120469E+03  0.58672120469E+03  0.00000000000E+00 0. -1.
          2   -1    0    0  501    0  0.00000000000E+00 -0.00000000000E+00 -0.37241204699E+02  0.37241204699E+02  0.00000000000E+00 0.  1.
         25    2    1    2    0    0 -0.51336664545E+02  0.30127914465E+02  0.12902377202E+03  0.18930743937E+03  0.12508808296E+03 0.  0.
          5    1    3    3  502    0  0.17362643534E+02 -0.36860061958E+02  0.26285799755E+02  0.48667660995E+02  0.41800000000E+01 0.  1.
         -5    1    3    3    0  502 -0.68699308079E+02  0.66987976422E+02  0.10273797227E+03  0.14063977837E+03  0.41800000000E+01 0.  1.
        -11    1    1    2    0    0 -0.21235661281E+02 -0.22680591192E+02  0.68496161246E+02  0.75213606697E+02  0.00000000000E+00 0.  1.
         11    1    1    2    0    0  0.72572325826E+02 -0.74473232728E+01  0.35196006672E+03  0.35944136332E+03  0.00000000000E+00 0. -1.
</event>
<event>
 7    1  0.2651429E-009  0.1109481E+03  0.7561462E-02  0.1258824E+00
          3   -1    0    0  501    0  0.00000000000E+00  0.00000000000E+00  0.12194734672E+03  0.12194734672E+03  0.00000000000E+00 0. -1.
         -3   -1    0    0    0  501 -0.00000000000E+00 -0.00000000000E+00 -0.12199240581E+03  0.12199240581E+03  0.00000000000E+00 0.  1.
         25    2    1    2    0    0 -0.27615960866E+02  0.33044276460E+02  0.34560680341E+02  0.13674232972E+03  0.12509779619E+03 0.  0.
          5    1    3    3  502    0  0.47706686393E+02  0.30328538651E+02  0.17827425003E+02  0.59422534997E+02  0.41800000000E+01 0. -1.
         -5    1    3    3    0  502 -0.75322647259E+02  0.27157378096E+01  0.16733255338E+02  0.77319794724E+02  0.41800000000E+01 0. -1.
        -11    1    1    2    0    0 -0.18274823921E+02 -0.39364383486E+02 -0.41873492023E+02  0.60306825573E+02  0.00000000000E+00 0.  1.
         11    1    1    2    0    0  0.45890784787E+02  0.63201070255E+01  0.72677525931E+01  0.46890597233E+02  0.00000000000E+00 0. -1.
</event>
<event>
 7    1  0.2651429E-009  0.1258515E+03  0.7561462E-02  0.1233744E+00
         -2   -1    0    0    0  501 -0.00000000000E+00  0.00000000000E+00  0.14097568015E+03  0.14097568015E+03  0.00000000000E+00 0.  1.
          2   -1    0    0  501    0  0.00000000000E+00 -0.00000000000E+00 -0.23065928536E+03  0.23065928536E+03  0.00000000000E+00 0. -1.
         25    2    1    2    0    0  0.40894180815E+02 -0.88517123950E+02  0.61338384801E+02  0.17005468538E+03  0.12509429768E+03 0.  0.
          5    1    3    3  502    0  0.37493515940E+02 -0.10052314241E+03  0.88975392581E+02  0.13944446487E+03  0.41800000000E+01 0. -1.
         -5    1    3    3    0  502  0.34006648752E+01  0.12006018460E+02 -0.27637007780E+02  0.30610220513E+02  0.41800000000E+01 0. -1.
        -11    1    1    2    0    0 -0.34994791765E+02  0.10657688712E+03 -0.11381561427E+03  0.15980382464E+03  0.00000000000E+00 0.  1.
         11    1    1    2    0    0 -0.58993890504E+01 -0.18059763168E+02 -0.37206375742E+02  0.41776455483E+02  0.00000000000E+00 0. -1.
</event>
<event>
 7    1  0.2651429E-009  0.7471122E+02  0.7561462E-02  0.1344768E+00
          3   -1    0    0  501    0  0.00000000000E+00  0.00000000000E+00  0.59803598369E+02  0.59803598369E+02  0.00000000000E+00 0. -1.
         -3   -1    0    0    0  501 -0.00000000000E+00 -0.00000000000E+00 -0.30187031072E+03  0.30187031072E+03  0.00000000000E+00 0.  1.
         25    2    1    2    0    0 -0.38041265352E+02 -0.39605972103E+02 -0.21398942328E+03  0.25387497743E+03  0.12508101372E+03 0.  0.
          5    1    3    3  502    0 -0.38033365252E+02  0.98345888238E+01 -0.58905628376E+01  0.39942798353E+02  0.41800000000E+01 0.  1.
         -5    1    3    3    0  502 -0.79001001502E-02 -0.49440560927E+02 -0.20809886044E+03  0.21393217907E+03  0.41800000000E+01 0.  1.
        -11    1    1    2    0    0  0.23363908031E+02  0.67582861243E+01 -0.56783062493E+02  0.61772670461E+02  0.00000000000E+00 0.  1.
         11    1    1    2    0    0  0.14677357321E+02  0.32847685979E+02  0.28705773422E+02  0.46026261198E+02  0.00000000000E+00 0. -1.
</event>
<event>
 7    1  0.2651429E-009  0.9771052E+02  0.7561462E-02  0.1285185E+00
         -1   -1    0    0    0  501 -0.00000000000E+00  0.00000000000E+00  0.11749123788E+02  0.11749123788E+02  0.00000000000E+00 0.  1.
          1   -1    0    0  501    0  0.00000000000E+00 -0.00000000000E+00 -0.15007181957E+04  0.15007181957E+04  0.00000000000E+00 0. -1.
         25    2    1    2    0    0 -0.42593780760E+02 -0.13129140519E+02 -0.11752635229E+04  0.11827421533E+04  0.12509216017E+03 0.  0.
          5    1    3    3  502    0 -0.66201375988E+02  0.96688744380E+01 -0.10764919625E+04  0.10785770844E+04  0.41800000000E+01 0. -1.
         -5    1    3    3    0  502  0.23607595228E+02 -0.22798014957E+02 -0.98771560398E+02  0.10416506891E+03  0.41800000000E+01 0. -1.
        -11    1    1    2    0    0  0.54693368241E+02 -0.21388029089E+02 -0.24443829092E+03  0.25139389488E+03  0.00000000000E+00 0.  1.
         11    1    1    2    0    0 -0.12099587481E+02  0.34517169607E+02 -0.69267258140E+02  0.78331271310E+02  0.00000000000E+00 0. -1.
</event>
<event>
 7    1  0.2651429E-009  0.3733387E+03  0.7561462E-02  0.1053424E+00
          2   -1    0    0  501    0  0.00000000000E+00  0.00000000000E+00  0.14258812227E+04  0.14258812227E+04  0.00000000000E+00 0. -1.
         -2   -1    0    0    0  501 -0.00000000000E+00 -0.00000000000E+00 -0.11835868555E+03  0.11835868555E+03  0.00000000000E+00 0.  1.
         25    2    1    2    0    0 -0.32934444405E+03  0.16760656016E+03  0.92830504000E+03  0.10069546240E+04  0.12509055016E+03 0.  0.
          5    1    3    3  502    0 -0.94768467200E+02  0.25752166819E+02  0.13064239616E+03  0.16349050292E+03  0.41800000000E+01 0. -1.
         -5    1    3    3    0  502 -0.23457597685E+03  0.14185439334E+03  0.79766264384E+03  0.84346412111E+03  0.41800000000E+01 0. -1.
        -11    1    1    2    0    0  0.10581800666E+03 -0.23901270400E+02  0.15725749238E+03  0.19104617287E+03  0.00000000000E+00 0.  1.
         11    1    1    2    0    0  0.22352643739E+03 -0.14370528976E+03  0.22196000480E+03  0.34623911138E+03  0.00000000000E+00 0. -1.
</event>
<event>
 7    1  0.2651429E-009  0.1550721E+03  0.7561462E-02  0.1194375E+00
         -2   -1    0    0    0  501 -0.00000000000E+00  0.00000000000E+00  0.69667021429E+02  0.69667021429E+02  0.00000000000E+00 0. -1.
          2   -1    0    0  501    0  0.00000000000E+00 -0.00000000000E+00 -0.48345617564E+03  0.48345617564E+03  0.00000000000E+00 0.  1.
         25    2    1    2    0    0  0.13701508026E+03  0.43606574849E+02 -0.26179052800E+03  0.32382465208E+03  0.12511378482E+03 0.  0.
          5    1    3    3  502    0  0.14777870464E+03  0.37113459107E+02 -0.26867091981E+03  0.30889721582E+03  0.41800000000E+01 0.  1.
         -5    1    3    3    0  502 -0.10763624381E+02  0.64931157425E+01  0.68803918015E+01  0.14927436257E+02  0.41800000000E+01 0.  1.
        -11    1    1    2    0    0 -0.15205239073E+02 -0.34948480485E+00 -0.79806334556E+02  0.81242676409E+02  0.00000000000E+00 0.  1.
         11    1    1    2    0    0 -0.12180984118E+03 -0.43257090045E+02 -0.72192291648E+02  0.14805586858E+03  0.00000000000E+00 0. -1.
</event>
<event>
 7    1  0.2651429E-009  0.6831589E+02  0.7561462E-02  0.1365915E+00
         -1   -1    0    0    0  501 -0.00000000000E+00  0.00000000000E+00  0.19290051487E+02  0.19290051487E+02  0.00000000000E+00 0.  1.
          1   -1    0    0  501    0  0.00000000000E+00 -0.00000000000E+00 -0.61791285209E+03  0.61791285209E+03  0.00000000000E+00 0. -1.
         25    2    1    2    0    0  0.12754715325E+02  0.83851999288E+01 -0.38108945904E+03  0.40138492117E+03  0.12509070631E+03 0.  0.
          5    1    3    3  502    0  0.23043761498E+02  0.20147573922E+02 -0.13963405666E+02  0.33902636722E+02  0.41800000000E+01 0. -1.
         -5    1    3    3    0  502 -0.10289046173E+02 -0.11762373993E+02 -0.36712605338E+03  0.36748228445E+03  0.41800000000E+01 0. -1.
        -11    1    1    2    0    0 -0.24725422780E+02  0.35953666403E+02 -0.12727304377E+03  0.13454530958E+03  0.00000000000E+00 0. -1.
         11    1    1    2    0    0  0.11970707455E+02 -0.44338866332E+02 -0.90260297783E+02  0.10127267282E+03  0.00000000000E+00 0.  1.
</event>
<event>
 7    1  0.2651429E-009  0.8588453E+02  0.7561462E-02  0.1313135E+00
         -1   -1    0    0    0  501 -0.00000000000E+00  0.00000000000E+00  0.29242850096E+02  0.29242850096E+02  0.00000000000E+00 0.  1.
          1   -1    0    0  501    0  0.00000000000E+00 -0.00000000000E+00 -0.52680336677E+03  0.52680336677E+03  0.00000000000E+00 0. -1.
         25    2    1    2    0    0 -0.11211530643E+02 -0.59673873502E+02 -0.34707227294E+03  0.37388876232E+03  0.12508786649E+03 0.  0.
          5    1    3    3  502    0 -0.19292830690E+02  0.49935542295E+01  0.36693069410E+00  0.20365557640E+02  0.41800000000E+01 0. -1.
         -5    1    3    3    0  502  0.80813000470E+01 -0.64667427732E+02 -0.34743920364E+03  0.35352320468E+03  0.41800000000E+01 0. -1.
        -11    1    1    2    0    0 -0.53010895835E+01 -0.11699180889E+02  0.19864360551E+01  0.12996857791E+02  0.00000000000E+00 0.  1.
         11    1    1    2    0    0  0.16512620226E+02  0.71373054392E+02 -0.15247467978E+03  0.16916059676E+03  0.00000000000E+00 0. -1.
</event>
<event>
 7    1  0.2651429E-009  0.1046240E+03  0.7561462E-02  0.1270862E+00
         -1   -1    0    0    0  501 -0.00000000000E+00  0.00000000000E+00  0.92671736063E+02  0.92671736063E+02  0.00000000000E+00 0.  1.
          1   -1    0    0  501    0  0.00000000000E+00 -0.00000000000E+00 -0.14585385821E+03  0.14585385821E+03  0.00000000000E+00 0. -1.
         25    2    1    2    0    0  0.17875896118E+02  0.12808261780E+02 -0.67383743590E+02  0.14377573072E+03  0.12508913866E+03 0.  0.
          5    1    3    3  502    0 -0.42848047688E+02  0.30076585097E+02 -0.60528456577E+02  0.80135651351E+02  0.41800000000E+01 0.  1.
         -5    1    3    3    0  502  0.60723943806E+02 -0.17268323317E+02 -0.68552870130E+01  0.63640079365E+02  0.41800000000E+01 0.  1.
        -11    1    1    2    0    0  0.13755038680E+02  0.34165457078E+02  0.24441277441E+01  0.36911425154E+02  0.00000000000E+00 0. -1.
         11    1    1    2    0    0 -0.31630934798E+02 -0.46973718858E+02  0.11757493694E+02  0.57838438408E+02  0.00000000000E+00 0.  1.
</event>
<event>
 7    1  0.2651429E-009  0.1318284E+03  0.7561462E-02  0.1224768E+00
         -1   -1    0    0    0  501 -0.00000000000E+00  0.00000000000E+00  0.13121642659E+03  0.13121642659E+03  0.00000000000E+00 0.  1.
          1   -1    0    0  501    0  0.00000000000E+00 -0.00000000000E+00 -0.21219706617E+03  0.21219706617E+03  0.00000000000E+00 0. -1.
         25    2    1    2    0    0  0.11086103674E+03  0.21356404256E+02  0.14673315120E+02  0.16914077395E+03  0.12508808803E+03 0.  0.
          5    1    3    3  502    0  0.54961519373E+02  0.30227261989E+02  0.67050925256E+02  0.91911669318E+02  0.41800000000E+01 0. -1.
         -5    1    3    3    0  502  0.55899517363E+02 -0.88708577333E+01 -0.52377610137E+02  0.77229104630E+02  0.41800000000E+01 0. -1.
        -11    1    1    2    0    0 -0.68892438616E+02 -0.56657949386E+02 -0.46324884123E+02  0.10051012992E+03  0.00000000000E+00 0.  1.
         11    1    1    2    0    0 -0.41968598120E+02  0.35301545130E+02 -0.49329070571E+02  0.73762588892E+02  0.00000000000E+00 0. -1.
</event>
<event>
 7    1  0.2651429E-009  0.6259732E+03  0.7561462E-02  0.9852939E-01
          2   -1    0    0  501    0  0.00000000000E+00  0.00000000000E+00  0.11972128562E+04  0.11972128562E+04  0.00000000000E+00 0.  1.
         -2   -1    0    0    0  501 -0.00000000000E+00 -0.00000000000E+00 -0.34327755455E+03  0.34327755455E+03  0.00000000000E+00 0. -1.
         25    2    1    2    0    0 -0.27846269399E+03 -0.55509044148E+03  0.56847413624E+03  0.85116194582E+03  0.12508774629E+03 0.  0.
          5    1    3    3  502    0 -0.25401980757E+03 -0.40606033818E+03  0.46839316688E+03  0.66994081236E+03  0.41800000000E+01 0. -1.
         -5    1    3    3    0  502 -0.24442886422E+02 -0.14903010330E+03  0.10008096936E+03  0.18122113346E+03  0.41800000000E+01 0. -1.
        -11    1    1    2    0    0  0.23973259417E+03  0.50043270191E+03  0.28152912600E+03  0.62222444072E+03  0.00000000000E+00 0.  1.
         11    1    1    2    0    0  0.38730099828E+02  0.54657739569E+02  0.39320393832E+01  0.67104024180E+02  0.00000000000E+00 0. -1.
</event>
<event>
 7    1  0.2651429E-009  0.2218285E+03  0.7561462E-02  0.1132527E+00
          2   -1    0    0  501    0  0.00000000000E+00  0.00000000000E+00  0.56084161865E+03  0.56084161865E+03  0.00000000000E+00 0. -1.
         -2   -1    0    0    0  501 -0.00000000000E+00 -0.00000000000E+00 -0.96342772641E+02  0.96342772641E+02  0.00000000000E+00 0.  1.
         25    2    1    2    0    0  0.97530086023E+02 -0.17865579356E+03  0.27155674836E+03  0.36169086830E+03  0.12508879397E+03 0.  0.
          5    1    3    3  502    0 -0.23575517865E+02 -0.77256765932E+02  0.94206913797E+02  0.12416451962E+03  0.41800000000E+01 0. -1.
         -5    1    3    3    0  502  0.12110560389E+03 -0.10139902763E+03  0.17734983456E+03  0.23752634868E+03  0.41800000000E+01 0. -1.
        -11    1    1    2    0    0 -0.37993855080E+02  0.48229441211E+02  0.11962850187E+03  0.13446408622E+03  0.00000000000E+00 0. -1.
         11    1    1    2    0    0 -0.59536230943E+02  0.13042635235E+03  0.73313595789E+02  0.16102943678E+03  0.00000000000E+00 0.  1.
</event>
<event>
 7    1  0.2651429E-009  0.1479880E+03  0.7561462E-02  0.1202967E+00
          2   -1    0    0  501    0  0.00000000000E+00  0.00000000000E+00  0.28117150887E+04  0.28117150887E+04  0.00000000000E+00 0. -1.
         -2   -1    0    0    0  501 -0.00000000000E+00 -0.00000000000E+00 -0.10968306118E+02  0.10968306118E+02  0.00000000000E+00 0.  1.
         25    2    1    2    0    0 -0.31799155762E+02  0.99289694085E+02  0.22178483656E+04  0.22238185184E+04  0.12509116910E+03 0.  0.
          5    1    3    3  502    0 -0.59700592263E+02  0.11354798060E+03  0.15887190479E+04  0.15938955393E+04  0.41800000000E+01 0.  1.
         -5    1    3    3    0  502  0.27901436501E+02 -0.14258286511E+02  0.62912931771E+03  0.62992297918E+03  0.41800000000E+01 0.  1.
        -11    1    1    2    0    0  0.35678100280E+02 -0.11469947931E+03  0.53771863409E+03  0.55097207446E+03  0.00000000000E+00 0.  1.
         11    1    1    2    0    0 -0.38789445178E+01  0.15409785220E+02  0.45179782893E+02  0.47892801895E+02  0.00000000000E+00 0. -1.
</event>
<event>
 7    1  0.2651429E-009  0.9133318E+02  0.7561462E-02  0.1299655E+00
          1   -1    0    0  501    0  0.00000000000E+00  0.00000000000E+00  0.16454400073E+03  0.16454400073E+03  0.00000000000E+00 0. -1.
         -1   -1    0    0    0  501 -0.00000000000E+00 -0.00000000000E+00 -0.89188748388E+02  0.89188748388E+02  0.00000000000E+00 0.  1.
         25    2    1    2    0    0  0.98288911516E+01  0.47865231174E+02  0.21255726450E+02  0.13596938393E+03  0.12509268564E+03 0.  0.
          5    1    3    3  502    0 -0.57272673962E+01 -0.14755537577E+02 -0.42267517907E+02  0.45327066428E+02  0.41800000000E+01 0. -1.
         -5    1    3    3    0  502  0.15556158548E+02  0.62620768751E+02  0.63523244356E+02  0.90642317497E+02  0.41800000000E+01 0. -1.
        -11    1    1    2    0    0 -0.38633033007E+02 -0.59193128761E+02  0.24156713374E+02  0.74698624705E+02  0.00000000000E+00 0.  1.
         11    1    1    2    0    0  0.28804141855E+02  0.11327897587E+02  0.29942812515E+02  0.43064740485E+02  0.00000000000E+00 0. -1.
</event>
<event>
 7    1  0.2651429E-009  0.1083804E+03  0.7561462E-02  0.1263599E+00
          1   -1    0    0  501    0  0.00000000000E+00  0.00000000000E+00  0.19877937381E+03  0.19877937381E+03  0.00000000000E+00 0. -1.
         -1   -1    0    0    0  501 -0.00000000000E+00 -0.00000000000E+00 -0.71008366594E+02  0.71008366594E+02  0.00000000000E+00 0.  1.
         25    2    1    2    0    0  0.34596662759E+02  0.26757890413E+02  0.48292007329E+02  0.14104023824E+03  0.12508923638E+03 0.  0.
          5    1    3    3  502    0 -0.32300862913E+02 -0.15929969302E+02 -0.15209269180E+02  0.39317984891E+02  0.41800000000E+01 0.  1.
         -5    1    3    3    0  502  0.66897525673E+02  0.42687859715E+02  0.63501276508E+02  0.10172225335E+03  0.41800000000E+01 0.  1.
        -11    1    1    2    0    0 -0.54732715483E+02 -0.47250433873E+02  0.60875715628E+02  0.94520507820E+02  0.00000000000E+00 0. -1.
         11    1    1    2    0    0  0.20136052723E+02  0.20492543460E+02  0.18603284263E+02  0.34226994348E+02  0.00000000000E+00 0.  1.
</event>
<event>
 7    1  0.2651429E-009  0.1586574E+03  0.7561462E-02  0.1190221E+00
          1   -1    0    0  501    0  0.00000000000E+00  0.00000000000E+00  0.36357393305E+02  0.36357393305E+02  0.00000000000E+00 0. -1.
         -1   -1    0    0    0  501 -0.00000000000E+00 -0.00000000000E+00 -0.78439322714E+03  0.78439322714E+03  0.00000000000E+00 0.  1.
         25    2    1    2    0    0  0.51913300446E+02  0.10702776739E+03 -0.51984923420E+03  0.54776000474E+03  0.12509141753E+03 0.  0.
          5    1    3    3  502    0  0.62999783977E+02  0.34023328949E+01 -0.13578400921E+03  0.14978423885E+03  0.41800000000E+01 0.  1.
         -5    1    3    3    0  502 -0.11086483531E+02  0.10362543450E+03 -0.38406522499E+03  0.39797576589E+03  0.41800000000E+01 0.  1.
        -11    1    1    2    0    0 -0.59478989778E+01 -0.10351398691E+03 -0.15421181602E+03  0.18582735856E+03  0.00000000000E+00 0.  1.
         11    1    1    2    0    0 -0.45965401469E+02 -0.35137804840E+01 -0.73974783619E+02  0.87163257150E+02  0.00000000000E+00 0. -1.
</event>
<event>
 7    1  0.2651429E-009  0.9072451E+02  0.7561462E-02  0.1301107E+00
          3   -1    0    0  501    0  0.00000000000E+00  0.00000000000E+00  0.83617554020E+02  0.83617554020E+02  0.00000000000E+00 0. -1.
         -3   -1    0    0    0  501 -0.00000000000E+00 -0.00000000000E+00 -0.15977330395E+03  0.15977330395E+03  0.00000000000E+00 0.  1.
         25    2    1    2    0    0  0.21148679847E+02 -0.64980777674E+01 -0.79349847112E+02  0.14977865648E+03  0.12509099098E+03 0.  0.
          5    1    3    3  502    0 -0.50336859865E+02  0.14146360943E+02 -0.30622374880E+02  0.60738136555E+02  0.41800000000E+01 0.  1.
         -5    1    3    3    0  502  0.71485539712E+02 -0.20644438710E+02 -0.48727472232E+02  0.89040519920E+02  0.41800000000E+01 0.  1.
        -11    1    1    2    0    0 -0.18153844559E+02  0.27667163464E+02  0.39468931563E+02  0.51505636246E+02  0.00000000000E+00 0. -1.
         11    1    1    2    0    0 -0.29948352878E+01 -0.21169085696E+02 -0.36274834386E+02  0.42106565252E+02  0.00000000000E+00 0.  1.
</event>
<event>
 7    1  0.2651429E-009  0.1119072E+03  0.7561462E-02  0.1257078E+00
          3   -1    0    0  501    0  0.00000000000E+00  0.00000000000E+00  0.11862282800E+03  0.11862282800E+03  0.00000000000E+00 0. -1.
         -3   -1    0    0    0  501 -0.00000000000E+00 -0.00000000000E+00 -0.15328631771E+03  0.15328631771E+03  0.00000000000E+00 0.  1.
         25    2    1    2    0    0  0.41048335970E+02  0.68641637464E+02 -0.34317183302E+02  0.15238765939E+03  0.12509072461E+03 0.  0.
          5    1    3    3  502    0  0.20568083480E+01  0.90899874021E+02  0.69218942967E+01  0.91281994820E+02  0.41800000000E+01 0. -1.
         -5    1    3    3    0  502  0.38991527622E+02 -0.22258236557E+02 -0.41239077599E+02  0.61105664567E+02  0.41800000000E+01 0. -1.
        -11    1    1    2    0    0  0.95345413833E+00 -0.31857326153E+02 -0.39923248504E+02  0.51084871298E+02  0.00000000000E+00 0.  1.
         11    1    1    2    0    0 -0.42001790108E+02 -0.36784311311E+02  0.39576942099E+02  0.68436615030E+02  0.00000000000E+00 0. -1.
</event>
<event>
 7    1  0.2651429E-009  0.2307474E+03  0.7561462E-02  0.1126115E+00
          2   -1    0    0  501    0  0.00000000000E+00  0.00000000000E+00  0.26889231574E+04  0.26889231574E+04  0.00000000000E+00 0. -1.
         -2   -1    0    0    0  501 -0.00000000000E+00 -0.00000000000E+00 -0.31359864905E+02  0.31359864905E+02  0.00000000000E+00 0.  1.
         25    2    1    2    0    0 -0.79015306458E+02  0.19521803515E+03  0.21374697025E+04  0.21514594391E+04  0.12508992480E+03 0.  0.
          5    1    3    3  502    0 -0.83013604317E+02  0.67747589545E+02  0.67859987720E+03  0.68701983969E+03  0.41800000000E+01 0.  1.
         -5    1    3    3    0  502  0.39982978586E+01  0.12747044560E+03  0.14588698253E+04  0.14644395994E+04  0.41800000000E+01 0.  1.
        -11    1    1    2    0    0  0.79792187936E+02 -0.85527795648E+02  0.21744016203E+03  0.24690488279E+03  0.00000000000E+00 0. -1.
         11    1    1    2    0    0 -0.77688147828E+00 -0.10969023950E+03  0.30265342801E+03  0.32191870041E+03  0.00000000000E+00 0.  1.
</event>
<event>
 7    1  0.2651429E-009  0.1328314E+03  0.7561462E-02  0.1223314E+00
         -1   -1    0    0    0  501 -0.00000000000E+00  0.00000000000E+00  0.82313872750E+02  0.82313872750E+02  0.00000000000E+00 0.  1.
          1   -1    0    0  501    0  0.00000000000E+00 -0.00000000000E+00 -0.34056110236E+03  0.34056110236E+03  0.00000000000E+00 0. -1.
         25    2    1    2    0    0 -0.58695842694E+02 -0.54449148048E+02 -0.13128915228E+02  0.14909810137E+03  0.12509182125E+03 0.  0.
          5    1    3    3  502    0 -0.96457632033E+02 -0.28976019721E+02  0.22869444250E+01  0.10082850297E+03  0.41800000000E+01 0.  1.
         -5    1    3    3    0  502  0.37761789339E+02 -0.25473128327E+02 -0.15415859653E+02  0.48269598400E+02  0.41800000000E+01 0.  1.
        -11    1    1    2    0    0 -0.20597756444E+02  0.29525231033E+02 -0.49272031962E+02  0.61022454652E+02  0.00000000000E+00 0. -1.
         11    1    1    2    0    0  0.79293599138E+02  0.24923917015E+02 -0.19584628242E+03  0.21275441909E+03  0.00000000000E+00 0.  1.
</event>
<event>
 7    1  0.2651429E-009  0.1217652E+03  0.7561462E-02  0.1240213E+00
          1   -1    0    0  501    0  0.00000000000E+00  0.00000000000E+00  0.88096060648E+03  0.88096060648E+03  0.00000000000E+00 0. -1.
         -1   -1    0    0    0  501 -0.00000000000E+00 -0.00000000000E+00 -0.19783605598E+02  0.19783605598E+02  0.00000000000E+00 0.  1.
         25    2    1    2    0    0 -0.73613564344E+02  0.13141110957E+02  0.53015539637E+03  0.54981964476E+03  0.12508098097E+03 0.  0.
          5    1    3    3  502    0  0.28272075757E+02 -0.21512430085E+02  0.17820588910E+03  0.18176057391E+03  0.41800000000E+01 0.  1.
         -5    1    3    3    0  502 -0.10188564010E+03  0.34653541042E+02  0.35194950727E+03  0.36805907085E+03  0.41800000000E+01 0.  1.
        -11    1    1    2    0    0  0.46234019125E+02 -0.40419790964E+02  0.10514655233E+03  0.12176675036E+03  0.00000000000E+00 0.  1.
         11    1    1    2    0    0  0.27379545219E+02  0.27278680007E+02  0.22587505217E+03  0.22915781696E+03  0.00000000000E+00 0. -1.
</event>
<event>
 7    1  0.2651429E-009  0.9862184E+02  0.7561462E-02  0.1283221E+00
          3   -1    0    0  501    0  0.00000000000E+00  0.00000000000E+00  0.12308551948E+02  0.12308551948E+02  0.00000000000E+00 0. -1.
         -3   -1    0    0    0  501 -0.00000000000E+00 -0.00000000000E+00 -0.13977334988E+04  0.13977334988E+04  0.00000000000E+00 0.  1.
         25    2    1    2    0    0 -0.92944545116E+01 -0.27805566749E+02 -0.11282198952E+04  0.11355119552E+04  0.12509089550E+03 0.  0.
          5    1    3    3  502    0  0.41744202958E+02 -0.27372763735E+02 -0.21104805135E+03  0.21691150051E+03  0.41800000000E+01 0.  1.
         -5    1    3    3    0  502 -0.51038657470E+02 -0.43280301410E+00 -0.91717184386E+03  0.91860045473E+03  0.41800000000E+01 0.  1.
        -11    1    1    2    0    0 -0.17660384513E+02  0.54930024166E+02 -0.15070272600E+03  0.16137071717E+03  0.00000000000E+00 0.  1.
         11    1    1    2    0    0  0.26954839025E+02 -0.27124457417E+02 -0.10650232566E+03  0.11315937834E+03  0.00000000000E+00 0. -1.
</event>
<event>
 7    1  0.2651429E-009  0.1489510E+03  0.7561462E-02  0.1201768E+00
         -1   -1    0    0    0  501 -0.00000000000E+00  0.00000000000E+00  0.25470719754E+03  0.25470719754E+03  0.00000000000E+00 0.  1.
          1   -1    0    0  501    0  0.00000000000E+00 -0.00000000000E+00 -0.10536951404E+03  0.10536951404E+03  0.00000000000E+00 0. -1.
         25    2    1    2    0    0  0.24035801149E+02  0.12183276502E+03  0.76368057034E+02  0.19209476072E+03  0.12508946636E+03 0.  0.
          5    1    3    3  502    0  0.45658950840E+02  0.36356876058E+02  0.85229751778E+02  0.10338348619E+03  0.41800000000E+01 0.  1.
         -5    1    3    3    0  502 -0.21623149691E+02  0.85475888959E+02 -0.88616947438E+01  0.88711274535E+02  0.41800000000E+01 0.  1.
        -11    1    1    2    0    0  0.28661526411E+02 -0.76193277493E+02  0.35146589741E+02  0.88668942713E+02  0.00000000000E+00 0.  1.
         11    1    1    2    0    0 -0.52697327560E+02 -0.45639487524E+02  0.37823036726E+02  0.79313008143E+02  0.00000000000E+00 0. -1.
</event>
<event>
 7    1  0.2651429E-009  0.1134540E+03  0.7561462E-02  0.1254304E+00
          1   -1    0    0  501    0  0.00000000000E+00  0.00000000000E+00  0.13510623549E+03  0.13510623549E+03  0.00000000000E+00 0. -1.
         -1   -1    0    0    0  501 -0.00000000000E+00 -0.00000000000E+00 -0.11915227863E+03  0.11915227863E+03  0.00000000000E+00 0.  1.
         25    2    1    2    0    0 -0.64919367252E+02 -0.62220380247E-01  0.29430027939E+02  0.14394620999E+03  0.12505941272E+03 0.  0.
          5    1    3    3  502    0 -0.99992357892E+02 -0.14708551709E+02  0.30628253599E+02  0.10568999692E+03  0.41800000000E+01 0.  1.
         -5    1    3    3    0  502  0.35072990640E+02  0.14646331328E+02 -0.11982256595E+01  0.38256213072E+02  0.41800000000E+01 0.  1.
        -11    1    1    2    0    0  0.50234493265E+02 -0.26774354916E+02 -0.40203214328E+02  0.69689804398E+02  0.00000000000E+00 0.  1.
         11    1    1    2    0    0  0.14684873987E+02  0.26836575296E+02  0.26727143259E+02  0.40622499731E+02  0.00000000000E+00 0. -1.
</event>
<event>
 7    1  0.2651429E-009  0.8334354E+02  0.7561462E-02  0.1319822E+00
         -2   -1    0    0    0  501 -0.00000000000E+00  0.00000000000E+00  0.90165139775E+02  0.90165139775E+02  0.00000000000E+00 0. -1.
          2   -1    0    0  501    0  0.00000000000E+00 -0.00000000000E+00 -0.17843567181E+03  0.17843567181E+03  0.00000000000E+00 0.  1.
         25    2    1    2    0    0  0.43951737718E+02  0.34106483372E+02 -0.86086618438E+02  0.16171931805E+03  0.12508886642E+03 0.  0.
          5    1    3    3  502    0  0.58491644148E+02  0.34559406861E+02 -0.11237677617E+03  0.13138355019E+03  0.41800000000E+01 0.  1.
         -5    1    3    3    0  502 -0.14539906430E+02 -0.45292348893E+00  0.26290157729E+02  0.30335767867E+02  0.41800000000E+01 0.  1.
        -11    1    1    2    0    0 -0.52668913601E+02 -0.47747030847E+01  0.31354804348E+02  0.61481184155E+02  0.00000000000E+00 0. -1.
         11    1    1    2    0    0  0.87171758824E+01 -0.29331780287E+02 -0.33538717947E+02  0.45400309379E+02  0.00000000000E+00 0.  1.
</event>
<event>
 7    1  0.2651429E-009  0.1762978E+03  0.7561462E-02  0.1171435E+00
          3   -1    0    0  501    0  0.00000000000E+00  0.00000000000E+00  0.29073922875E+02  0.29073922875E+02  0.00000000000E+00 0. -1.
         -3   -1    0    0    0  501 -0.00000000000E+00 -0.00000000000E+00 -0.13842990179E+04  0.13842990179E+04  0.00000000000E+00 0.  1.
         25    2    1    2    0    0  0.15695621036E+03 -0.52390545142E+02 -0.60239767357E+03  0.63711073098E+03  0.12508838962E+03 0.  0.
          5    1    3    3  502    0  0.10948894851E+03 -0.67191749675E+02 -0.24907987760E+03  0.28028702948E+03  0.41800000000E+01 0. -1.
         -5    1    3    3    0  502  0.47467261847E+02  0.14801204532E+02 -0.35331779597E+03  0.35682370150E+03  0.41800000000E+01 0. -1.
        -11    1    1    2    0    0 -0.69671241758E+02 -0.47670536978E+01 -0.16379229317E+03  0.17805819843E+03  0.00000000000E+00 0. -1.
         11    1    1    2    0    0 -0.87284968599E+02  0.57157598840E+02 -0.58903512829E+03  0.59820401136E+03  0.00000000000E+00 0.  1.
</event>
<event>
 7    1  0.2651429E-009  0.8017014E+02  0.7561462E-02  0.1328569E+00
         -3   -1    0    0    0  501 -0.00000000000E+00  0.00000000000E+00  0.18198271500E+03  0.18198271500E+03  0.00000000000E+00 0.  1.
          3   -1    0    0  501    0  0.00000000000E+00 -0.00000000000E+00 -0.19155789016E+03  0.19155789016E+03  0.00000000000E+00 0. -1.
         25    2    1    2    0    0 -0.11426634523E+02  0.41813547556E+02  0.14021533719E+03  0.19283760295E+03  0.12508820726E+03 0.  0.
          5    1    3    3  502    0  0.36080408205E+02  0.26300282608E+01 -0.33456757178E+01  0.36570190742E+02  0.41800000000E+01 0.  1.
         -5    1    3    3    0  502 -0.47507042728E+02  0.39183519296E+02  0.14356101290E+03  0.15626741221E+03  0.41800000000E+01 0.  1.
        -11    1    1    2    0    0 -0.14957753382E+02 -0.29518366956E+02 -0.14787395339E+03  0.15153143061E+03  0.00000000000E+00 0. -1.
         11    1    1    2    0    0  0.26384387905E+02 -0.12295180600E+02 -0.19165589565E+01  0.29171571595E+02  0.00000000000E+00 0.  1.
</event>
<event>
 7    1  0.2651429E-009  0.1100453E+03  0.7561462E-02  0.1260486E+00
          1   -1    0    0  501    0  0.00000000000E+00  0.00000000000E+00  0.35405008328E+03  0.35405008328E+03  0.00000000000E+00 0. -1.
         -1   -1    0    0    0  501 -0.00000000000E+00 -0.00000000000E+00 -0.53186000669E+02  0.53186000669E+02  0.00000000000E+00 0.  1.
         25    2    1    2    0    0  0.64120667457E+02 -0.24235675473E+01  0.11036059797E+03  0.17872509384E+03  0.12508342780E+03 0.  0.
          5    1    3    3  502    0  0.81090712767E+02 -0.13119001704E+02  0.18103643648E+02  0.84220105772E+02  0.41800000000E+01 0. -1.
         -5    1    3    3    0  502 -0.16970045310E+02  0.10695434157E+02  0.92256954317E+02  0.94504988067E+02  0.41800000000E+01 0. -1.
        -11    1    1    2    0    0  0.23515327744E+02  0.16312367948E+02  0.90016505797E+02  0.94456525994E+02  0.00000000000E+00 0. -1.
         11    1    1    2    0    0 -0.87635995201E+02 -0.13888800401E+02  0.10048697885E+03  0.13405446412E+03  0.00000000000E+00 0.  1.
</event>
<event>
 7    1  0.2651429E-009  0.1817832E+03  0.7561462E-02  0.1166088E+00
          1   -1    0    0  501    0  0.00000000000E+00  0.00000000000E+00  0.54542869828E+03  0.54542869828E+03  0.00000000000E+00 0. -1.
         -1   -1    0    0    0  501 -0.00000000000E+00 -0.00000000000E+00 -0.10607390607E+03  0.10607390607E+03  0.00000000000E+00 0.  1.
         25    2    1    2    0    0 -0.55236875235E+02 -0.17076840548E+03  0.38868009136E+03  0.44601870624E+03  0.12509001640E+03 0.  0.
          5    1    3    3  502    0 -0.17410075484E+02 -0.99541807616E+02  0.86028274110E+02  0.13277808004E+03  0.41800000000E+01 0.  1.
         -5    1    3    3    0  502 -0.37826799750E+02 -0.71226597866E+02  0.30265181725E+03  0.31324062621E+03  0.41800000000E+01 0.  1.
        -11    1    1    2    0    0 -0.36518596401E+00  0.34410622750E+02 -0.22430796775E+02  0.41077548160E+02  0.00000000000E+00 0.  1.
         11    1    1    2    0    0  0.55602061199E+02  0.13635778273E+03  0.73105497626E+02  0.16440634995E+03  0.00000000000E+00 0. -1.
</event>
<event>
 7    1  0.2651429E-009  0.1112542E+03  0.7561462E-02  0.1258265E+00
          2   -1    0    0  501    0  0.00000000000E+00  0.00000000000E+00  0.49507535104E+02  0.49507535104E+02  0.00000000000E+00 0. -1.
         -2   -1    0    0    0  501 -0.00000000000E+00 -0.00000000000E+00 -0.37277552121E+03  0.37277552121E+03  0.00000000000E+00 0.  1.
         25    2    1    2    0    0  0.33286195559E+02 -0.18095699624E+02 -0.67967334455E+02  0.14731848489E+03  0.12509097601E+03 0.  0.
          5    1    3    3  502    0 -0.41742387447E+02 -0.18977214698E+02 -0.53855087087E+02  0.70854812064E+02  0.41800000000E+01 0. -1.
         -5    1    3    3    0  502  0.75028583007E+02  0.88151507439E+00 -0.14112247368E+02  0.76463672830E+02  0.41800000000E+01 0. -1.
        -11    1    1    2    0    0  0.24310712665E+01  0.52006527047E+02 -0.14829423585E+03  0.15716796541E+03  0.00000000000E+00 0.  1.
         11    1    1    2    0    0 -0.35717266826E+02 -0.33910827424E+02 -0.10700641579E+03  0.11779660601E+03  0.00000000000E+00 0. -1.
</event>
<event>
 7    1  0.2651429E-009  0.9172656E+02  0.7561462E-02  0.1298724E+00
          3   -1    0    0  501    0  0.00000000000E+00  0.00000000000E+00  0.19076161943E+03  0.19076161943E+03  0.00000000000E+00 0. -1.
         -3   -1    0    0    0  501 -0.00000000000E+00 -0.00000000000E+00 -0.76357774377E+02  0.76357774377E+02  0.00000000000E+00 0.  1.
         25    2    1    2    0    0  0.86330432252E+01  0.27059675892E+02  0.14421442793E+02  0.12907939832E+03  0.12508699998E+03 0.  0.
          5    1    3    3  502    0 -0.25769220583E+00 -0.30094664472E+02  0.51821823682E+02  0.60072697997E+02  0.41800000000E+01 0.  1.
         -5    1    3    3    0  502  0.88907354310E+01  0.57154340364E+02 -0.37400380889E+02  0.69006700324E+02  0.41800000000E+01 0.  1.
        -11    1    1    2    0    0 -0.31051425552E+00 -0.60558212210E+02  0.60604472422E+02  0.85675524876E+02  0.00000000000E+00 0.  1.
         11    1    1    2    0    0 -0.83225289697E+01  0.33498536318E+02  0.39377929838E+02  0.52364470609E+02  0.00000000000E+00 0. -1.
</event>
<event>
 7    1  0.2651429E-009  0.1413053E+03  0.7561462E-02  0.1211583E+00
         -2   -1    0    0    0  501 -0.00000000000E+00  0.00000000000E+00  0.26348182506E+03  0.26348182506E+03  0.00000000000E+00 0. -1.
          2   -1    0    0  501    0  0.00000000000E+00 -0.00000000000E+00 -0.82423198274E+02  0.82423198274E+02  0.00000000000E+00 0.  1.
         25    2    1    2    0    0 -0.82127929255E+02 -0.45898456373E+02  0.66178911335E+02  0.16993803321E+03  0.12509045433E+03 0.  0.
          5    1    3    3  502    0  0.69257897960E+01  0.30802849328E+02 -0.53419182670E+01  0.32292268143E+02  0.41800000000E+01 0. -1.
         -5    1    3    3    0  502 -0.89053719051E+02 -0.76701305701E+02  0.71520829602E+02  0.13764576506E+03  0.41800000000E+01 0. -1.
        -11    1    1    2    0    0  0.69679598457E+02 -0.14767622280E+02  0.65400976338E+02  0.96698587451E+02  0.00000000000E+00 0. -1.
         11    1    1    2    0    0  0.12448330798E+02  0.60666078653E+02  0.49478739110E+02  0.79268402676E+02  0.00000000000E+00 0.  1.
</event>
<event>
 7    1  0.2651429E-009  0.8464259E+02  0.7561462E-02  0.1316370E+00
          1   -1    0    0  501    0  0.00000000000E+00  0.00000000000E+00  0.85147607511E+03  0.85147607511E+03  0.00000000000E+00 0. -1.
         -1   -1    0    0    0  501 -0.00000000000E+00 -0.00000000000E+00 -0.14345081649E+02  0.14345081649E+02  0.00000000000E+00 0.  1.
         25    2    1    2    0    0 -0.13929096512E+02  0.95501721563E+01  0.56018738504E+03  0.57423138465E+03  0.12508617527E+03 0.  0.
          5    1    3    3  502    0 -0.20022994411E+02 -0.32920951798E+02  0.55429019431E+02  0.67635478615E+02  0.41800000000E+01 0. -1.
         -5    1    3    3    0  502  0.60938978983E+01  0.42471123954E+02  0.50475836561E+03  0.50659590603E+03  0.41800000000E+01 0. -1.
        -11    1    1    2    0    0 -0.28137620492E+02 -0.29580726465E+02  0.88358242993E+02  0.97334085345E+02  0.00000000000E+00 0. -1.
         11    1    1    2    0    0  0.42066717004E+02  0.20030554308E+02  0.18858536543E+03  0.19425568677E+03  0.00000000000E+00 0.  1.
</event>
<event>
 7    1  0.2651429E-009  0.9632259E+02  0.7561462E-02  0.1288225E+00
          2   -1    0    0  501    0  0.00000000000E+00  0.00000000000E+00  0.32610825440E+03  0.32610825440E+03  0.00000000000E+00 0. -1.
         -2   -1    0    0    0  501 -0.00000000000E+00 -0.00000000000E+00 -0.48799579525E+02  0.48799579525E+02  0.00000000000E+00 0.  1.
         25    2    1    2    0    0 -0.42428804210E+02 -0.27636748771E+02  0.88785961265E+02  0.16153909363E+03  0.12509172053E+03 0.  0.
          5    1    3    3  502    0  0.37576857989E+02 -0.37197423844E+02  0.46028532486E+02  0.70226539142E+02  0.41800000000E+01 0. -1.
         -5    1    3    3    0  502 -0.80005662199E+02  0.95606750731E+01  0.42757428779E+02  0.91312554491E+02  0.41800000000E+01 0. -1.
        -11    1    1    2    0    0  0.30849317580E+02  0.33836194150E+02  0.19385784903E+03  0.19919195280E+03  0.00000000000E+00 0. -1.
         11    1    1    2    0    0  0.11579486630E+02 -0.61994453787E+01 -0.53351354209E+01  0.14176787492E+02  0.00000000000E+00 0.  1.
</event>
<event>
 7    1  0.2651429E-009  0.1803301E+03  0.7561462E-02  0.1167484E+00
          2   -1    0    0  501    0  0.00000000000E+00  0.00000000000E+00  0.18305112649E+03  0.18305112649E+03  0.00000000000E+00 0. -1.
         -2   -1    0    0    0  501 -0.00000000000E+00 -0.00000000000E+00 -0.26735125684E+03  0.26735125684E+03  0.00000000000E+00 0.  1.
         25    2    1    2    0    0  0.17255336000E+03 -0.20137814891E+02  0.37927725070E+02  0.21740904969E+03  0.12509192188E+03 0.  0.
          5    1    3    3  502    0  0.55400889956E+02  0.25116033962E+02  0.64729592423E+02  0.88923935502E+02  0.41800000000E+01 0. -1.
         -5    1    3    3    0  502  0.11715247004E+03 -0.45253848853E+02 -0.26801867353E+02  0.12848511418E+03  0.41800000000E+01 0. -1.
        -11    1    1    2    0    0 -0.74843772379E+02  0.13881395769E+02  0.33902370892E+00  0.76120945538E+02  0.00000000000E+00 0. -1.
         11    1    1    2    0    0 -0.97709587621E+02  0.62564191216E+01 -0.12256687913E+03  0.15687238811E+03  0.00000000000E+00 0.  1.
</event>
<event>
 7    1  0.2651429E-009  0.6577832E+02  0.7561462E-02  0.1375067E+00
         -1   -1    0    0    0  501 -0.00000000000E+00  0.00000000000E+00  0.32280371432E+02  0.32280371432E+02  0.00000000000E+00 0.  1.
          1   -1    0    0  501    0  0.00000000000E+00 -0.00000000000E+00 -0.64686983864E+03  0.64686983864E+03  0.00000000000E+00 0. -1.
         25    2    1    2    0    0 -0.51831846357E+02 -0.20252191036E+02 -0.51419580599E+03  0.53211032920E+03  0.12508950395E+03 0.  0.
          5    1    3    3  502    0  0.80041108937E+01 -0.79778033367E+01 -0.41741966418E+03  0.41759353393E+03  0.41800000000E+01 0. -1.
         -5    1    3    3    0  502 -0.59835957251E+02 -0.12274387699E+02 -0.96776141813E+02  0.11451679526E+03  0.41800000000E+01 0. -1.
        -11    1    1    2    0    0  0.14011318116E+02  0.14257728453E+02  0.15300367333E+02  0.25173420438E+02  0.00000000000E+00 0.  1.
         11    1    1    2    0    0  0.37820528241E+02  0.59944625823E+01 -0.11569402855E+03  0.12186646044E+03  0.00000000000E+00 0. -1.
</event>
<event>
 7    1  0.2651429E-009  0.6486924E+02  0.7561462E-02  0.1378464E+00
         -4   -1    0    0    0  501 -0.00000000000E+00  0.00000000000E+00  0.19989408245E+03  0.19989408245E+03  0.00000000000E+00 0.  1.
          4   -1    0    0  501    0  0.00000000000E+00 -0.00000000000E+00 -0.67350464674E+02  0.67350464674E+02  0.00000000000E+00 0. -1.
         25    2    1    2    0    0 -0.30980284793E+02  0.22375520388E+02  0.96126685626E+02  0.16232379934E+03  0.12509290222E+03 0.  0.
          5    1    3    3  502    0 -0.27234397425E+02  0.53179146075E+02  0.11215761517E+03  0.12714769766E+03  0.41800000000E+01 0. -1.
         -5    1    3    3    0  502 -0.37458873676E+01 -0.30803625686E+02 -0.16030929541E+02  0.35176101682E+02  0.41800000000E+01 0. -1.
        -11    1    1    2    0    0  0.18062185647E+02 -0.10003316751E+02  0.66659765383E+02  0.69784190311E+02  0.00000000000E+00 0.  1.
         11    1    1    2    0    0  0.12918099146E+02 -0.12372203638E+02 -0.30242833238E+02  0.35136557467E+02  0.00000000000E+00 0. -1.
</event>
<event>
 7    1  0.2651429E-009  0.1132526E+03  0.7561462E-02  0.1254662E+00
         -3   -1    0    0    0  501 -0.00000000000E+00  0.00000000000E+00  0.35234442504E+03  0.35234442504E+03  0.00000000000E+00 0.  1.
          3   -1    0    0  501    0  0.00000000000E+00 -0.00000000000E+00 -0.38164028741E+02  0.38164028741E+02  0.00000000000E+00 0. -1.
         25    2    1    2    0    0  0.39714406949E+02  0.23544011313E+00  0.15740163698E+03  0.20493937634E+03  0.12509029978E+03 0.  0.
          5    1    3    3  502    0  0.79593711899E+02  0.20594141086E+02  0.12434997364E+03  0.14912969512E+03  0.41800000000E+01 0.  1.
         -5    1    3    3    0  502 -0.39879304950E+02 -0.20358700973E+02  0.33051663340E+02  0.55809681222E+02  0.41800000000E+01 0.  1.
        -11    1    1    2    0    0 -0.65544777074E+02 -0.17871299140E+02  0.11043093093E+03  0.12965528003E+03  0.00000000000E+00 0.  1.
         11    1    1    2    0    0  0.25830370125E+02  0.17635859027E+02  0.46347828394E+02  0.55913797413E+02  0.00000000000E+00 0. -1.
</event>
<event>
 7    1  0.2651429E-009  0.9695028E+02  0.7561462E-02  0.1286843E+00
          1   -1    0    0  501    0  0.00000000000E+00  0.00000000000E+00  0.57278827322E+02  0.57278827322E+02  0.00000000000E+00 0. -1.
         -1   -1    0    0    0  501 -0.00000000000E+00 -0.00000000000E+00 -0.22152893122E+03  0.22152893122E+03  0.00000000000E+00 0.  1.
         25    2    1    2    0    0  0.16287023269E+02  0.19776671180E+02 -0.67184112939E+02  0.14428353569E+03  0.12509056635E+03 0.  0.
          5    1    3    3  502    0 -0.38743734195E-01  0.59658400552E+02  0.51031636384E+01  0.60022003771E+02  0.41800000000E+01 0. -1.
         -5    1    3    3    0  502  0.16325767003E+02 -0.39881729372E+02 -0.72287276577E+02  0.84261531916E+02  0.41800000000E+01 0. -1.
        -11    1    1    2    0    0 -0.47154498446E+02  0.96740230324E+01 -0.66269025380E+02  0.81906759002E+02  0.00000000000E+00 0.  1.
         11    1    1    2    0    0  0.30867475178E+02 -0.29450694213E+02 -0.30796965581E+02  0.52617463855E+02  0.00000000000E+00 0. -1.
</event>
<event>
 7    1  0.2651429E-009  0.1039397E+03  0.7561462E-02  0.1272223E+00
         -2   -1    0    0    0  501 -0.00000000000E+00  0.00000000000E+00  0.30971811047E+02  0.30971811047E+02  0.00000000000E+00 0.  1.
          2   -1    0    0  501    0  0.00000000000E+00 -0.00000000000E+00 -0.50134336694E+03  0.50134336694E+03  0.00000000000E+00 0. -1.
         25    2    1    2    0    0  0.37104838937E+02  0.48054429917E+02 -0.28361900664E+03  0.31586923657E+03  0.12509051274E+03 0.  0.
          5    1    3    3  502    0  0.60072712248E+02  0.44443095372E+02 -0.28247178219E+03  0.29221858191E+03  0.41800000000E+01 0. -1.
         -5    1    3    3    0  502 -0.22967873311E+02  0.36113345448E+01 -0.11472244496E+01  0.23650654654E+02  0.41800000000E+01 0. -1.
        -11    1    1    2    0    0 -0.65611839464E+02 -0.47323601413E+02 -0.13889750068E+03  0.16073877075E+03  0.00000000000E+00 0.  1.
         11    1    1    2    0    0  0.28507000527E+02 -0.73082850422E+00 -0.47855048573E+02  0.55707170663E+02  0.00000000000E+00 0. -1.
</event>
<event>
 7    1  0.2651429E-009  0.9943562E+02  0.7561462E-02  0.1281487E+00
          2   -1    0    0  501    0  0.00000000000E+00  0.00000000000E+00  0.51105608887E+03  0.51105608887E+03  0.00000000000E+00 0. -1.
         -2   -1    0    0    0  501 -0.00000000000E+00 -0.00000000000E+00 -0.33058389209E+02  0.33058389209E+02  0.00000000000E+00 0.  1.
         25    2    1    2    0    0 -0.22771682459E+01 -0.69425686452E+02  0.22292994264E+03  0.26489709120E+03  0.12509035999E+03 0.  0.
          5    1    3    3  502    0 -0.40176337652E+02 -0.57934139524E+02  0.47762146649E+02  0.85259589971E+02  0.41800000000E+01 0. -1.
         -5    1    3    3    0  502  0.37899169406E+02 -0.11491546928E+02  0.17516779600E+03  0.17963750122E+03  0.41800000000E+01 0. -1.
        -11    1    1    2    0    0  0.28336743828E+02  0.31065982556E+02  0.21132573824E+03  0.21546840596E+03  0.00000000000E+00 0. -1.
         11    1    1    2    0    0 -0.26059575582E+02  0.38359703895E+02  0.43742018773E+02  0.63748980923E+02  0.00000000000E+00 0.  1.
</event>
<event>
 7    1  0.2651429E-009  0.1665209E+03  0.7561462E-02  0.1181525E+00
          2   -1    0    0  501    0  0.00000000000E+00  0.00000000000E+00  0.13096037932E+03  0.13096037932E+03  0.00000000000E+00 0. -1.
         -2   -1    0    0    0  501 -0.00000000000E+00 -0.00000000000E+00 -0.23426588844E+03  0.23426588844E+03  0.00000000000E+00 0.  1.
         25    2    1    2    0    0 -0.11843507573E+03 -0.47730328579E+02 -0.40379650398E+01  0.17879855841E+03  0.12509023902E+03 0.  0.
          5    1    3    3  502    0 -0.95016151887E+02  0.25315696876E+02  0.15244865024E+02  0.99593332796E+02  0.41800000000E+01 0. -1.
         -5    1    3    3    0  502 -0.23418923842E+02 -0.73046025456E+02 -0.19282830064E+02  0.79205225611E+02  0.41800000000E+01 0. -1.
        -11    1    1    2    0    0  0.47779857265E+02 -0.27062062981E+02 -0.34194067407E+02  0.64687744271E+02  0.00000000000E+00 0.  1.
         11    1    1    2    0    0  0.70655218464E+02  0.74792391561E+02 -0.65073476680E+02  0.12173996508E+03  0.00000000000E+00 0. -1.
</event>
<event>
 7    1  0.2651429E-009  0.1708963E+03  0.7561462E-02  0.1176916E+00
          1   -1    0    0  501    0  0.00000000000E+00  0.00000000000E+00  0.81219904323E+02  0.81219904323E+02  0.00000000000E+00 0. -1.
         -1   -1    0    0    0  501 -0.00000000000E+00 -0.00000000000E+00 -0.44236162640E+03  0.44236162640E+03  0.00000000000E+00 0.  1.
         25    2    1    2    0    0 -0.15448420850E+03 -0.53802780780E+02 -0.17187429274E+03  0.26823466941E+03  0.12509578520E+03 0.  0.
          5    1    3    3  502    0 -0.43295339812E+02 -0.41531365210E+02  0.34303423764E+01  0.60237699113E+02  0.41800000000E+01 0.  1.
         -5    1    3    3    0  502 -0.11118886869E+03 -0.12271415570E+02 -0.17530463512E+03  0.20799697030E+03  0.41800000000E+01 0.  1.
        -11    1    1    2    0    0  0.36123371970E+02 -0.67674126315E+01 -0.56865779518E+02  0.67708291637E+02  0.00000000000E+00 0.  1.
         11    1    1    2    0    0  0.11836083653E+03  0.60570193411E+02 -0.13240164982E+03  0.18763856968E+03  0.00000000000E+00 0. -1.
</event>
<event>
 7    1  0.2651429E-009  0.1252770E+03  0.7561462E-02  0.1234637E+00
         -2   -1    0    0    0  501 -0.00000000000E+00  0.00000000000E+00  0.61314581892E+03  0.61314581892E+03  0.00000000000E+00 0.  1.
          2   -1    0    0  501    0  0.00000000000E+00 -0.00000000000E+00 -0.32002500986E+02  0.32002500986E+02  0.00000000000E+00 0. -1.
         25    2    1    2    0    0 -0.61633786379E+02  0.41673809379E+02  0.20893236607E+03  0.25462970923E+03  0.12509246667E+03 0.  0.
          5    1    3    3  502    0 -0.84104868630E+02  0.68731427657E+02  0.14116904387E+03  0.17816792479E+03  0.41800000000E+01 0.  1.
         -5    1    3    3    0  502  0.22471082252E+02 -0.27057618278E+02  0.67763322204E+02  0.76461784445E+02  0.41800000000E+01 0.  1.
        -11    1    1    2    0    0  0.51141668987E+02 -0.63908027866E+02  0.34153493648E+03  0.35120623452E+03  0.00000000000E+00 0.  1.
         11    1    1    2    0    0  0.10492117392E+02  0.22234218487E+02  0.30676015383E+02  0.39312376154E+02  0.00000000000E+00 0. -1.
</event>
<event>
 7    1  0.2651429E-009  0.1385763E+03  0.7561462E-02  0.1215258E+00
         -2   -1    0    0    0  501 -0.00000000000E+00  0.00000000000E+00  0.87215432320E+03  0.87215432320E+03  0.00000000000E+00 0.  1.
          2   -1    0    0  501    0  0.00000000000E+00 -0.00000000000E+00 -0.26508229535E+02  0.26508229535E+02  0.00000000000E+00 0. -1.
         25    2    1    2    0    0 -0.25517660932E+02  0.92230011950E+02  0.58138037128E+03  0.60233523569E+03  0.12508826452E+03 0.  0.
          5    1    3    3  502    0  0.45192060435E+02  0.16781802945E+02  0.11793352164E+03  0.12747446475E+03  0.41800000000E+01 0. -1.
         -5    1    3    3    0  502 -0.70709721366E+02  0.75448209005E+02  0.46344684964E+03  0.47486077094E+03  0.41800000000E+01 0. -1.
        -11    1    1    2    0    0  0.48246373438E+02 -0.90406389634E+02  0.16307414064E+03  0.19259855447E+03  0.00000000000E+00 0. -1.
         11    1    1    2    0    0 -0.22728712507E+02 -0.18236223160E+01  0.10119158174E+03  0.10372876258E+03  0.00000000000E+00 0.  1.
</event>
<event>
 7    1  0.2651429E-009  0.1334802E+03  0.7561462E-02  0.1222381E+00
         -2   -1    0    0    0  501 -0.00000000000E+00  0.00000000000E+00  0.16922485744E+02  0.16922485744E+02  0.00000000000E+00 0.  1.
          2   -1    0    0  501    0  0.00000000000E+00 -0.00000000000E+00 -0.11041951280E+04  0.11041951280E+04  0.00000000000E+00 0. -1.
         25    2    1    2    0    0 -0.74470032092E+02 -0.29603798744E+02 -0.67042550864E+03  0.68668760667E+03  0.12508931183E+03 0.  0.
          5    1    3    3  502    0  0.26280867745E+02  0.21083942462E+02 -0.20372692888E+03  0.20653655994E+03  0.41800000000E+01 0.  1.
         -5    1    3    3    0  502 -0.10075089984E+03 -0.50687741206E+02 -0.46669857976E+03  0.48015104673E+03  0.41800000000E+01 0.  1.
        -11    1    1    2    0    0  0.95457323976E+02  0.24244421244E+02 -0.30508371005E+03  0.32058690367E+03  0.00000000000E+00 0.  1.
         11    1    1    2    0    0 -0.20987291883E+02  0.53593774997E+01 -0.11176342356E+03  0.11384310341E+03  0.00000000000E+00 0. -1.
</event>
<event>
 7    1  0.2651429E-009  0.1466121E+03  0.7561462E-02  0.1204699E+00
         -1   -1    0    0    0  501 -0.00000000000E+00  0.00000000000E+00  0.90038972829E+03  0.90038972829E+03  0.00000000000E+00 0.  1.
          1   -1    0    0  501    0  0.00000000000E+00 -0.00000000000E+00 -0.38868188025E+02  0.38868188025E+02  0.00000000000E+00 0. -1.
         25    2    1    2    0    0  0.40478119840E+02  0.13110396150E+03  0.29294083488E+03  0.34682510151E+03  0.12508633577E+03 0.  0.
          5    1    3    3  502    0  0.24377119640E+02  0.74608620872E+02  0.27386182599E+03  0.28491834340E+03  0.41800000000E+01 0.  1.
         -5    1    3    3    0  502  0.16101000200E+02  0.56495340627E+02  0.19079008884E+02  0.61906758113E+02  0.41800000000E+01 0.  1.
        -11    1    1    2    0    0  0.21612376633E+02 -0.40252712029E+02  0.85115343550E+02  0.96602263726E+02  0.00000000000E+00 0. -1.
         11    1    1    2    0    0 -0.62090496473E+02 -0.90851249470E+02  0.48346536184E+03  0.49583055108E+03  0.00000000000E+00 0.  1.
</event>
<event>
 7    1  0.2651429E-009  0.1350946E+03  0.7561462E-02  0.1220086E+00
         -1   -1    0    0    0  501 -0.00000000000E+00  0.00000000000E+00  0.13165609108E+03  0.13165609108E+03  0.00000000000E+00 0.  1.
          1   -1    0    0  501    0  0.00000000000E+00 -0.00000000000E+00 -0.16348469378E+03  0.16348469378E+03  0.00000000000E+00 0. -1.
         25    2    1    2    0    0  0.93634687361E+02 -0.41327902444E+01  0.24628510821E+01  0.15632506074E+03  0.12508766665E+03 0.  0.
          5    1    3    3  502    0  0.10282058270E+03  0.32651855492E+02 -0.23103058269E+02  0.11040579511E+03  0.41800000000E+01 0. -1.
         -5    1    3    3    0  502 -0.91858953339E+01 -0.36784645737E+02  0.25565909351E+02  0.45919265630E+02  0.41800000000E+01 0. -1.
        -11    1    1    2    0    0 -0.54896526829E+02 -0.38063939846E+02 -0.44995362197E+02  0.80542378868E+02  0.00000000000E+00 0. -1.
         11    1    1    2    0    0 -0.38738160532E+02  0.42196730091E+02  0.10703908414E+02  0.58273345254E+02  0.00000000000E+00 0.  1.
</event>
<event>
 7    1  0.2651429E-009  0.9012754E+02  0.7561462E-02  0.1302543E+00
          2   -1    0    0  501    0  0.00000000000E+00  0.00000000000E+00  0.17351420971E+03  0.17351420971E+03  0.00000000000E+00 0. -1.
         -2   -1    0    0    0  501 -0.00000000000E+00 -0.00000000000E+00 -0.91264344620E+02  0.91264344620E+02  0.00000000000E+00 0.  1.
         25    2    1    2    0    0 -0.29337859637E+02 -0.55537517767E+02  0.25793228961E+02  0.14233414377E+03  0.12509433214E+03 0.  0.
          5    1    3    3  502    0 -0.55748778769E+01 -0.53016478792E+02 -0.43490884774E+02  0.68925726295E+02  0.41800000000E+01 0. -1.
         -5    1    3    3    0  502 -0.23762981761E+02 -0.25210389750E+01  0.69284113735E+02  0.73408417472E+02  0.41800000000E+01 0. -1.
        -11    1    1    2    0    0  0.73900480852E+01 -0.21335298306E+02  0.31380399658E+02  0.38659245301E+02  0.00000000000E+00 0. -1.
         11    1    1    2    0    0  0.21947811552E+02  0.76872816073E+02  0.25076236473E+02  0.83785165265E+02  0.00000000000E+00 0.  1.
</event>
<event>
 7    1  0.2651429E-009  0.1188529E+03  0.7561462E-02  0.1245001E+00
         -1   -1    0    0    0  501 -0.00000000000E+00  0.00000000000E+00  0.55645552711E+02  0.55645552711E+02  0.00000000000E+00 0.  1.
          1   -1    0    0  501    0  0.00000000000E+00 -0.00000000000E+00 -0.28045329412E+03  0.28045329412E+03  0.00000000000E+00 0. -1.
         25    2    1    2    0    0 -0.62241467640E+01 -0.72521035510E+02 -0.14463032430E+03  0.20460331662E+03  0.12508615379E+03 0.  0.
          5    1    3    3  502    0 -0.50927965974E+02 -0.84049661627E+02 -0.97671676298E+02  0.13861901777E+03  0.41800000000E+01 0. -1.
         -5    1    3    3    0  502  0.44703819210E+02  0.11528626117E+02 -0.46958648004E+02  0.65984298848E+02  0.41800000000E+01 0. -1.
        -11    1    1    2    0    0 -0.25900906366E+02  0.35962130555E+02 -0.89248868481E+01  0.45208244711E+02  0.00000000000E+00 0.  1.
         11    1    1    2    0    0  0.32125053130E+02  0.36558904955E+02 -0.71252530256E+02  0.86287285494E+02  0.00000000000E+00 0. -1.
</event>
<event>
 7    1  0.3916493E-009  0.1118390E+03  0.7561462E-02  0.1257202E+00
          1   -1    0    0  501    0  0.00000000000E+00  0.00000000000E+00  0.27189805179E+03  0.27189805179E+03  0.00000000000E+00 0. -1.
         -1   -1    0    0    0  501 -0.00000000000E+00 -0.00000000000E+00 -0.83216416974E+02  0.83216416974E+02  0.00000000000E+00 0.  1.
         25    2    1    2    0    0 -0.56935797327E+02 -0.82113049833E+02  0.13522587490E+03  0.20956562368E+03  0.12508986937E+03 0.  0.
          5    1    3    3  502    0 -0.39958633452E+02 -0.19835522786E+02  0.13772688807E+03  0.14483200077E+03  0.41800000000E+01 0. -1.
         -5    1    3    3    0  502 -0.16977163875E+02 -0.62277527046E+02 -0.25010131699E+01  0.64733622910E+02  0.41800000000E+01 0. -1.
        -11    1    1    2    0    0 -0.11205655361E+02  0.11638723432E+02 -0.18039564813E+02  0.24216781244E+02  0.00000000000E+00 0.  1.
         11    1    1    2    0    0  0.68141452687E+02  0.70474326401E+02  0.71495324733E+02  0.12133206384E+03  0.00000000000E+00 0. -1.
</event>
<event>
 7    1  0.2651429E-009  0.1226116E+03  0.7561462E-02  0.1238850E+00
         -2   -1    0    0    0  501 -0.00000000000E+00  0.00000000000E+00  0.51955605692E+02  0.51955605692E+02  0.00000000000E+00 0.  1.
          2   -1    0    0  501    0  0.00000000000E+00 -0.00000000000E+00 -0.35779674014E+03  0.35779674014E+03  0.00000000000E+00 0. -1.
         25    2    1    2    0    0 -0.39879358856E+02  0.68625789727E+02 -0.13427977962E+03  0.19994767949E+03  0.12509257788E+03 0.  0.
          5    1    3    3  502    0 -0.57851460087E+02  0.97089058821E+02 -0.92319062628E+02  0.14599095349E+03  0.41800000000E+01 0.  1.
         -5    1    3    3    0  502  0.17972101232E+02 -0.28463269094E+02 -0.41960716993E+02  0.53956726001E+02  0.41800000000E+01 0.  1.
        -11    1    1    2    0    0  0.18982626604E+02  0.66274263588E+01  0.12696652014E+01  0.20146338195E+02  0.00000000000E+00 0.  1.
         11    1    1    2    0    0  0.20896732251E+02 -0.75253216086E+02 -0.17283102003E+03  0.18965832814E+03  0.00000000000E+00 0. -1.
</event>
<event>
 7    1  0.2651429E-009  0.2070231E+03  0.7561462E-02  0.1143945E+00
          1   -1    0    0  501    0  0.00000000000E+00  0.00000000000E+00  0.66606036055E+03  0.66606036055E+03  0.00000000000E+00 0. -1.
         -1   -1    0    0    0  501 -0.00000000000E+00 -0.00000000000E+00 -0.81856656878E+02  0.81856656878E+02  0.00000000000E+00 0.  1.
         25    2    1    2    0    0  0.13859175961E+03 -0.13955032383E+03  0.40069313939E+03  0.46355628803E+03  0.12508985375E+03 0.  0.
          5    1    3    3  502    0  0.64345300659E+02 -0.73300624033E+02  0.32244540594E+03  0.33690029892E+03  0.41800000000E+01 0. -1.
         -5    1    3    3    0  502  0.74246458947E+02 -0.66249699795E+02  0.78247733452E+02  0.12665598912E+03  0.41800000000E+01 0. -1.
        -11    1    1    2    0    0  0.12187408697E+02  0.23806095702E+02  0.17238524079E+02  0.31818702609E+02  0.00000000000E+00 0.  1.
         11    1    1    2    0    0 -0.15077916830E+03  0.11574422813E+03  0.16627204021E+03  0.25254202679E+03  0.00000000000E+00 0. -1.
</event>
<event>
 7    1  0.2651429E-009  0.6746263E+02  0.7561462E-02  0.1368940E+00
          1   -1    0    0  501    0  0.00000000000E+00  0.00000000000E+00  0.11055088130E+03  0.11055088130E+03  0.00000000000E+00 0. -1.
         -1   -1    0    0    0  501 -0.00000000000E+00 -0.00000000000E+00 -0.11881984041E+03  0.11881984041E+03  0.00000000000E+00 0.  1.
         25    2    1    2    0    0  0.90514187242E+01 -0.28567123885E+02 -0.31645128107E+02  0.13246379571E+03  0.12508890555E+03 0.  0.
          5    1    3    3  502    0 -0.25256346230E+02 -0.48867574732E+01 -0.70599438123E+02  0.75256338515E+02  0.41800000000E+01 0.  1.
         -5    1    3    3    0  502  0.34307764954E+02 -0.23680366412E+02  0.38954310015E+02  0.57207457191E+02  0.41800000000E+01 0.  1.
        -11    1    1    2    0    0  0.20833109982E+02  0.30594545285E+02  0.46236243548E+02  0.59226977723E+02  0.00000000000E+00 0. -1.
         11    1    1    2    0    0 -0.29884528706E+02 -0.20274214000E+01 -0.22860074549E+02  0.37679948274E+02  0.00000000000E+00 0.  1.
</event>
<event>
 7    1  0.4071171E-009  0.1034408E+03  0.7561462E-02  0.1273222E+00
          1   -1    0    0  501    0  0.00000000000E+00  0.00000000000E+00  0.23052337403E+03  0.23052337403E+03  0.00000000000E+00 0. -1.
         -1   -1    0    0    0  501 -0.00000000000E+00 -0.00000000000E+00 -0.92891066687E+02  0.92891066687E+02  0.00000000000E+00 0.  1.
         25    2    1    2    0    0  0.92929860905E+02 -0.26374658203E+02  0.92460711369E+02  0.18310668455E+03  0.12508994020E+03 0.  0.
          5    1    3    3  502    0  0.68121692645E+02  0.89520845964E+00 -0.14599665323E+02  0.69799634917E+02  0.41800000000E+01 0.  1.
         -5    1    3    3    0  502  0.24808168260E+02 -0.27269866662E+02  0.10706037669E+03  0.11330704964E+03  0.41800000000E+01 0.  1.
        -11    1    1    2    0    0 -0.59298076108E+02  0.85192863544E+00 -0.20060244594E+02  0.62605119804E+02  0.00000000000E+00 0.  1.
         11    1    1    2    0    0 -0.33631784796E+02  0.25522729567E+02  0.65231840565E+02  0.77702636356E+02  0.00000000000E+00 0. -1.
</event>
<event>
 7    1  0.2651429E-009  0.1034252E+03  0.7561462E-02  0.1273254E+00
          4   -1    0    0  501    0  0.00000000000E+00  0.00000000000E+00  0.34342334694E+03  0.34342334694E+03  0.00000000000E+00 0. -1.
         -4   -1    0    0    0  501 -0.00000000000E+00 -0.00000000000E+00 -0.77833328750E+02  0.77833328750E+02  0.00000000000E+00 0.  1.
         25    2    1    2    0    0  0.77206976619E+02  0.12207451316E+01  0.20355635446E+02  0.14840515570E+03  0.12508929166E+03 0.  0.
          5    1    3    3  502    0  0.79787163993E+02 -0.87264434176E+01  0.64396816108E+02  0.10298817737E+03  0.41800000000E+01 0.  1.
         -5    1    3    3    0  502 -0.25801873737E+01  0.99471885492E+01 -0.44041180662E+02  0.45416978335E+02  0.41800000000E+01 0.  1.
        -11    1    1    2    0    0 -0.93198282553E+02  0.12855412887E+02  0.22312371095E+03  0.24214741770E+03  0.00000000000E+00 0. -1.
         11    1    1    2    0    0  0.15991305934E+02 -0.14076158018E+02  0.22110671795E+02  0.30704102287E+02  0.00000000000E+00 0.  1.
</event>
<event>
 7    1  0.2709607E-009  0.7582745E+02  0.7561462E-02  0.1341328E+00
         -1   -1    0    0    0  501 -0.00000000000E+00  0.00000000000E+00  0.15407681001E+03  0.15407681001E+03  0.00000000000E+00 0.  1.
          1   -1    0    0  501    0  0.00000000000E+00 -0.00000000000E+00 -0.89587232287E+02  0.89587232287E+02  0.00000000000E+00 0. -1.
         25    2    1    2    0    0 -0.42748122808E+01  0.21429103671E+02  0.77455458915E+02  0.14874005165E+03  0.12508706705E+03 0.  0.
          5    1    3    3  502    0 -0.27598306485E+02  0.19517484886E+02 -0.25834908897E+02  0.42749428708E+02  0.41800000000E+01 0. -1.
         -5    1    3    3    0  502  0.23323494205E+02  0.19116187851E+01  0.10329036781E+03  0.10599062294E+03  0.41800000000E+01 0. -1.
        -11    1    1    2    0    0  0.45612904368E+02  0.31639727179E+01 -0.94983384384E+01  0.46698674514E+02  0.00000000000E+00 0. -1.
         11    1    1    2    0    0 -0.41338092087E+02 -0.24593076389E+02 -0.34675427525E+01  0.48225316136E+02  0.00000000000E+00 0.  1.
</event>
<event>
 7    1  0.2651429E-009  0.1916589E+03  0.7561462E-02  0.1156974E+00
         -1   -1    0    0    0  501 -0.00000000000E+00  0.00000000000E+00  0.65316123956E+03  0.65316123956E+03  0.00000000000E+00 0.  1.
          1   -1    0    0  501    0  0.00000000000E+00 -0.00000000000E+00 -0.66591560796E+02  0.66591560796E+02  0.00000000000E+00 0. -1.
         25    2    1    2    0    0  0.13577986738E+03  0.11317274173E+03  0.29629382421E+03  0.36699409275E+03  0.12510152673E+03 0.  0.
          5    1    3    3  502    0  0.90293476230E+02  0.12676808007E+03  0.27222408765E+03  0.31360243026E+03  0.41800000000E+01 0. -1.
         -5    1    3    3    0  502  0.45486391151E+02 -0.13595338340E+02  0.24069736566E+02  0.53391662485E+02  0.41800000000E+01 0. -1.
        -11    1    1    2    0    0 -0.47134169326E+02 -0.61063084697E+02  0.20546574464E+03  0.21946868216E+03  0.00000000000E+00 0.  1.
         11    1    1    2    0    0 -0.88645698055E+02 -0.52109657031E+02  0.84810109922E+02  0.13329002545E+03  0.00000000000E+00 0. -1.
</event>
<event>
 7    1  0.2651429E-009  0.1298527E+03  0.7561462E-02  0.1227674E+00
         -2   -1    0    0    0  501 -0.00000000000E+00  0.00000000000E+00  0.19632819449E+02  0.19632819449E+02  0.00000000000E+00 0.  1.
          2   -1    0    0  501    0  0.00000000000E+00 -0.00000000000E+00 -0.97011852057E+03  0.97011852057E+03  0.00000000000E+00 0. -1.
         25    2    1    2    0    0  0.54307119114E+02 -0.64881231350E+02 -0.49793405818E+03  0.52032418025E+03  0.12506034101E+03 0.  0.
          5    1    3    3  502    0  0.79772046329E+02 -0.80081276629E+02 -0.44834262635E+03  0.46239071492E+03  0.41800000000E+01 0.  1.
         -5    1    3    3    0  502 -0.25464927215E+02  0.15200045279E+02 -0.49591431832E+02  0.57933465335E+02  0.41800000000E+01 0.  1.
        -11    1    1    2    0    0  0.14075074846E+02 -0.84183450574E+01 -0.22477457236E+02  0.27824671592E+02  0.00000000000E+00 0.  1.
         11    1    1    2    0    0 -0.68382193960E+02  0.73299576407E+02 -0.43007418571E+03  0.44160248818E+03  0.00000000000E+00 0. -1.
</event>
<event>
 7    1  0.2651429E-009  0.1827908E+03  0.7561462E-02  0.1165129E+00
          4   -1    0    0  501    0  0.00000000000E+00  0.00000000000E+00  0.25892303740E+03  0.25892303740E+03  0.00000000000E+00 0. -1.
         -4   -1    0    0    0  501 -0.00000000000E+00 -0.00000000000E+00 -0.21080620269E+03  0.21080620269E+03  0.00000000000E+00 0.  1.
         25    2    1    2    0    0  0.14478022834E+03 -0.83447246547E+02  0.14624742875E+03  0.25487349781E+03  0.12508969579E+03 0.  0.
          5    1    3    3  502    0  0.15937615854E+02  0.19917303298E+02  0.66610102989E+02  0.71449876067E+02  0.41800000000E+01 0. -1.
         -5    1    3    3    0  502  0.12884261249E+03 -0.10336454984E+03  0.79637325765E+02  0.18342362174E+03  0.41800000000E+01 0. -1.
        -11    1    1    2    0    0 -0.93562238923E+02  0.25119831406E+02 -0.99623900213E+01  0.97386588897E+02  0.00000000000E+00 0. -1.
         11    1    1    2    0    0 -0.51217989419E+02  0.58327415141E+02 -0.88168204027E+02  0.11746915339E+03  0.00000000000E+00 0.  1.
</event>
<event>
 7    1  0.2651429E-009  0.9318659E+02  0.7561462E-02  0.1295313E+00
         -2   -1    0    0    0  501 -0.00000000000E+00  0.00000000000E+00  0.62116842594E+02  0.62116842594E+02  0.00000000000E+00 0.  1.
          2   -1    0    0  501    0  0.00000000000E+00 -0.00000000000E+00 -0.29558635529E+03  0.29558635529E+03  0.00000000000E+00 0. -1.
         25    2    1    2    0    0  0.69874457181E+02 -0.33332049436E+02 -0.99030038164E+02  0.17733524006E+03  0.12508946247E+03 0.  0.
          5    1    3    3  502    0  0.61164197440E+02 -0.15651932063E+02  0.12077550559E+02  0.64415694153E+02  0.41800000000E+01 0. -1.
         -5    1    3    3    0  502  0.87102597413E+01 -0.17680117372E+02 -0.11110758872E+03  0.11291954590E+03  0.41800000000E+01 0. -1.
        -11    1    1    2    0    0 -0.74236162872E+02  0.51281929835E+01 -0.46106783931E+02  0.87539372660E+02  0.00000000000E+00 0.  1.
         11    1    1    2    0    0  0.43617056910E+01  0.28203856452E+02 -0.88332690606E+02  0.92828585171E+02  0.00000000000E+00 0. -1.
</event>
<event>
 7    1  0.2651429E-009  0.9989039E+02  0.7561462E-02  0.1280527E+00
          2   -1    0    0  501    0  0.00000000000E+00  0.00000000000E+00  0.29949644163E+03  0.29949644163E+03  0.00000000000E+00 0. -1.
         -2   -1    0    0    0  501 -0.00000000000E+00 -0.00000000000E+00 -0.74083038546E+02  0.74083038546E+02  0.00000000000E+00 0.  1.
         25    2    1    2    0    0 -0.53659763082E-01  0.48186861993E+01  0.22297033993E+03  0.25571745815E+03  0.12510964510E+03 0.  0.
          5    1    3    3  502    0 -0.53593401940E+02 -0.13904228253E+02  0.54083821470E+02  0.77512014808E+02  0.41800000000E+01 0.  1.
         -5    1    3    3    0  502  0.53539742177E+02  0.18722914452E+02  0.16888651846E+03  0.17820544334E+03  0.41800000000E+01 0.  1.
        -11    1    1    2    0    0  0.31235597663E+00  0.41281030492E+02  0.40687632513E+02  0.57962957863E+02  0.00000000000E+00 0. -1.
         11    1    1    2    0    0 -0.25869621355E+00 -0.46099716691E+02 -0.38244569358E+02  0.59899064167E+02  0.00000000000E+00 0.  1.
</event>
<event>
 7    1  0.2651429E-009  0.1272983E+03  0.7561462E-02  0.1231520E+00
         -2   -1    0    0    0  501 -0.00000000000E+00  0.00000000000E+00  0.58056801874E+02  0.58056801874E+02  0.00000000000E+00 0. -1.
          2   -1    0    0  501    0  0.00000000000E+00 -0.00000000000E+00 -0.29577580009E+03  0.29577580009E+03  0.00000000000E+00 0.  1.
         25    2    1    2    0    0 -0.97344582791E+01  0.67664176673E+02 -0.92856777778E+02  0.17012845296E+03  0.12509240123E+03 0.  0.
          5    1    3    3  502    0  0.33317982494E+02 -0.23355579549E+02 -0.18507638556E+02  0.44895168320E+02  0.41800000000E+01 0. -1.
         -5    1    3    3    0  502 -0.43052440773E+02  0.91019756222E+02 -0.74349139223E+02  0.12523328464E+03  0.41800000000E+01 0. -1.
        -11    1    1    2    0    0 -0.11795932212E+02 -0.84666768528E+02 -0.11199556994E+03  0.14089220488E+03  0.00000000000E+00 0.  1.
         11    1    1    2    0    0  0.21530390491E+02  0.17002591855E+02 -0.32866650494E+02  0.42811944119E+02  0.00000000000E+00 0. -1.
</event>
<event>
 7    1  0.2651429E-009  0.9545799E+02  0.7561462E-02  0.1290148E+00
          1   -1    0    0  501    0  0.00000000000E+00  0.00000000000E+00  0.15651722563E+03  0.15651722563E+03  0.00000000000E+00 0. -1.
         -1   -1    0    0    0  501 -0.00000000000E+00 -0.00000000000E+00 -0.96695583550E+02  0.96695583550E+02  0.00000000000E+00 0.  1.
         25    2    1    2    0    0  0.24509581068E+02  0.42207326591E+02  0.61331425344E+02  0.14762637239E+03  0.12509925703E+03 0.  0.
          5    1    3    3  502    0  0.39734638203E+02  0.57414694524E+02 -0.12104983678E+02  0.70987968349E+02  0.41800000000E+01 0.  1.
         -5    1    3    3    0  502 -0.15225057135E+02 -0.15207367933E+02  0.73436409022E+02  0.76638404044E+02  0.41800000000E+01 0.  1.
        -11    1    1    2    0    0 -0.21195168037E+02  0.24420854827E+02 -0.17805931331E+02  0.36914285705E+02  0.00000000000E+00 0. -1.
         11    1    1    2    0    0 -0.33144130312E+01 -0.66628181418E+02  0.16296148071E+02  0.68672151086E+02  0.00000000000E+00 0.  1.
</event>
<event>
 7    1  0.2651429E-009  0.1106558E+03  0.7561462E-02  0.1259360E+00
         -2   -1    0    0    0  501 -0.00000000000E+00  0.00000000000E+00  0.36538093108E+02  0.36538093108E+02  0.00000000000E+00 0.  1.
          2   -1    0    0  501    0  0.00000000000E+00 -0.00000000000E+00 -0.60218333411E+03  0.60218333411E+03  0.00000000000E+00 0. -1.
         25    2    1    2    0    0  0.24786016903E+02  0.50592204050E+02 -0.48876080019E+03  0.50764987006E+03  0.12508938017E+03 0.  0.
          5    1    3    3  502    0 -0.29500721441E+01  0.89190189980E+02 -0.30750829630E+03  0.32022245020E+03  0.41800000000E+01 0.  1.
         -5    1    3    3    0  502  0.27736089047E+02 -0.38597985930E+02 -0.18125250388E+03  0.18742741987E+03  0.41800000000E+01 0.  1.
        -11    1    1    2    0    0 -0.20348060097E+02  0.10575938836E+02 -0.64566167338E+02  0.68517764096E+02  0.00000000000E+00 0. -1.
         11    1    1    2    0    0 -0.44379568062E+01 -0.61168142885E+02 -0.12318273476E+02  0.62553793059E+02  0.00000000000E+00 0.  1.
</event>
<event>
 7    1  0.2651429E-009  0.9621279E+02  0.7561462E-02  0.1288468E+00
          1   -1    0    0  501    0  0.00000000000E+00  0.00000000000E+00  0.81941952006E+03  0.81941952006E+03  0.00000000000E+00 0. -1.
         -1   -1    0    0    0  501 -0.00000000000E+00 -0.00000000000E+00 -0.15472709201E+02  0.15472709201E+02  0.00000000000E+00 0.  1.
         25    2    1    2    0    0  0.46174808064E+01  0.27305673067E+02  0.51728992994E+03  0.53291864646E+03  0.12508593533E+03 0.  0.
          5    1    3    3  502    0 -0.43883565886E+02  0.25270731023E+02  0.94181228133E+02  0.10701379974E+03  0.41800000000E+01 0. -1.
         -5    1    3    3    0  502  0.48501046692E+02  0.20349420435E+01  0.42310870181E+03  0.42590484672E+03  0.41800000000E+01 0. -1.
        -11    1    1    2    0    0  0.41138608582E+02 -0.22481217428E+02  0.11332335685E+03  0.12263756953E+03  0.00000000000E+00 0.  1.
         11    1    1    2    0    0 -0.45756089388E+02 -0.48244556382E+01  0.17333352407E+03  0.17933601327E+03  0.00000000000E+00 0. -1.
</event>
<event>
 7    1  0.2651429E-009  0.5859292E+02  0.7561462E-02  0.1403833E+00
         -2   -1    0    0    0  501 -0.00000000000E+00  0.00000000000E+00  0.10596278523E+03  0.10596278523E+03  0.00000000000E+00 0.  1.
          2   -1    0    0  501    0  0.00000000000E+00 -0.00000000000E+00 -0.13769380519E+03  0.13769380519E+03  0.00000000000E+00 0. -1.
         25    2    1    2    0    0 -0.41106084281E+02  0.61812527805E+01 -0.50114304532E+02  0.14101822830E+03  0.12508708624E+03 0.  0.
          5    1    3    3  502    0 -0.51009849063E+02 -0.36079842993E+01  0.30107789539E+02  0.59489273344E+02  0.41800000000E+01 0.  1.
         -5    1    3    3    0  502  0.99037647818E+01  0.97892370799E+01 -0.80222094072E+02  0.81528954959E+02  0.41800000000E+01 0.  1.
        -11    1    1    2    0    0  0.13455400153E+02  0.12178111686E+02  0.52194023301E+02  0.55259119301E+02  0.00000000000E+00 0.  1.
         11    1    1    2    0    0  0.27650684128E+02 -0.18359364467E+02 -0.33810738734E+02  0.47379242819E+02  0.00000000000E+00 0. -1.
</event>
<event>
 7    1  0.2651429E-009  0.1571816E+03  0.7561462E-02  0.1191916E+00
         -2   -1    0    0    0  501 -0.00000000000E+00  0.00000000000E+00  0.23888388047E+02  0.23888388047E+02  0.00000000000E+00 0. -1.
          2   -1    0    0  501    0  0.00000000000E+00 -0.00000000000E+00 -0.13459388231E+04  0.13459388231E+04  0.00000000000E+00 0.  1.
         25    2    1    2    0    0  0.25826022640E+02 -0.14065349051E+03 -0.71074310669E+03  0.73569983316E+03  0.12509233775E+03 0.  0.
          5    1    3    3  502    0  0.21252237613E+02 -0.68809916676E+01 -0.35271708470E+03  0.35344846851E+03  0.41800000000E+01 0.  1.
         -5    1    3    3    0  502  0.45737850266E+01 -0.13377249884E+03 -0.35802602199E+03  0.38225136465E+03  0.41800000000E+01 0.  1.
        -11    1    1    2    0    0 -0.48516655977E+02  0.90881718407E+02 -0.49489597701E+03  0.50550507486E+03  0.00000000000E+00 0.  1.
         11    1    1    2    0    0  0.22690633337E+02  0.49771772105E+02 -0.11641135141E+03  0.12862230318E+03  0.00000000000E+00 0. -1.
</event>
<event>
 7    1  0.2651429E-009  0.1252803E+03  0.7561462E-02  0.1234632E+00
         -1   -1    0    0    0  501 -0.00000000000E+00  0.00000000000E+00  0.72635222015E+02  0.72635222015E+02  0.00000000000E+00 0.  1.
          1   -1    0    0  501    0  0.00000000000E+00 -0.00000000000E+00 -0.27372330444E+03  0.27372330444E+03  0.00000000000E+00 0. -1.
         25    2    1    2    0    0  0.10771550106E+02  0.64391362040E+02 -0.33408874231E+02  0.14500381291E+03  0.12509068344E+03 0.  0.
          5    1    3    3  502    0  0.64400941818E+02  0.58171693015E+02 -0.22763862433E+02  0.89816997323E+02  0.41800000000E+01 0.  1.
         -5    1    3    3    0  502 -0.53629391712E+02  0.62196690255E+01 -0.10645011798E+02  0.55186815585E+02  0.41800000000E+01 0.  1.
        -11    1    1    2    0    0  0.37756621912E+02 -0.16043152891E+02 -0.45354593073E+02  0.61155411581E+02  0.00000000000E+00 0.  1.
         11    1    1    2    0    0 -0.48528172018E+02 -0.48348209149E+02 -0.12232461513E+03  0.14019930197E+03  0.00000000000E+00 0. -1.
</event>
<event>
 7    1  0.2651429E-009  0.1890399E+03  0.7561462E-02  0.1159330E+00
          1   -1    0    0  501    0  0.00000000000E+00  0.00000000000E+00  0.44385826496E+02  0.44385826496E+02  0.00000000000E+00 0. -1.
         -1   -1    0    0    0  501 -0.00000000000E+00 -0.00000000000E+00 -0.94155743567E+03  0.94155743567E+03  0.00000000000E+00 0.  1.
         25    2    1    2    0    0 -0.10020945024E+03 -0.13395192962E+03 -0.36925121120E+03  0.42424562137E+03  0.12511129810E+03 0.  0.
          5    1    3    3  502    0 -0.10073421346E+03 -0.31353365133E+02 -0.20361728564E+03  0.22936409195E+03  0.41800000000E+01 0.  1.
         -5    1    3    3    0  502  0.52476321211E+00 -0.10259856449E+03 -0.16563392556E+03  0.19488152941E+03  0.41800000000E+01 0.  1.
        -11    1    1    2    0    0  0.98549103941E+02  0.11785318693E+03 -0.52252030067E+03  0.54463635958E+03  0.00000000000E+00 0.  1.
         11    1    1    2    0    0  0.16603463030E+01  0.16098742694E+02 -0.54000973088E+01  0.17061281227E+02  0.00000000000E+00 0. -1.
</event>
<event>
 7    1  0.2651429E-009  0.1657487E+03  0.7561462E-02  0.1182355E+00
          2   -1    0    0  501    0  0.00000000000E+00  0.00000000000E+00  0.81228867651E+02  0.81228867651E+02  0.00000000000E+00 0. -1.
         -2   -1    0    0    0  501 -0.00000000000E+00 -0.00000000000E+00 -0.47020753267E+03  0.47020753267E+03  0.00000000000E+00 0.  1.
         25    2    1    2    0    0 -0.13862739079E+03 -0.49511126465E+02 -0.30177079883E+03  0.35830176058E+03  0.12508249873E+03 0.  0.
          5    1    3    3  502    0 -0.39663673816E+02 -0.68086704459E+02 -0.20032903397E+03  0.21530954599E+03  0.41800000000E+01 0.  1.
         -5    1    3    3    0  502 -0.98963716974E+02  0.18575577993E+02 -0.10144176486E+03  0.14299221459E+03  0.41800000000E+01 0.  1.
        -11    1    1    2    0    0  0.10484746545E+03  0.53652860612E+02 -0.22335298607E+02  0.11987696204E+03  0.00000000000E+00 0. -1.
         11    1    1    2    0    0  0.33779925340E+02 -0.41417341468E+01 -0.64872567582E+02  0.73257677702E+02  0.00000000000E+00 0.  1.
</event>
<event>
 7    1  0.2651429E-009  0.1496371E+03  0.7561462E-02  0.1200920E+00
         -2   -1    0    0    0  501 -0.00000000000E+00  0.00000000000E+00  0.28427273319E+02  0.28427273319E+02  0.00000000000E+00 0.  1.
          2   -1    0    0  501    0  0.00000000000E+00 -0.00000000000E+00 -0.11800578010E+04  0.11800578010E+04  0.00000000000E+00 0. -1.
         25    2    1    2    0    0  0.60821881813E+02  0.11622975551E+03 -0.84349946912E+03  0.86275578674E+03  0.12509011060E+03 0.  0.
          5    1    3    3  502    0  0.74326787956E+02  0.37968053954E+02 -0.24201911953E+03  0.25604056543E+03  0.41800000000E+01 0. -1.
         -5    1    3    3    0  502 -0.13504906144E+02  0.78261701556E+02 -0.60148034959E+03  0.60671522130E+03  0.41800000000E+01 0. -1.
        -11    1    1    2    0    0 -0.14076705024E+02 -0.66316226532E+02 -0.67882270698E+02  0.95937470265E+02  0.00000000000E+00 0.  1.
         11    1    1    2    0    0 -0.46745176789E+02 -0.49913528978E+02 -0.24024878784E+03  0.24979181729E+03  0.00000000000E+00 0. -1.
</event>
<event>
 7    1  0.3184114E-009  0.9740285E+02  0.7561462E-02  0.1285854E+00
          2   -1    0    0  501    0  0.00000000000E+00  0.00000000000E+00  0.30673075777E+03  0.30673075777E+03  0.00000000000E+00 0. -1.
         -2   -1    0    0    0  501 -0.00000000000E+00 -0.00000000000E+00 -0.59274022497E+02  0.59274022497E+02  0.00000000000E+00 0.  1.
         25    2    1    2    0    0 -0.51217320103E+02 -0.32918072637E+02  0.66760765676E+02  0.15431052878E+03  0.12509167068E+03 0.  0.
          5    1    3    3  502    0 -0.68783124126E+02  0.24948573257E+02  0.57147478579E+02  0.92934687711E+02  0.41800000000E+01 0.  1.
         -5    1    3    3    0  502  0.17565804022E+02 -0.57866645894E+02  0.96132870963E+01  0.61375841068E+02  0.41800000000E+01 0.  1.
        -11    1    1    2    0    0  0.39267219070E+02  0.25944345656E+02  0.18952497012E+03  0.19528117642E+03  0.00000000000E+00 0. -1.
         11    1    1    2    0    0  0.11950101034E+02  0.69737269807E+01 -0.88290005267E+01  0.16413075063E+02  0.00000000000E+00 0.  1.
</event>
<event>
 7    1  0.2651429E-009  0.6541215E+02  0.7561462E-02  0.1376428E+00
         -1   -1    0    0    0  501 -0.00000000000E+00  0.00000000000E+00  0.16050087484E+03  0.16050087484E+03  0.00000000000E+00 0.  1.
          1   -1    0    0  501    0  0.00000000000E+00 -0.00000000000E+00 -0.76044674186E+02  0.76044674186E+02  0.00000000000E+00 0. -1.
         25    2    1    2    0    0  0.85139859818E+00 -0.11851929878E+02  0.45317080835E+02  0.13357179715E+03  0.12508634641E+03 0.  0.
          5    1    3    3  502    0  0.14848165424E+02 -0.31622769553E+02  0.82105344696E+02  0.89326522368E+02  0.41800000000E+01 0. -1.
         -5    1    3    3    0  502 -0.13996766825E+02  0.19770839674E+02 -0.36788263862E+02  0.44245274787E+02  0.41800000000E+01 0. -1.
        -11    1    1    2    0    0 -0.28851567782E+01 -0.29507720671E+02  0.51788877817E+02  0.59675100120E+02  0.00000000000E+00 0.  1.
         11    1    1    2    0    0  0.20337581800E+01  0.41359650550E+02 -0.12649757999E+02  0.43298651750E+02  0.00000000000E+00 0. -1.
</event>
<event>
 7    1  0.2651429E-009  0.8626160E+02  0.7561462E-02  0.1312166E+00
         -2   -1    0    0    0  501 -0.00000000000E+00  0.00000000000E+00  0.51424002008E+02  0.51424002008E+02  0.00000000000E+00 0.  1.
          2   -1    0    0  501    0  0.00000000000E+00 -0.00000000000E+00 -0.24647782028E+03  0.24647782028E+03  0.00000000000E+00 0. -1.
         25    2    1    2    0    0 -0.21155380446E+02  0.78064241964E+01 -0.80265471089E+02  0.15032691924E+03  0.12508855430E+03 0.  0.
          5    1    3    3  502    0  0.30321838601E+02  0.46247699509E+02 -0.12494040550E+02  0.56849248503E+02  0.41800000000E+01 0. -1.
         -5    1    3    3    0  502 -0.51477219047E+02 -0.38441275313E+02 -0.67771430539E+02  0.93477670734E+02  0.41800000000E+01 0. -1.
        -11    1    1    2    0    0 -0.11527245174E+01 -0.24682251598E+02  0.44437551728E+01  0.25105562686E+02  0.00000000000E+00 0.  1.
         11    1    1    2    0    0  0.22308104963E+02  0.16875827402E+02 -0.11923210236E+03  0.12246934037E+03  0.00000000000E+00 0. -1.
</event>
<event>
 7    1  0.2651429E-009  0.1027708E+03  0.7561462E-02  0.1274575E+00
          1   -1    0    0  501    0  0.00000000000E+00  0.00000000000E+00  0.24928151783E+03  0.24928151783E+03  0.00000000000E+00 0. -1.
         -1   -1    0    0    0  501 -0.00000000000E+00 -0.00000000000E+00 -0.10046996899E+03  0.10046996899E+03  0.00000000000E+00 0.  1.
         25    2    1    2    0    0 -0.47962766560E+01  0.15679905604E+02 -0.45269944476E+02  0.13404291059E+03  0.12509704352E+03 0.  0.
          5    1    3    3  502    0 -0.56017815512E+02 -0.44730322934E+01  0.84913104573E+01  0.56987528688E+02  0.41800000000E+01 0. -1.
         -5    1    3    3    0  502  0.51221538856E+02  0.20152937897E+02 -0.53761254934E+02  0.77055381906E+02  0.41800000000E+01 0. -1.
        -11    1    1    2    0    0 -0.14113148125E+02 -0.51545776036E+02  0.10422776808E+03  0.11713059214E+03  0.00000000000E+00 0.  1.
         11    1    1    2    0    0  0.18909424781E+02  0.35865870432E+02  0.89853725242E+02  0.98577984090E+02  0.00000000000E+00 0. -1.
</event>
<event>
 6    1  0.2651429E-009  0.9990842E+02  0.7561462E-02  0.1280489E+00
          3   -1    0    0  501    0  0.00000000000E+00  0.00000000000E+00  0.18299763591E+02  0.18299763591E+02  0.00000000000E+00 0. -1.
         -3   -1    0    0    0  501 -0.00000000000E+00 -0.00000000000E+00 -0.65336705200E+03  0.65336705200E+03  0.00000000000E+00 0.  1.
          5    1    1    2  502    0  0.59194211862E+02 -0.10739717624E+02 -0.17049944024E+03  0.18085029106E+03  0.41800000000E+01 0. -1.
         -5    1    1    2    0  502 -0.62398225142E+02  0.12656968682E+02 -0.23383325365E+03  0.24238234314E+03  0.41800000000E+01 0. -1.
        -11    1    1    2    0    0  0.26167063209E+02 -0.29751337246E+02 -0.18968878021E+03  0.19378258591E+03  0.00000000000E+00 0.  1.
         11    1    1    2    0    0 -0.22963049929E+02  0.27834086188E+02 -0.41045814312E+02  0.54651595480E+02  0.00000000000E+00 0. -1.
</event>
<event>
 7    1  0.2651429E-009  0.9651495E+02  0.7561462E-02  0.1287800E+00
         -2   -1    0    0    0  501 -0.00000000000E+00  0.00000000000E+00  0.12249441447E+02  0.12249441447E+02  0.00000000000E+00 0.  1.
          2   -1    0    0  501    0  0.00000000000E+00 -0.00000000000E+00 -0.14076512490E+04  0.14076512490E+04  0.00000000000E+00 0. -1.
         25    2    1    2    0    0  0.46934353421E+02 -0.37615463879E+02 -0.10103025960E+04  0.10197928321E+04  0.12509327825E+03 0.  0.
          5    1    3    3  502    0  0.66812688093E+02 -0.35073973681E+02 -0.98177821903E+03  0.98468272184E+03  0.41800000000E+01 0.  1.
         -5    1    3    3    0  502 -0.19878334673E+02 -0.25414901975E+01 -0.28524377013E+02  0.35110110307E+02  0.41800000000E+01 0.  1.
        -11    1    1    2    0    0  0.89011983578E+00 -0.21177151416E+02 -0.28351105052E+02  0.35398435179E+02  0.00000000000E+00 0.  1.
         11    1    1    2    0    0 -0.47824473256E+02  0.58792615295E+02 -0.35674810650E+03  0.36470942317E+03  0.00000000000E+00 0. -1.
</event>
<event>
 7    1  0.2651429E-009  0.1296526E+03  0.7561462E-02  0.1227972E+00
         -2   -1    0    0    0  501 -0.00000000000E+00  0.00000000000E+00  0.70791384501E+02  0.70791384501E+02  0.00000000000E+00 0.  1.
          2   -1    0    0  501    0  0.00000000000E+00 -0.00000000000E+00 -0.33097733502E+03  0.33097733502E+03  0.00000000000E+00 0. -1.
         25    2    1    2    0    0  0.60405568367E+02  0.44203805552E+02 -0.91513968630E+02  0.17211997144E+03  0.12509064313E+03 0.  0.
          5    1    3    3  502    0  0.13693067186E+02 -0.43396835016E+02 -0.36897995285E+02  0.58734315646E+02  0.41800000000E+01 0.  1.
         -5    1    3    3    0  502  0.46712501181E+02  0.87600640568E+02 -0.54615973345E+02  0.11338565579E+03  0.41800000000E+01 0.  1.
        -11    1    1    2    0    0 -0.60016734656E+02 -0.67854764629E+02 -0.18141904409E+03  0.20277856662E+03  0.00000000000E+00 0. -1.
         11    1    1    2    0    0 -0.38883371119E+00  0.23650959076E+02  0.12747062206E+02  0.26870181461E+02  0.00000000000E+00 0.  1.
</event>
<event>
 7    1  0.2651429E-009  0.1274010E+03  0.7561462E-02  0.1231364E+00
         -2   -1    0    0    0  501 -0.00000000000E+00  0.00000000000E+00  0.62793094731E+02  0.62793094731E+02  0.00000000000E+00 0.  1.
          2   -1    0    0  501    0  0.00000000000E+00 -0.00000000000E+00 -0.34168681442E+03  0.34168681442E+03  0.00000000000E+00 0. -1.
         25    2    1    2    0    0 -0.44290792379E+02 -0.61076609084E+02 -0.24025765489E+03  0.28118147084E+03  0.12508897770E+03 0.  0.
          5    1    3    3  502    0 -0.32251293774E+02  0.35153947597E+02 -0.96350694669E+02  0.10759588628E+03  0.41800000000E+01 0.  1.
         -5    1    3    3    0  502 -0.12039498605E+02 -0.96230556681E+02 -0.14390696023E+03  0.17358558456E+03  0.41800000000E+01 0.  1.
        -11    1    1    2    0    0  0.66854215720E+02  0.35359382840E+02 -0.45700120545E+02  0.88364433638E+02  0.00000000000E+00 0.  1.
         11    1    1    2    0    0 -0.22563423341E+02  0.25717226244E+02  0.70640557513E+01  0.34934004669E+02  0.00000000000E+00 0. -1.
</event>
<event>
 7    1  0.2651429E-009  0.1199653E+03  0.7561462E-02  0.1243154E+00
          4   -1    0    0  501    0  0.00000000000E+00  0.00000000000E+00  0.51003133906E+02  0.51003133906E+02  0.00000000000E+00 0. -1.
         -4   -1    0    0    0  501 -0.00000000000E+00 -0.00000000000E+00 -0.35837725230E+03  0.35837725230E+03  0.00000000000E+00 0.  1.
         25    2    1    2    0    0 -0.53059717985E+02 -0.11520805699E+02 -0.26057300918E+03  0.29409739365E+03  0.12508765407E+03 0.  0.
          5    1    3    3  502    0 -0.21656247999E+01  0.53469657032E+02 -0.10583574546E+03  0.11866916858E+03  0.41800000000E+01 0. -1.
         -5    1    3    3    0  502 -0.50894093185E+02 -0.64990462731E+02 -0.15473726372E+03  0.17542822507E+03  0.41800000000E+01 0. -1.
        -11    1    1    2    0    0  0.69555027072E+02 -0.16133244169E+02 -0.41685082836E+02  0.82679075282E+02  0.00000000000E+00 0.  1.
         11    1    1    2    0    0 -0.16495309087E+02  0.27654049868E+02 -0.51160263772E+01  0.32603917278E+02  0.00000000000E+00 0. -1.
</event>
<event>
 7    1  0.2651429E-009  0.2781499E+03  0.7561462E-02  0.1096704E+00
         -1   -1    0    0    0  501 -0.00000000000E+00  0.00000000000E+00  0.11394812438E+04  0.11394812438E+04  0.00000000000E+00 0.  1.
          1   -1    0    0  501    0  0.00000000000E+00 -0.00000000000E+00 -0.74194142990E+02  0.74194142990E+02  0.00000000000E+00 0. -1.
         25    2    1    2    0    0 -0.26024147785E+03  0.66101031277E+02  0.60010046041E+03  0.66922301092E+03  0.12507558765E+03 0.  0.
          5    1    3    3  502    0 -0.18352597790E+03  0.92254633132E+02  0.49856487763E+03  0.53923752791E+03  0.41800000000E+01 0.  1.
         -5    1    3    3    0  502 -0.76715499952E+02 -0.26153601855E+02  0.10153558279E+03  0.12998548302E+03  0.41800000000E+01 0.  1.
        -11    1    1    2    0    0  0.12130419710E+03 -0.43824849991E+02  0.30552762922E+03  0.33163603231E+03  0.00000000000E+00 0.  1.
         11    1    1    2    0    0  0.13893728076E+03 -0.22276181287E+02  0.15965901118E+03  0.21281634357E+03  0.00000000000E+00 0. -1.
</event>
<event>
 7    1  0.2651429E-009  0.8814201E+02  0.7561462E-02  0.1307414E+00
         -1   -1    0    0    0  501 -0.00000000000E+00  0.00000000000E+00  0.88015651798E+02  0.88015651798E+02  0.00000000000E+00 0.  1.
          1   -1    0    0  501    0  0.00000000000E+00 -0.00000000000E+00 -0.14974511459E+03  0.14974511459E+03  0.00000000000E+00 0. -1.
         25    2    1    2    0    0  0.11259949039E+01  0.85134679586E+01  0.11643274840E+01  0.12538434946E+03  0.12508450116E+03 0.  0.
          5    1    3    3  502    0  0.26322536531E+02  0.50563175062E+02  0.33745217343E+02  0.66375618229E+02  0.41800000000E+01 0.  1.
         -5    1    3    3    0  502 -0.25196541627E+02 -0.42049707104E+02 -0.32580889859E+02  0.59008731231E+02  0.41800000000E+01 0.  1.
        -11    1    1    2    0    0 -0.64496024090E+01 -0.38721116869E+02 -0.70573871044E+02  0.80756383878E+02  0.00000000000E+00 0. -1.
         11    1    1    2    0    0  0.53236075051E+01  0.30207648911E+02  0.76800807679E+01  0.31620033052E+02  0.00000000000E+00 0.  1.
</event>
<event>
 7    1  0.2651429E-009  0.1112886E+03  0.7561462E-02  0.1258202E+00
         -2   -1    0    0    0  501 -0.00000000000E+00  0.00000000000E+00  0.22931791676E+02  0.22931791676E+02  0.00000000000E+00 0.  1.
          2   -1    0    0  501    0  0.00000000000E+00 -0.00000000000E+00 -0.68223796963E+03  0.68223796963E+03  0.00000000000E+00 0. -1.
         25    2    1    2    0    0  0.58750949255E+02 -0.15428881407E+02 -0.34203178859E+03  0.36921902164E+03  0.12508883689E+03 0.  0.
          5    1    3    3  502    0  0.68754013490E+02  0.26629266567E+02 -0.10578108593E+03  0.12900908011E+03  0.41800000000E+01 0.  1.
         -5    1    3    3    0  502 -0.10003064235E+02 -0.42058147974E+02 -0.23625070266E+03  0.24020994153E+03  0.41800000000E+01 0.  1.
        -11    1    1    2    0    0 -0.78632838839E+02 -0.22859147444E+01 -0.18513616975E+03  0.20115603421E+03  0.00000000000E+00 0.  1.
         11    1    1    2    0    0  0.19881889583E+02  0.17714796152E+02 -0.13213821962E+03  0.13479470546E+03  0.00000000000E+00 0. -1.
</event>
<event>
 7    1  0.2651429E-009  0.1090360E+03  0.7561462E-02  0.1262365E+00
         -2   -1    0    0    0  501 -0.00000000000E+00  0.00000000000E+00  0.26493461146E+02  0.26493461146E+02  0.00000000000E+00 0.  1.
          2   -1    0    0  501    0  0.00000000000E+00 -0.00000000000E+00 -0.53275569727E+03  0.53275569727E+03  0.00000000000E+00 0. -1.
         25    2    1    2    0    0  0.19960021714E+02  0.37219168820E+02 -0.33168277380E+03  0.35699422897E+03  0.12509095927E+03 0.  0.
          5    1    3    3  502    0 -0.32608962184E+02 -0.24955927638E+02 -0.18124530233E+03  0.18588564968E+03  0.41800000000E+01 0. -1.
         -5    1    3    3    0  502  0.52568983898E+02  0.62175096458E+02 -0.15043747147E+03  0.17110857930E+03  0.41800000000E+01 0. -1.
        -11    1    1    2    0    0 -0.37149178271E+02 -0.57642021015E+02 -0.15390353787E+03  0.16849024601E+03  0.00000000000E+00 0.  1.
         11    1    1    2    0    0  0.17189156557E+02  0.20422852196E+02 -0.20675924458E+02  0.33764683430E+02  0.00000000000E+00 0. -1.
</event>
<event>
 7    1  0.2651429E-009  0.8054138E+02  0.7561462E-02  0.1327522E+00
          2   -1    0    0  501    0  0.00000000000E+00  0.00000000000E+00  0.35574240676E+03  0.35574240676E+03  0.00000000000E+00 0.  1.
         -2   -1    0    0    0  501 -0.00000000000E+00 -0.00000000000E+00 -0.49470158272E+02  0.49470158272E+02  0.00000000000E+00 0. -1.
         25    2    1    2    0    0 -0.37351671038E+02  0.63511433973E+02  0.13684855022E+03  0.19951013568E+03  0.12509164228E+03 0.  0.
          5    1    3    3  502    0 -0.23776252830E+02  0.57640494347E+02  0.69879369562E+00  0.62495579842E+02  0.41800000000E+01 0. -1.
         -5    1    3    3    0  502 -0.13575418207E+02  0.58709396263E+01  0.13614975652E+03  0.13701455584E+03  0.41800000000E+01 0. -1.
        -11    1    1    2    0    0  0.42854043599E+02 -0.38489046838E+02  0.17059341382E+03  0.18005551538E+03  0.00000000000E+00 0.  1.
         11    1    1    2    0    0 -0.55023725616E+01 -0.25022387135E+02 -0.11697155479E+01  0.25646913971E+02  0.00000000000E+00 0. -1.
</event>
<event>
 6    1  0.2651429E-009  0.1406919E+03  0.7561462E-02  0.1212401E+00
          2   -1    0    0  501    0  0.00000000000E+00  0.00000000000E+00  0.23087809885E+03  0.23087809885E+03  0.00000000000E+00 0. -1.
         -2   -1    0    0    0  501 -0.00000000000E+00 -0.00000000000E+00 -0.14073331488E+03  0.14073331488E+03  0.00000000000E+00 0.  1.
          5    1    1    2  502    0  0.45443574399E+02 -0.81860155711E+02 -0.63542888756E+02  0.11323150912E+03  0.41800000000E+01 0. -1.
         -5    1    1    2    0  502 -0.55656487783E+02 -0.16303634772E+02  0.25113801118E+01  0.58199936161E+02  0.41800000000E+01 0. -1.
        -11    1    1    2    0    0 -0.34109588317E+02  0.19672598114E+02  0.61530633252E+02  0.73051310461E+02  0.00000000000E+00 0. -1.
         11    1    1    2    0    0  0.44322501701E+02  0.78491192369E+02  0.89645659370E+02  0.12712865798E+03  0.00000000000E+00 0.  1.
</event>
<event>
 7    1  0.2651429E-009  0.5858281E+02  0.7561462E-02  0.1403877E+00
         -2   -1    0    0    0  501 -0.00000000000E+00  0.00000000000E+00  0.16486485965E+02  0.16486485965E+02  0.00000000000E+00 0.  1.
          2   -1    0    0  501    0  0.00000000000E+00 -0.00000000000E+00 -0.10387610640E+04  0.10387610640E+04  0.00000000000E+00 0. -1.
         25    2    1    2    0    0  0.25474858999E+02  0.11281955487E+02 -0.83017415402E+03  0.84000738412E+03  0.12508808261E+03 0.  0.
          5    1    3    3  502    0  0.24137935107E+02  0.18925738588E+02 -0.83060610731E+03  0.83118277256E+03  0.41800000000E+01 0. -1.
         -5    1    3    3    0  502  0.13369238917E+01 -0.76437831011E+01  0.43195329031E+00  0.88246115627E+01  0.41800000000E+01 0. -1.
        -11    1    1    2    0    0  0.21951847713E+02 -0.19379473707E+02 -0.17457964475E+02  0.34091467302E+02  0.00000000000E+00 0.  1.
         11    1    1    2    0    0 -0.47426706711E+02  0.80975182198E+01 -0.17464245954E+03  0.18114869855E+03  0.00000000000E+00 0. -1.
</event>
<event>
 7    1  0.2651429E-009  0.1462866E+03  0.7561462E-02  0.1205112E+00
         -1   -1    0    0    0  501 -0.00000000000E+00  0.00000000000E+00  0.71976896075E+02  0.71976896075E+02  0.00000000000E+00 0.  1.
          1   -1    0    0  501    0  0.00000000000E+00 -0.00000000000E+00 -0.33328435706E+03  0.33328435706E+03  0.00000000000E+00 0. -1.
         25    2    1    2    0    0  0.79724122352E+02  0.76861655998E+02 -0.13956947306E+03  0.21769333883E+03  0.12508837721E+03 0.  0.
          5    1    3    3  502    0  0.19677433921E+02  0.86618343258E+02 -0.12763721799E+03  0.15555921898E+03  0.41800000000E+01 0.  1.
         -5    1    3    3    0  502  0.60046688431E+02 -0.97566872599E+01 -0.11932255066E+02  0.62134119844E+02  0.41800000000E+01 0.  1.
        -11    1    1    2    0    0 -0.47534967175E+02 -0.94634562444E+02 -0.91796171857E+02  0.14014924431E+03  0.00000000000E+00 0. -1.
         11    1    1    2    0    0 -0.32189155177E+02  0.17772906446E+02 -0.29941816069E+02  0.47418669995E+02  0.00000000000E+00 0.  1.
</event>
<event>
 7    1  0.2651429E-009  0.1858517E+03  0.7561462E-02  0.1162257E+00
         -1   -1    0    0    0  501 -0.00000000000E+00  0.00000000000E+00  0.39709324754E+02  0.39709324754E+02  0.00000000000E+00 0.  1.
          1   -1    0    0  501    0  0.00000000000E+00 -0.00000000000E+00 -0.10236094855E+04  0.10236094855E+04  0.00000000000E+00 0. -1.
         25    2    1    2    0    0 -0.11672204903E+03 -0.10424127829E+03 -0.35242600851E+03  0.40538861190E+03  0.12508219039E+03 0.  0.
          5    1    3    3  502    0  0.17584807864E+02 -0.18343691799E+01 -0.10003470916E+03  0.10167106675E+03  0.41800000000E+01 0. -1.
         -5    1    3    3    0  502 -0.13430685689E+03 -0.10240690911E+03 -0.25239129935E+03  0.30371754514E+03  0.41800000000E+01 0. -1.
        -11    1    1    2    0    0  0.84599288558E+02  0.10198798496E+02 -0.28039178808E+03  0.29305393691E+03  0.00000000000E+00 0.  1.
         11    1    1    2    0    0  0.32122760472E+02  0.94042479790E+02 -0.35108236413E+03  0.36487626143E+03  0.00000000000E+00 0. -1.
</event>
<event>
 7    1  0.2651429E-009  0.8375483E+02  0.7561462E-02  0.1318721E+00
          2   -1    0    0  501    0  0.00000000000E+00  0.00000000000E+00  0.53585893653E+03  0.53585893653E+03  0.00000000000E+00 0. -1.
         -2   -1    0    0    0  501 -0.00000000000E+00 -0.00000000000E+00 -0.28400498481E+02  0.28400498481E+02  0.00000000000E+00 0.  1.
         25    2    1    2    0    0 -0.22158701428E+02  0.52901250148E+02  0.25765702823E+03  0.29210260497E+03  0.12508891764E+03 0.  0.
          5    1    3    3  502    0 -0.10052443026E+02 -0.17725150712E+02 -0.36474559319E+01  0.21118923110E+02  0.41800000000E+01 0.  1.
         -5    1    3    3    0  502 -0.12106258402E+02  0.70626400859E+02  0.26130448416E+03  0.27098368186E+03  0.41800000000E+01 0.  1.
        -11    1    1    2    0    0 -0.13388867152E+02 -0.29430233868E+02  0.19093684984E+02  0.37549557060E+02  0.00000000000E+00 0.  1.
         11    1    1    2    0    0  0.35547568580E+02 -0.23471016280E+02  0.23070772484E+03  0.23460727298E+03  0.00000000000E+00 0. -1.
</event>
<event>
 7    1  0.2651429E-009  0.1325710E+03  0.7561462E-02  0.1223690E+00
          1   -1    0    0  501    0  0.00000000000E+00  0.00000000000E+00  0.20266618176E+03  0.20266618176E+03  0.00000000000E+00 0. -1.
         -1   -1    0    0    0  501 -0.00000000000E+00 -0.00000000000E+00 -0.98655653751E+02  0.98655653751E+02  0.00000000000E+00 0.  1.
         25    2    1    2    0    0 -0.75424464995E+02 -0.31423875998E+02  0.98697693980E+02  0.17906735887E+03  0.12509026467E+03 0.  0.
          5    1    3    3  502    0 -0.33259433234E+01  0.44386639106E+02  0.29233168430E+02  0.53416160162E+02  0.41800000000E+01 0.  1.
         -5    1    3    3    0  502 -0.72098521671E+02 -0.75810515104E+02  0.69464525550E+02  0.12565119871E+03  0.41800000000E+01 0.  1.
        -11    1    1    2    0    0 -0.70338471043E+01  0.32513471227E+02  0.19526340294E+02  0.38573031792E+02  0.00000000000E+00 0.  1.
         11    1    1    2    0    0  0.82458312099E+02 -0.10895952295E+01 -0.14213506262E+02  0.83681444850E+02  0.00000000000E+00 0. -1.
</event>
<event>
 7    1  0.2651429E-009  0.1071730E+03  0.7561462E-02  0.1265896E+00
          1   -1    0    0  501    0  0.00000000000E+00  0.00000000000E+00  0.73586177892E+02  0.73586177892E+02  0.00000000000E+00 0. -1.
         -1   -1    0    0    0  501 -0.00000000000E+00 -0.00000000000E+00 -0.18039281368E+03  0.18039281368E+03  0.00000000000E+00 0.  1.
         25    2    1    2    0    0  0.22944095897E+02 -0.30931441226E+02 -0.40709858662E+02  0.13707123157E+03  0.12509214340E+03 0.  0.
          5    1    3    3  502    0 -0.44451665637E+02  0.14327307492E+02 -0.17382319173E+01  0.46922448445E+02  0.41800000000E+01 0. -1.
         -5    1    3    3    0  502  0.67395761534E+02 -0.45258748718E+02 -0.38971626744E+02  0.90148783127E+02  0.41800000000E+01 0. -1.
        -11    1    1    2    0    0 -0.48104861774E+02  0.36514197709E+02 -0.68142953984E+02  0.91053975961E+02  0.00000000000E+00 0.  1.
         11    1    1    2    0    0  0.25160765878E+02 -0.55827564822E+01  0.20461768568E+01  0.25853784041E+02  0.00000000000E+00 0. -1.
</event>
<event>
 7    1  0.2651429E-009  0.9772323E+02  0.7561462E-02  0.1285158E+00
          2   -1    0    0  501    0  0.00000000000E+00  0.00000000000E+00  0.50257157603E+03  0.50257157603E+03  0.00000000000E+00 0.  1.
         -2   -1    0    0    0  501 -0.00000000000E+00 -0.00000000000E+00 -0.37459309157E+02  0.37459309157E+02  0.00000000000E+00 0. -1.
         25    2    1    2    0    0 -0.14043095401E+02  0.80850644671E+02  0.28262186369E+03  0.31977470057E+03  0.12508679394E+03 0.  0.
          5    1    3    3  502    0  0.39152066675E+01  0.73965382904E+01  0.22350411520E+03  0.22369979779E+03  0.41800000000E+01 0. -1.
         -5    1    3    3    0  502 -0.17958302069E+02  0.73454106381E+02  0.59117748490E+02  0.96074902778E+02  0.41800000000E+01 0. -1.
        -11    1    1    2    0    0 -0.30524563059E+02 -0.31538218569E+02  0.27967629652E+02  0.52044178241E+02  0.00000000000E+00 0. -1.
         11    1    1    2    0    0  0.44567658460E+02 -0.49312426102E+02  0.15452277354E+03  0.16821200638E+03  0.00000000000E+00 0.  1.
</event>
<event>
 7    1  0.2651429E-009  0.2727478E+03  0.7561462E-02  0.1099717E+00
          1   -1    0    0  501    0  0.00000000000E+00  0.00000000000E+00  0.68954055251E+03  0.68954055251E+03  0.00000000000E+00 0. -1.
         -1   -1    0    0    0  501 -0.00000000000E+00 -0.00000000000E+00 -0.30834798071E+03  0.30834798071E+03  0.00000000000E+00 0.  1.
         25    2    1    2    0    0 -0.95621440288E+02 -0.24674351839E+03  0.57978971688E+03  0.64948353897E+03  0.12508768078E+03 0.  0.
          5    1    3    3  502    0 -0.11142687271E+03 -0.21791143436E+03  0.55929063705E+03  0.61051194114E+03  0.41800000000E+01 0.  1.
         -5    1    3    3    0  502  0.15805432425E+02 -0.28832084022E+02  0.20499079835E+02  0.38971597828E+02  0.41800000000E+01 0.  1.
        -11    1    1    2    0    0  0.56268973108E+02  0.19248414500E+03 -0.19735873214E+03  0.28136597620E+03  0.00000000000E+00 0.  1.
         11    1    1    2    0    0  0.39352467180E+02  0.54259373387E+02 -0.12384129411E+01  0.67039018043E+02  0.00000000000E+00 0. -1.
</event>
<event>
 7    1  0.2651429E-009  0.1147808E+03  0.7561462E-02  0.1251964E+00
          1   -1    0    0  501    0  0.00000000000E+00  0.00000000000E+00  0.19852616108E+03  0.19852616108E+03  0.00000000000E+00 0. -1.
         -1   -1    0    0    0  501 -0.00000000000E+00 -0.00000000000E+00 -0.96516666470E+02  0.96516666470E+02  0.00000000000E+00 0.  1.
         25    2    1    2    0    0 -0.84252928150E+02  0.30894853376E+01  0.66631614691E+02  0.16490943507E+03  0.12508896385E+03 0.  0.
          5    1    3    3  502    0 -0.11027572036E+02 -0.50696139371E+02  0.50530134155E+02  0.72542902822E+02  0.41800000000E+01 0. -1.
         -5    1    3    3    0  502 -0.73225356114E+02  0.53785624709E+02  0.16101480536E+02  0.92366532244E+02  0.41800000000E+01 0. -1.
        -11    1    1    2    0    0  0.31321979591E+02  0.83298889290E+01 -0.30741380738E+02  0.44670862368E+02  0.00000000000E+00 0.  1.
         11    1    1    2    0    0  0.52930948559E+02 -0.11419374267E+02  0.66119260655E+02  0.85462530114E+02  0.00000000000E+00 0. -1.
</event>
<event>
 6    1  0.2651429E-009  0.1216582E+03  0.7561462E-02  0.1240386E+00
          1   -1    0    0  501    0  0.00000000000E+00  0.00000000000E+00  0.13689573351E+03  0.13689573351E+03  0.00000000000E+00 0. -1.
         -1   -1    0    0    0  501 -0.00000000000E+00 -0.00000000000E+00 -0.14030553905E+03  0.14030553905E+03  0.00000000000E+00 0.  1.
          5    1    1    2  502    0  0.33067386523E+02 -0.88972064857E+02  0.39034231913E+02  0.10271623064E+03  0.41800000000E+01 0. -1.
         -5    1    1    2    0  502 -0.43668660301E+02  0.14683021521E+02 -0.68190914471E+01  0.46760190564E+02  0.41800000000E+01 0. -1.
        -11    1    1    2    0    0  0.39971570269E+02  0.36031104911E+02  0.16908796424E+02  0.56408105334E+02  0.00000000000E+00 0. -1.
         11    1    1    2    0    0 -0.29370296492E+02  0.38257938425E+02 -0.52533742437E+02  0.71316746021E+02  0.00000000000E+00 0.  1.
</event>
<event>
 7    1  0.2651429E-009  0.1092912E+03  0.7561462E-02  0.1261888E+00
         -1   -1    0    0    0  501 -0.00000000000E+00  0.00000000000E+00  0.11536513541E+03  0.11536513541E+03  0.00000000000E+00 0.  1.
          1   -1    0    0  501    0  0.00000000000E+00 -0.00000000000E+00 -0.12092450105E+03  0.12092450105E+03  0.00000000000E+00 0. -1.
         25    2    1    2    0    0  0.29786662583E+02 -0.34619645066E+02 -0.16404961124E+02  0.13417674394E+03  0.12509400774E+03 0.  0.
          5    1    3    3  502    0  0.28562046864E+02  0.44593140781E+02  0.21934999633E+00  0.53121175064E+02  0.41800000000E+01 0.  1.
         -5    1    3    3    0  502  0.12246157190E+01 -0.79212785846E+02 -0.16624311120E+02  0.81055568873E+02  0.41800000000E+01 0.  1.
        -11    1    1    2    0    0 -0.88275815982E+01  0.55704460822E+02  0.32719413085E+02  0.65203321579E+02  0.00000000000E+00 0.  1.
         11    1    1    2    0    0 -0.20959080984E+02 -0.21084815756E+02 -0.21873817595E+02  0.36909570945E+02  0.00000000000E+00 0. -1.
</event>
<event>
 7    1  0.2651429E-009  0.1861483E+03  0.7561462E-02  0.1161982E+00
          1   -1    0    0  501    0  0.00000000000E+00  0.00000000000E+00  0.61973566394E+03  0.61973566394E+03  0.00000000000E+00 0. -1.
         -1   -1    0    0    0  501 -0.00000000000E+00 -0.00000000000E+00 -0.57965998527E+02  0.57965998527E+02  0.00000000000E+00 0.  1.
         25    2    1    2    0    0 -0.14470182748E+03 -0.54262594992E+02  0.28493807756E+03  0.34744759589E+03  0.12508827186E+03 0.  0.
          5    1    3    3  502    0 -0.44618335915E+01 -0.52047350299E+02  0.11969529204E+03  0.13066472350E+03  0.41800000000E+01 0. -1.
         -5    1    3    3    0  502 -0.14023999389E+03 -0.22152446929E+01  0.16524278552E+03  0.21678287239E+03  0.41800000000E+01 0. -1.
        -11    1    1    2    0    0  0.96630759339E+02  0.79633921255E+02  0.18122509982E+03  0.22027619452E+03  0.00000000000E+00 0.  1.
         11    1    1    2    0    0  0.48071068140E+02 -0.25371326263E+02  0.95606488027E+02  0.10997787205E+03  0.00000000000E+00 0. -1.
</event>
<event>
 7    1  0.2651429E-009  0.3334196E+03  0.7561462E-02  0.1069634E+00
         -2   -1    0    0    0  501 -0.00000000000E+00  0.00000000000E+00  0.17373345289E+03  0.17373345289E+03  0.00000000000E+00 0.  1.
          2   -1    0    0  501    0  0.00000000000E+00 -0.00000000000E+00 -0.11097814770E+04  0.11097814770E+04  0.00000000000E+00 0. -1.
         25    2    1    2    0    0 -0.68648158184E+01  0.32883048089E+03 -0.86613408184E+03  0.93488382382E+03  0.12507160133E+03 0.  0.
          5    1    3    3  502    0  0.29528818585E+02  0.21226928661E+03 -0.40979707196E+03  0.46247304111E+03  0.41800000000E+01 0. -1.
         -5    1    3    3    0  502 -0.36393634403E+02  0.11656119428E+03 -0.45633700988E+03  0.47241078271E+03  0.41800000000E+01 0. -1.
        -11    1    1    2    0    0  0.16792663713E+02 -0.11266536580E+03 -0.67132084388E+02  0.13222025170E+03  0.00000000000E+00 0.  1.
         11    1    1    2    0    0 -0.99278478942E+01 -0.21616511509E+03 -0.27818578627E+01  0.21641085435E+03  0.00000000000E+00 0. -1.
</event>
<event>
 7    1  0.2651429E-009  0.9272937E+02  0.7561462E-02  0.1296374E+00
         -1   -1    0    0    0  501 -0.00000000000E+00  0.00000000000E+00  0.16347534685E+03  0.16347534685E+03  0.00000000000E+00 0.  1.
          1   -1    0    0  501    0  0.00000000000E+00 -0.00000000000E+00 -0.84718378936E+02  0.84718378936E+02  0.00000000000E+00 0. -1.
         25    2    1    2    0    0 -0.17579521705E+02 -0.44451013530E+02  0.39345229810E+02  0.13956010500E+03  0.12507615125E+03 0.  0.
          5    1    3    3  502    0  0.10718064646E+02  0.38033518938E+02 -0.75688509848E+01  0.40449788353E+02  0.41800000000E+01 0.  1.
         -5    1    3    3    0  502 -0.28297586351E+02 -0.82484532468E+02  0.46914080795E+02  0.99110316650E+02  0.41800000000E+01 0.  1.
        -11    1    1    2    0    0 -0.97351214718E+01  0.17625592740E+02  0.61308008098E+02  0.64529884290E+02  0.00000000000E+00 0.  1.
         11    1    1    2    0    0  0.27314643176E+02  0.26825420789E+02 -0.21896269998E+02  0.44103736488E+02  0.00000000000E+00 0. -1.
</event>
<event>
 7    1  0.2651429E-009  0.1367438E+03  0.7561462E-02  0.1217779E+00
         -1   -1    0    0    0  501 -0.00000000000E+00  0.00000000000E+00  0.53549285681E+03  0.53549285681E+03  0.00000000000E+00 0. -1.
          1   -1    0    0  501    0  0.00000000000E+00 -0.00000000000E+00 -0.43534956731E+02  0.43534956731E+02  0.00000000000E+00 0.  1.
         25    2    1    2    0    0 -0.92091182783E+01  0.10744128052E+03  0.25337706848E+03  0.30245085074E+03  0.12509253240E+03 0.  0.
          5    1    3    3  502    0  0.28129586548E+02  0.98611456615E+02  0.24096189776E+03  0.26190762033E+03  0.41800000000E+01 0.  1.
         -5    1    3    3    0  502 -0.37338704827E+02  0.88298239084E+01  0.12415170725E+02  0.40543230416E+02  0.41800000000E+01 0.  1.
        -11    1    1    2    0    0 -0.14413046390E+02 -0.10767814191E+03  0.15200749623E+03  0.18683842501E+03  0.00000000000E+00 0.  1.
         11    1    1    2    0    0  0.23622164668E+02  0.23686138639E+00  0.86573335365E+02  0.89738537781E+02  0.00000000000E+00 0. -1.
</event>
<event>
 7    1  0.2651429E-009  0.1336422E+03  0.7561462E-02  0.1222149E+00
          2   -1    0    0  501    0  0.00000000000E+00  0.00000000000E+00  0.39354643716E+03  0.39354643716E+03  0.00000000000E+00 0.  1.
         -2   -1    0    0    0  501 -0.00000000000E+00 -0.00000000000E+00 -0.53868514775E+02  0.53868514775E+02  0.00000000000E+00 0. -1.
         25    2    1    2    0    0  0.96346425438E+02  0.18412964630E+02  0.23435275908E+03  0.28318498453E+03  0.12510335254E+03 0.  0.
          5    1    3    3  502    0 -0.41659247678E+01 -0.39805360318E+02  0.40068000227E+02  0.56786782629E+02  0.41800000000E+01 0.  1.
         -5    1    3    3    0  502  0.10051235021E+03  0.58218324948E+02  0.19428475885E+03  0.22639820190E+03  0.41800000000E+01 0.  1.
        -11    1    1    2    0    0  0.38196795232E+01 -0.95146704841E+01  0.46734060944E+02  0.47845494651E+02  0.00000000000E+00 0.  1.
         11    1    1    2    0    0 -0.10016610496E+03 -0.88982941463E+01  0.58591102366E+02  0.11638447275E+03  0.00000000000E+00 0. -1.
</event>
<event>
 7    1  0.2651429E-009  0.1711405E+03  0.7561462E-02  0.1176664E+00
          2   -1    0    0  501    0  0.00000000000E+00  0.00000000000E+00  0.96278657470E+03  0.96278657470E+03  0.00000000000E+00 0.  1.
         -2   -1    0    0    0  501 -0.00000000000E+00 -0.00000000000E+00 -0.54959837237E+02  0.54959837237E+02  0.00000000000E+00 0. -1.
         25    2    1    2    0    0  0.15417298837E+03  0.58564844698E+02  0.72933023489E+03  0.75813972414E+03  0.12511633954E+03 0.  0.
          5    1    3    3  502    0  0.84292499792E+02  0.22047298888E+01  0.56102536032E+03  0.56734206056E+03  0.41800000000E+01 0.  1.
         -5    1    3    3    0  502  0.69880488580E+02  0.56360114809E+02  0.16830487457E+03  0.19079766359E+03  0.41800000000E+01 0.  1.
        -11    1    1    2    0    0 -0.83192574715E+02 -0.14528175440E+02  0.30738046273E+02  0.89871574249E+02  0.00000000000E+00 0. -1.
         11    1    1    2    0    0 -0.70980413657E+02 -0.44036669258E+02  0.14775845630E+03  0.16973511354E+03  0.00000000000E+00 0.  1.
</event>
<event>
 7    1  0.2651429E-009  0.1510539E+03  0.7561462E-02  0.1199184E+00
          2   -1    0    0  501    0  0.00000000000E+00  0.00000000000E+00  0.90369978408E+02  0.90369978408E+02  0.00000000000E+00 0. -1.
         -2   -1    0    0    0  501 -0.00000000000E+00 -0.00000000000E+00 -0.40337929021E+03  0.40337929021E+03  0.00000000000E+00 0.  1.
         25    2    1    2    0    0  0.12015762239E+03 -0.35751058152E+02 -0.28528754645E+03  0.33578673991E+03  0.12509099951E+03 0.  0.
          5    1    3    3  502    0  0.71354143036E+02 -0.79091098378E+02 -0.21374556825E+03  0.23885446598E+03  0.41800000000E+01 0. -1.
         -5    1    3    3    0  502  0.48803479353E+02  0.43340040226E+02 -0.71541978204E+02  0.96932273929E+02  0.41800000000E+01 0. -1.
        -11    1    1    2    0    0 -0.37942168104E+02  0.28718389030E+02  0.30904922330E+02  0.56740357887E+02  0.00000000000E+00 0. -1.
         11    1    1    2    0    0 -0.82215454284E+02  0.70326691225E+01 -0.58626687676E+02  0.10122217082E+03  0.00000000000E+00 0.  1.
</event>
<event>
 7    1  0.2651429E-009  0.1041112E+03  0.7561462E-02  0.1271881E+00
         -1   -1    0    0    0  501 -0.00000000000E+00  0.00000000000E+00  0.59948312871E+03  0.59948312871E+03  0.00000000000E+00 0.  1.
          1   -1    0    0  501    0  0.00000000000E+00 -0.00000000000E+00 -0.23554280524E+02  0.23554280524E+02  0.00000000000E+00 0. -1.
         25    2    1    2    0    0 -0.12439927577E+02  0.30691726210E+02  0.41755076386E+03  0.43713877926E+03  0.12507972686E+03 0.  0.
          5    1    3    3  502    0  0.34877153910E+02 -0.30651800089E+02  0.10134143379E+03  0.11155046981E+03  0.41800000000E+01 0.  1.
         -5    1    3    3    0  502 -0.47317081488E+02  0.61343526299E+02  0.31620933007E+03  0.32558830944E+03  0.41800000000E+01 0.  1.
        -11    1    1    2    0    0  0.27690352162E+02 -0.51349838703E+02  0.14633805510E+03  0.15753852833E+03  0.00000000000E+00 0.  1.
         11    1    1    2    0    0 -0.15250424584E+02  0.20658112493E+02  0.12040029221E+02  0.28360101647E+02  0.00000000000E+00 0. -1.
</event>
<event>
 7    1  0.2651429E-009  0.2329869E+03  0.7561462E-02  0.1124555E+00
         -2   -1    0    0    0  501 -0.00000000000E+00  0.00000000000E+00  0.17849410149E+03  0.17849410149E+03  0.00000000000E+00 0.  1.
          2   -1    0    0  501    0  0.00000000000E+00 -0.00000000000E+00 -0.33023686205E+03  0.33023686205E+03  0.00000000000E+00 0. -1.
         25    2    1    2    0    0 -0.67581411275E+02 -0.20533620384E+03 -0.61645173986E+02  0.25725061246E+03  0.12509015299E+03 0.  0.
          5    1    3    3  502    0 -0.36016942130E+02  0.53595121962E+01 -0.80593160328E+01  0.37528248911E+02  0.41800000000E+01 0.  1.
         -5    1    3    3    0  502 -0.31564469145E+02 -0.21069571604E+03 -0.53585857953E+02  0.21972236355E+03  0.41800000000E+01 0.  1.
        -11    1    1    2    0    0  0.35730044704E+02  0.11674290601E+03 -0.13444641254E+01  0.12209565833E+03  0.00000000000E+00 0.  1.
         11    1    1    2    0    0  0.31851366571E+02  0.88593297832E+02 -0.88753122451E+02  0.12938469275E+03  0.00000000000E+00 0. -1.
</event>
<event>
 7    1  0.2651429E-009  0.8500525E+02  0.7561462E-02  0.1315419E+00
          1   -1    0    0  501    0  0.00000000000E+00  0.00000000000E+00  0.82086845751E+03  0.82086845751E+03  0.00000000000E+00 0. -1.
         -1   -1    0    0    0  501 -0.00000000000E+00 -0.00000000000E+00 -0.20882928710E+02  0.20882928710E+02  0.00000000000E+00 0.  1.
         25    2    1    2    0    0 -0.43361703192E+02 -0.24106248308E+02  0.26589187359E+03  0.29800692034E+03  0.12509311580E+03 0.  0.
          5    1    3    3  502    0  0.30340229290E+01 -0.21091754798E+02 -0.56853751054E+01  0.22446899690E+02  0.41800000000E+01 0. -1.
         -5    1    3    3    0  502 -0.46395726121E+02 -0.30144935102E+01  0.27157724869E+03  0.27556002065E+03  0.41800000000E+01 0. -1.
        -11    1    1    2    0    0  0.85839851602E+01  0.54654992696E+02  0.26739214233E+03  0.27305569177E+03  0.00000000000E+00 0. -1.
         11    1    1    2    0    0  0.34777718032E+02 -0.30548744387E+02  0.26670151288E+03  0.27068877410E+03  0.00000000000E+00 0.  1.
</event>
<event>
 7    1  0.2651429E-009  0.1247774E+03  0.7561462E-02  0.1235418E+00
         -1   -1    0    0    0  501 -0.00000000000E+00  0.00000000000E+00  0.16533154330E+03  0.16533154330E+03  0.00000000000E+00 0.  1.
          1   -1    0    0  501    0  0.00000000000E+00 -0.00000000000E+00 -0.11573747652E+03  0.11573747652E+03  0.00000000000E+00 0. -1.
         25    2    1    2    0    0  0.84728604404E+02  0.44696867619E+01  0.91221189658E+01  0.15142174677E+03  0.12508564201E+03 0.  0.
          5    1    3    3  502    0  0.10395338117E+03  0.37185014889E+02 -0.53072101271E+01  0.11061044105E+03  0.41800000000E+01 0. -1.
         -5    1    3    3    0  502 -0.19224776771E+02 -0.32715328127E+02  0.14429329093E+02  0.40811305718E+02  0.41800000000E+01 0. -1.
        -11    1    1    2    0    0 -0.60185259602E+02  0.22662314417E+02 -0.12257736041E+02  0.65468298137E+02  0.00000000000E+00 0. -1.
         11    1    1    2    0    0 -0.24543344802E+02 -0.27132001179E+02  0.52729683849E+02  0.64178974912E+02  0.00000000000E+00 0.  1.
</event>
<event>
 7    1  0.2651429E-009  0.7782673E+02  0.7561462E-02  0.1335334E+00
          3   -1    0    0  501    0  0.00000000000E+00  0.00000000000E+00  0.35023212350E+02  0.35023212350E+02  0.00000000000E+00 0. -1.
         -3   -1    0    0    0  501 -0.00000000000E+00 -0.00000000000E+00 -0.43117326846E+03  0.43117326846E+03  0.00000000000E+00 0.  1.
         25    2    1    2    0    0 -0.83381175978E+01  0.60962700273E+01 -0.33155643018E+03  0.35451884916E+03  0.12508900553E+03 0.  0.
          5    1    3    3  502    0 -0.44156787099E+02  0.20269629601E+02 -0.48343434284E+02  0.68667603493E+02  0.41800000000E+01 0.  1.
         -5    1    3    3    0  502  0.35818669501E+02 -0.14173359573E+02 -0.28321299590E+03  0.28585124567E+03  0.41800000000E+01 0.  1.
        -11    1    1    2    0    0  0.32381620433E+02  0.15428469421E+02 -0.70285064574E+02  0.78908791099E+02  0.00000000000E+00 0.  1.
         11    1    1    2    0    0 -0.24043502835E+02 -0.21524739449E+02  0.56914386468E+01  0.32768840547E+02  0.00000000000E+00 0. -1.
</event>
<event>
 7    1  0.2651429E-009  0.7921198E+02  0.7561462E-02  0.1331303E+00
         -2   -1    0    0    0  501 -0.00000000000E+00  0.00000000000E+00  0.13961294170E+02  0.13961294170E+02  0.00000000000E+00 0. -1.
          2   -1    0    0  501    0  0.00000000000E+00 -0.00000000000E+00 -0.56999561395E+03  0.56999561395E+03  0.00000000000E+00 0.  1.
         25    2    1    2    0    0 -0.21732875550E+02  0.94440891308E+01 -0.43100136732E+03  0.44941207907E+03  0.12509008545E+03 0.  0.
          5    1    3    3  502    0 -0.62162460658E+02  0.28886014863E+02 -0.15196435046E+03  0.16676093541E+03  0.41800000000E+01 0.  1.
         -5    1    3    3    0  502  0.40429585108E+02 -0.19441925732E+02 -0.27903701687E+03  0.28265114365E+03  0.41800000000E+01 0.  1.
        -11    1    1    2    0    0  0.32447601959E+02 -0.40513742395E+01 -0.59224312069E+02  0.67651900536E+02  0.00000000000E+00 0. -1.
         11    1    1    2    0    0 -0.10714726409E+02 -0.53927148913E+01 -0.65808640386E+02  0.66892928516E+02  0.00000000000E+00 0.  1.
</event>
<event>
 7    1  0.2651429E-009  0.2473184E+03  0.7561462E-02  0.1115011E+00
         -1   -1    0    0    0  501 -0.00000000000E+00  0.00000000000E+00  0.26009856927E+03  0.26009856927E+03  0.00000000000E+00 0.  1.
          1   -1    0    0  501    0  0.00000000000E+00 -0.00000000000E+00 -0.24290509487E+03  0.24290509487E+03  0.00000000000E+00 0. -1.
         25    2    1    2    0    0  0.85201188971E+02  0.20605068702E+03  0.48162080611E+02  0.26015946250E+03  0.12508889518E+03 0.  0.
          5    1    3    3  502    0  0.98726676861E+02  0.77289342747E+02  0.14260038617E+02  0.12625933759E+03  0.41800000000E+01 0.  1.
         -5    1    3    3    0  502 -0.13525487890E+02  0.12876134427E+03  0.33902041994E+02  0.13390012492E+03  0.41800000000E+01 0.  1.
        -11    1    1    2    0    0 -0.53593525185E+02 -0.31304472956E+02  0.25854821288E+01  0.62120211579E+02  0.00000000000E+00 0. -1.
         11    1    1    2    0    0 -0.31607663786E+02 -0.17474621406E+03 -0.33554088341E+02  0.18072399006E+03  0.00000000000E+00 0.  1.
</event>
<event>
 7    1  0.2651429E-009  0.2035189E+03  0.7561462E-02  0.1146804E+00
         -2   -1    0    0    0  501 -0.00000000000E+00  0.00000000000E+00  0.18793216683E+03  0.18793216683E+03  0.00000000000E+00 0.  1.
          2   -1    0    0  501    0  0.00000000000E+00 -0.00000000000E+00 -0.26640395417E+03  0.26640395417E+03  0.00000000000E+00 0. -1.
         25    2    1    2    0    0  0.32321323630E+02  0.18798092033E+03  0.11984814358E+01  0.22810172975E+03  0.12508984127E+03 0.  0.
          5    1    3    3  502    0  0.42182645497E+02  0.19655854150E+03 -0.20825307026E+02  0.20215291645E+03  0.41800000000E+01 0. -1.
         -5    1    3    3    0  502 -0.98613218662E+01 -0.85776211655E+01  0.22023788461E+02  0.25948813306E+02  0.41800000000E+01 0. -1.
        -11    1    1    2    0    0 -0.31863993141E+01 -0.89037986754E+02 -0.84750931702E+02  0.12296599794E+03  0.00000000000E+00 0. -1.
         11    1    1    2    0    0 -0.29134924316E+02 -0.98942933576E+02  0.50806629176E+01  0.10326839330E+03  0.00000000000E+00 0.  1.
</event>
<event>
 7    1  0.2651429E-009  0.8289688E+02  0.7561462E-02  0.1321026E+00
          2   -1    0    0  501    0  0.00000000000E+00  0.00000000000E+00  0.19987940106E+03  0.19987940106E+03  0.00000000000E+00 0. -1.
         -2   -1    0    0    0  501 -0.00000000000E+00 -0.00000000000E+00 -0.71797668486E+02  0.71797668486E+02  0.00000000000E+00 0.  1.
         25    2    1    2    0    0 -0.43271438738E+02 -0.20672699565E+02  0.98564377157E+02  0.16631484595E+03  0.12508362651E+03 0.  0.
          5    1    3    3  502    0 -0.73254564833E+02 -0.60305689344E+01  0.10861698287E+03  0.13121631148E+03  0.41800000000E+01 0. -1.
         -5    1    3    3    0  502  0.29983126095E+02 -0.14642130631E+02 -0.10052605716E+02  0.35098534464E+02  0.41800000000E+01 0. -1.
        -11    1    1    2    0    0  0.23080379989E+02  0.28688665455E+02 -0.26443829970E+02  0.45332324113E+02  0.00000000000E+00 0.  1.
         11    1    1    2    0    0  0.20191058749E+02 -0.80159658898E+01  0.55961185385E+02  0.60029899486E+02  0.00000000000E+00 0. -1.
</event>
<event>
 7    1  0.2651429E-009  0.1097122E+03  0.7561462E-02  0.1261104E+00
         -2   -1    0    0    0  501 -0.00000000000E+00  0.00000000000E+00  0.31284411136E+02  0.31284411136E+02  0.00000000000E+00 0.  1.
          2   -1    0    0  501    0  0.00000000000E+00 -0.00000000000E+00 -0.46793738791E+03  0.46793738791E+03  0.00000000000E+00 0. -1.
         25    2    1    2    0    0 -0.16649530466E+01 -0.49794434225E+02 -0.19848869485E+03  0.23984870575E+03  0.12508949564E+03 0.  0.
          5    1    3    3  502    0  0.49256875600E+02 -0.57502088585E+02 -0.78185023682E+02  0.10891786040E+03  0.41800000000E+01 0.  1.
         -5    1    3    3    0  502 -0.50921828646E+02  0.77076543601E+01 -0.12030367117E+03  0.13093084535E+03  0.41800000000E+01 0.  1.
        -11    1    1    2    0    0 -0.27069298951E+02 -0.72734787917E+01 -0.27634738061E+02  0.39361519116E+02  0.00000000000E+00 0.  1.
         11    1    1    2    0    0  0.28734251997E+02  0.57067913017E+02 -0.21052954386E+03  0.22001157418E+03  0.00000000000E+00 0. -1.
</event>
<event>
 7    1  0.2651429E-009  0.1479818E+03  0.7561462E-02  0.1202975E+00
          2   -1    0    0  501    0  0.00000000000E+00  0.00000000000E+00  0.65042744850E+03  0.65042744850E+03  0.00000000000E+00 0. -1.
         -2   -1    0    0    0  501 -0.00000000000E+00 -0.00000000000E+00 -0.72544762230E+02  0.72544762230E+02  0.00000000000E+00 0.  1.
         25    2    1    2    0    0  0.36505284767E+02  0.10053351463E+03  0.44633694616E+02  0.17052552461E+03  0.12508862645E+03 0.  0.
          5    1    3    3  502    0  0.53084665571E+02  0.11914271471E+03  0.56981728613E+02  0.14239858842E+03  0.41800000000E+01 0. -1.
         -5    1    3    3    0  502 -0.16579380804E+02 -0.18609200086E+02 -0.12348033997E+02  0.28126936187E+02  0.41800000000E+01 0. -1.
        -11    1    1    2    0    0  0.25881372755E+02 -0.61181001122E+02  0.31937304325E+03  0.32620867725E+03  0.00000000000E+00 0.  1.
         11    1    1    2    0    0 -0.62386657522E+02 -0.39352513506E+02  0.21387594840E+03  0.22623800887E+03  0.00000000000E+00 0. -1.
</event>
<event>
 7    1  0.2651429E-009  0.1174420E+03  0.7561462E-02  0.1247378E+00
         -1   -1    0    0    0  501 -0.00000000000E+00  0.00000000000E+00  0.29277478289E+02  0.29277478289E+02  0.00000000000E+00 0.  1.
          1   -1    0    0  501    0  0.00000000000E+00 -0.00000000000E+00 -0.63941694786E+03  0.63941694786E+03  0.00000000000E+00 0. -1.
         25    2    1    2    0    0  0.77329117574E+02  0.11186720503E+02 -0.39568604154E+03  0.42228122955E+03  0.12509619589E+03 0.  0.
          5    1    3    3  502    0  0.41535929757E+02 -0.47896284003E+02 -0.99026113455E+02  0.11765598594E+03  0.41800000000E+01 0. -1.
         -5    1    3    3    0  502  0.35793187817E+02  0.59083004507E+02 -0.29665992808E+03  0.30462524361E+03  0.41800000000E+01 0. -1.
        -11    1    1    2    0    0 -0.71406687287E+02  0.16949000229E+02 -0.78544276278E+02  0.10749598567E+03  0.00000000000E+00 0.  1.
         11    1    1    2    0    0 -0.59224302871E+01 -0.28135720732E+02 -0.13590915176E+03  0.13891721093E+03  0.00000000000E+00 0. -1.
</event>
<event>
 7    1  0.2651429E-009  0.7557538E+02  0.7561462E-02  0.1342098E+00
         -3   -1    0    0    0  501 -0.00000000000E+00  0.00000000000E+00  0.18011347844E+03  0.18011347844E+03  0.00000000000E+00 0.  1.
          3   -1    0    0  501    0  0.00000000000E+00 -0.00000000000E+00 -0.86054150826E+02  0.86054150826E+02  0.00000000000E+00 0. -1.
         25    2    1    2    0    0  0.27464162728E+02  0.31928980945E+02  0.70529892213E+01  0.13217325270E+03  0.12508510708E+03 0.  0.
          5    1    3    3  502    0  0.17431172292E+02  0.33973074027E+02  0.63738853693E+02  0.74418609207E+02  0.41800000000E+01 0.  1.
         -5    1    3    3    0  502  0.10032990435E+02 -0.20440930815E+01 -0.56685864471E+02  0.57754643488E+02  0.41800000000E+01 0.  1.
        -11    1    1    2    0    0 -0.61732889133E+02 -0.15359937402E+02  0.58690773556E+02  0.86553360295E+02  0.00000000000E+00 0.  1.
         11    1    1    2    0    0  0.34268726405E+02 -0.16569043544E+02  0.28315564840E+02  0.47441016279E+02  0.00000000000E+00 0. -1.
</event>
<event>
 7    1  0.2651429E-009  0.1320075E+03  0.7561462E-02  0.1224507E+00
          1   -1    0    0  501    0  0.00000000000E+00  0.00000000000E+00  0.12105151005E+03  0.12105151005E+03  0.00000000000E+00 0. -1.
         -1   -1    0    0    0  501 -0.00000000000E+00 -0.00000000000E+00 -0.16497781829E+03  0.16497781829E+03  0.00000000000E+00 0.  1.
         25    2    1    2    0    0  0.78939740702E+02  0.17185203215E+02  0.15880409114E+02  0.14975786466E+03  0.12509363198E+03 0.  0.
          5    1    3    3  502    0  0.96940629932E+02 -0.22559057162E+02  0.29440256087E+02  0.10387780259E+03  0.41800000000E+01 0.  1.
         -5    1    3    3    0  502 -0.18000889230E+02  0.39744260377E+02 -0.13559846972E+02  0.45880062074E+02  0.41800000000E+01 0.  1.
        -11    1    1    2    0    0  0.53265942470E+01  0.25538278490E+02 -0.35914688190E+01  0.26333912030E+02  0.00000000000E+00 0. -1.
         11    1    1    2    0    0 -0.84266334949E+02 -0.42723481705E+02 -0.56215248538E+02  0.10993755165E+03  0.00000000000E+00 0.  1.
</event>
<event>
 7    1  0.2651429E-009  0.1144491E+03  0.7561462E-02  0.1252546E+00
          1   -1    0    0  501    0  0.00000000000E+00  0.00000000000E+00  0.98315847408E+03  0.98315847408E+03  0.00000000000E+00 0. -1.
         -1   -1    0    0    0  501 -0.00000000000E+00 -0.00000000000E+00 -0.21391698000E+02  0.21391698000E+02  0.00000000000E+00 0.  1.
         25    2    1    2    0    0  0.71914110246E+02 -0.43817655161E+02  0.67577129092E+03  0.69239216864E+03  0.12509377044E+03 0.  0.
          5    1    3    3  502    0  0.98409562006E+02 -0.49665137817E+02  0.38985885591E+03  0.40516474148E+03  0.41800000000E+01 0.  1.
         -5    1    3    3    0  502 -0.26495451760E+02  0.58474826557E+01  0.28591243501E+03  0.28722742715E+03  0.41800000000E+01 0.  1.
        -11    1    1    2    0    0 -0.65700322798E+02  0.23321815087E+02  0.28184877515E+03  0.29034319611E+03  0.00000000000E+00 0. -1.
         11    1    1    2    0    0 -0.62137874480E+01  0.20495840074E+02  0.41467100062E+01  0.21814807326E+02  0.00000000000E+00 0.  1.
</event>
<event>
 7    1  0.2651429E-009  0.1281588E+03  0.7561462E-02  0.1230214E+00
          1   -1    0    0  501    0  0.00000000000E+00  0.00000000000E+00  0.36015137315E+03  0.36015137315E+03  0.00000000000E+00 0. -1.
         -1   -1    0    0    0  501 -0.00000000000E+00 -0.00000000000E+00 -0.53380561421E+02  0.53380561421E+02  0.00000000000E+00 0.  1.
         25    2    1    2    0    0 -0.38369737192E+02 -0.67465592571E+02  0.11543483679E+03  0.18708260264E+03  0.12510338025E+03 0.  0.
          5    1    3    3  502    0 -0.73974964194E+02 -0.19771237643E+02  0.98940228092E+02  0.12517922472E+03  0.41800000000E+01 0. -1.
         -5    1    3    3    0  502  0.35605227002E+02 -0.47694354928E+02  0.16494608697E+02  0.61903377920E+02  0.41800000000E+01 0. -1.
        -11    1    1    2    0    0  0.43602943295E+02  0.88303288921E+02  0.14387869690E+03  0.17435528934E+03  0.00000000000E+00 0.  1.
         11    1    1    2    0    0 -0.52332061029E+01 -0.20837696351E+02  0.47457278039E+02  0.52094042598E+02  0.00000000000E+00 0. -1.
</event>
<event>
 7    1  0.2651429E-009  0.1144091E+03  0.7561462E-02  0.1252616E+00
          4   -1    0    0  501    0  0.00000000000E+00  0.00000000000E+00  0.14470160252E+02  0.14470160252E+02  0.00000000000E+00 0. -1.
         -4   -1    0    0    0  501 -0.00000000000E+00 -0.00000000000E+00 -0.10549496669E+04  0.10549496669E+04  0.00000000000E+00 0.  1.
         25    2    1    2    0    0 -0.28620386553E+02  0.38135443381E+02 -0.72911581535E+03  0.74130353633E+03  0.12509045608E+03 0.  0.
          5    1    3    3  502    0  0.25546926115E+02 -0.33286541852E+02 -0.29606575853E+03  0.29905358228E+03  0.41800000000E+01 0.  1.
         -5    1    3    3    0  502 -0.54167312668E+02  0.71421985234E+02 -0.43305005682E+03  0.44224995404E+03  0.41800000000E+01 0.  1.
        -11    1    1    2    0    0  0.54301114125E+02 -0.44784294890E+02 -0.26962602687E+03  0.27866187115E+03  0.00000000000E+00 0.  1.
         11    1    1    2    0    0 -0.25680727572E+02  0.66488515088E+01 -0.41737664461E+02  0.49454419718E+02  0.00000000000E+00 0. -1.
</event>
<event>
 7    1  0.2651429E-009  0.1672312E+03  0.7561462E-02  0.1180766E+00
         -2   -1    0    0    0  501 -0.00000000000E+00  0.00000000000E+00  0.14161474194E+03  0.14161474194E+03  0.00000000000E+00 0.  1.
          2   -1    0    0  501    0  0.00000000000E+00 -0.00000000000E+00 -0.27779698984E+03  0.27779698984E+03  0.00000000000E+00 0. -1.
         25    2    1    2    0    0 -0.15824479055E+03  0.16474671489E+02 -0.23312017872E+02  0.20372462868E+03  0.12508975024E+03 0.  0.
          5    1    3    3  502    0 -0.82950915892E+02  0.45297328874E+02 -0.63104029124E+02  0.11372024157E+03  0.41800000000E+01 0.  1.
         -5    1    3    3    0  502 -0.75293874659E+02 -0.28822657385E+02  0.39792011252E+02  0.90004387112E+02  0.41800000000E+01 0.  1.
        -11    1    1    2    0    0  0.14716346516E+03 -0.16066809542E+02 -0.56847738802E+02  0.15857771992E+03  0.00000000000E+00 0.  1.
         11    1    1    2    0    0  0.11081325390E+02 -0.40786194651E+00 -0.56022491229E+02  0.57109383181E+02  0.00000000000E+00 0. -1.
</event>
<event>
 7    1  0.2651429E-009  0.1076849E+03  0.7561462E-02  0.1264918E+00
         -2   -1    0    0    0  501 -0.00000000000E+00  0.00000000000E+00  0.15291779336E+02  0.15291779336E+02  0.00000000000E+00 0.  1.
          2   -1    0    0  501    0  0.00000000000E+00 -0.00000000000E+00 -0.10330408860E+04  0.10330408860E+04  0.00000000000E+00 0. -1.
         25    2    1    2    0    0 -0.25559954298E+02 -0.22759991048E+02 -0.79266233776E+03  0.80320136039E+03  0.12509002824E+03 0.  0.
          5    1    3    3  502    0  0.24907439427E+02  0.35694039672E+02 -0.43951252003E+03  0.44168220779E+03  0.41800000000E+01 0.  1.
         -5    1    3    3    0  502 -0.50467393724E+02 -0.58454030720E+02 -0.35314981773E+03  0.36151915260E+03  0.41800000000E+01 0.  1.
        -11    1    1    2    0    0 -0.78692725575E+00 -0.32802977760E+02 -0.10806060614E+03  0.11293249844E+03  0.00000000000E+00 0.  1.
         11    1    1    2    0    0  0.26346881553E+02  0.55562968808E+02 -0.11702616272E+03  0.13219880647E+03  0.00000000000E+00 0. -1.
</event>
<event>
 7    1  0.2651429E-009  0.1238211E+03  0.7561462E-02  0.1236923E+00
          1   -1    0    0  501    0  0.00000000000E+00  0.00000000000E+00  0.24503490031E+03  0.24503490031E+03  0.00000000000E+00 0.  1.
         -1   -1    0    0    0  501 -0.00000000000E+00 -0.00000000000E+00 -0.86092131341E+02  0.86092131341E+02  0.00000000000E+00 0. -1.
         25    2    1    2    0    0  0.33236204534E+02  0.87010378135E+02  0.52456621143E+02  0.16454527787E+03  0.12509196686E+03 0.  0.
          5    1    3    3  502    0  0.70863112632E+02  0.87942373275E+02  0.20218122532E+02  0.11481152655E+03  0.41800000000E+01 0.  1.
         -5    1    3    3    0  502 -0.37626908098E+02 -0.93199514025E+00  0.32238498610E+02  0.49733751322E+02  0.41800000000E+01 0.  1.
        -11    1    1    2    0    0 -0.23929045139E+02 -0.27211880144E+02  0.99218374247E+02  0.10562845928E+03  0.00000000000E+00 0.  1.
         11    1    1    2    0    0 -0.93071593951E+01 -0.59798497991E+02  0.72677735824E+01  0.60953294503E+02  0.00000000000E+00 0. -1.
</event>
<event>
 7    1  0.2651429E-009  0.7177707E+02  0.7561462E-02  0.1354152E+00
          2   -1    0    0  501    0  0.00000000000E+00  0.00000000000E+00  0.45495322086E+03  0.45495322086E+03  0.00000000000E+00 0.  1.
         -2   -1    0    0    0  501 -0.00000000000E+00 -0.00000000000E+00 -0.29520435936E+02  0.29520435936E+02  0.00000000000E+00 0. -1.
         25    2    1    2    0    0  0.16852005268E+02 -0.40091428315E+02  0.20204933572E+03  0.24158130127E+03  0.12508508445E+03 0.  0.
          5    1    3    3  502    0  0.39941842418E+01 -0.36167675202E+02  0.21756742869E+03  0.22062890261E+03  0.41800000000E+01 0.  1.
         -5    1    3    3    0  502  0.12857821027E+02 -0.39237531130E+01 -0.15518092975E+02  0.20952398661E+02  0.41800000000E+01 0.  1.
        -11    1    1    2    0    0 -0.44899155765E+02  0.45898156701E+02  0.12647273316E+03  0.14183767909E+03  0.00000000000E+00 0. -1.
         11    1    1    2    0    0  0.28047150496E+02 -0.58067283864E+01  0.96910716047E+02  0.10105467644E+03  0.00000000000E+00 0.  1.
</event>
<event>
 7    1  0.2651429E-009  0.2833193E+03  0.7561462E-02  0.1093890E+00
          2   -1    0    0  501    0  0.00000000000E+00  0.00000000000E+00  0.84045281863E+03  0.84045281863E+03  0.00000000000E+00 0. -1.
         -2   -1    0    0    0  501 -0.00000000000E+00 -0.00000000000E+00 -0.13274786877E+03  0.13274786877E+03  0.00000000000E+00 0.  1.
         25    2    1    2    0    0  0.13371661036E+03 -0.24090041141E+03  0.13655399551E+03  0.33197459382E+03  0.12508795764E+03 0.  0.
          5    1    3    3  502    0  0.10168780749E+03 -0.90405671095E+02  0.17224087952E+02  0.13721420176E+03  0.41800000000E+01 0.  1.
         -5    1    3    3    0  502  0.32028802865E+02 -0.15049474032E+03  0.11932990756E+03  0.19476039206E+03  0.41800000000E+01 0.  1.
        -11    1    1    2    0    0 -0.10791485072E+03  0.21171929571E+03  0.39628345623E+03  0.46207277875E+03  0.00000000000E+00 0.  1.
         11    1    1    2    0    0 -0.25801759634E+02  0.29181115703E+02  0.17486749812E+03  0.17915331482E+03  0.00000000000E+00 0. -1.
</event>
<event>
 7    1  0.2651429E-009  0.9499950E+02  0.7561462E-02  0.1291177E+00
         -2   -1    0    0    0  501 -0.00000000000E+00  0.00000000000E+00  0.55033729937E+02  0.55033729937E+02  0.00000000000E+00 0.  1.
          2   -1    0    0  501    0  0.00000000000E+00 -0.00000000000E+00 -0.23599485851E+03  0.23599485851E+03  0.00000000000E+00 0. -1.
         25    2    1    2    0    0  0.69441005500E+01  0.31365212806E+02 -0.10402539324E+03  0.16583935316E+03  0.12509760793E+03 0.  0.
          5    1    3    3  502    0  0.44160329780E+02  0.45606799752E+02 -0.11016439918E+02  0.64567400895E+02  0.41800000000E+01 0. -1.
         -5    1    3    3    0  502 -0.37216229230E+02 -0.14241586946E+02 -0.93008953326E+02  0.10127195227E+03  0.41800000000E+01 0. -1.
        -11    1    1    2    0    0 -0.43524334893E+02 -0.20781320960E+02 -0.11664303275E+02  0.49621436896E+02  0.00000000000E+00 0.  1.
         11    1    1    2    0    0  0.36580234343E+02 -0.10583891846E+02 -0.65271432051E+02  0.75567798388E+02  0.00000000000E+00 0. -1.
</event>
<event>
 7    1  0.2651429E-009  0.1378997E+03  0.7561462E-02  0.1216183E+00
         -2   -1    0    0    0  501 -0.00000000000E+00  0.00000000000E+00  0.25011126696E+03  0.25011126696E+03  0.00000000000E+00 0. -1.
          2   -1    0    0  501    0  0.00000000000E+00 -0.00000000000E+00 -0.13682056872E+03  0.13682056872E+03  0.00000000000E+00 0.  1.
         25    2    1    2    0    0  0.11026880859E+03 -0.45358708368E+02 -0.34341930834E+02  0.17619428953E+03  0.12509371238E+03 0.  0.
          5    1    3    3  502    0  0.73984092514E+02  0.62460291747E+01  0.35143723789E+02  0.82250912137E+02  0.41800000000E+01 0.  1.
         -5    1    3    3    0  502  0.36284716077E+02 -0.51604737543E+02 -0.69485654623E+02  0.93943377393E+02  0.41800000000E+01 0.  1.
        -11    1    1    2    0    0 -0.51388522922E+02  0.58518036261E+02  0.12297390603E+03  0.14556003030E+03  0.00000000000E+00 0. -1.
         11    1    1    2    0    0 -0.58880285669E+02 -0.13159327893E+02  0.24658723038E+02  0.65177515854E+02  0.00000000000E+00 0.  1.
</event>
<event>
 7    1  0.2651429E-009  0.7786517E+02  0.7561462E-02  0.1335221E+00
          4   -1    0    0  501    0  0.00000000000E+00  0.00000000000E+00  0.17097758901E+03  0.17097758901E+03  0.00000000000E+00 0. -1.
         -4   -1    0    0    0  501 -0.00000000000E+00 -0.00000000000E+00 -0.83095185609E+02  0.83095185609E+02  0.00000000000E+00 0.  1.
         25    2    1    2    0    0  0.32910972044E+02  0.27430864974E+02  0.23905630982E+02  0.13436728190E+03  0.12508997889E+03 0.  0.
          5    1    3    3  502    0  0.47284427931E+01 -0.15519034580E+02 -0.45173144282E+02  0.48179704959E+02  0.41800000000E+01 0.  1.
         -5    1    3    3    0  502  0.28182529251E+02  0.42949899554E+02  0.69078775264E+02  0.86187576939E+02  0.41800000000E+01 0.  1.
        -11    1    1    2    0    0  0.12930748390E+02 -0.38215096957E+02  0.97633824126E-01  0.40343616865E+02  0.00000000000E+00 0.  1.
         11    1    1    2    0    0 -0.45841720434E+02  0.10784231983E+02  0.63879138598E+02  0.79361875859E+02  0.00000000000E+00 0. -1.
</event>
<event>
 7    1  0.2651429E-009  0.1448724E+03  0.7561462E-02  0.1206919E+00
         -1   -1    0    0    0  501 -0.00000000000E+00  0.00000000000E+00  0.25143301928E+02  0.25143301928E+02  0.00000000000E+00 0.  1.
          1   -1    0    0  501    0  0.00000000000E+00 -0.00000000000E+00 -0.93897262686E+03  0.93897262686E+03  0.00000000000E+00 0. -1.
         25    2    1    2    0    0 -0.94619048293E+02  0.28499613584E+02 -0.60132416906E+03  0.62209571653E+03  0.12508929592E+03 0.  0.
          5    1    3    3  502    0 -0.87343878763E+02  0.71553334564E+02 -0.47897634428E+03  0.49212259004E+03  0.41800000000E+01 0. -1.
         -5    1    3    3    0  502 -0.72751695295E+01 -0.43053720980E+02 -0.12234782478E+03  0.12997312649E+03  0.41800000000E+01 0. -1.
        -11    1    1    2    0    0  0.11795598230E+02  0.29506690558E+02 -0.38305002869E+02  0.49770012759E+02  0.00000000000E+00 0.  1.
         11    1    1    2    0    0  0.82823450062E+02 -0.58006304142E+02 -0.27420015300E+03  0.29225019950E+03  0.00000000000E+00 0. -1.
</event>
<event>
 7    1  0.2651429E-009  0.1849143E+03  0.7561462E-02  0.1163130E+00
          1   -1    0    0  501    0  0.00000000000E+00  0.00000000000E+00  0.32551365748E+03  0.32551365748E+03  0.00000000000E+00 0. -1.
         -1   -1    0    0    0  501 -0.00000000000E+00 -0.00000000000E+00 -0.11740804764E+03  0.11740804764E+03  0.00000000000E+00 0.  1.
         25    2    1    2    0    0 -0.14253977851E+03  0.58649836303E+02  0.51532697459E+02  0.20508619621E+03  0.12508931694E+03 0.  0.
          5    1    3    3  502    0 -0.14372971011E+02 -0.35931869641E+02  0.14155495395E+02  0.41418981174E+02  0.41800000000E+01 0.  1.
         -5    1    3    3    0  502 -0.12816680750E+03  0.94581705945E+02  0.37377202064E+02  0.16366721504E+03  0.41800000000E+01 0.  1.
        -11    1    1    2    0    0  0.14723809578E+03 -0.40348180189E+02  0.15692803772E+03  0.21893707205E+03  0.00000000000E+00 0.  1.
         11    1    1    2    0    0 -0.46983172710E+01 -0.18301656114E+02 -0.35512532957E+00  0.18898436858E+02  0.00000000000E+00 0. -1.
</event>
<event>
 7    1  0.2651429E-009  0.1076672E+03  0.7561462E-02  0.1264952E+00
         -4   -1    0    0    0  501 -0.00000000000E+00  0.00000000000E+00  0.86890048292E+02  0.86890048292E+02  0.00000000000E+00 0.  1.
          4   -1    0    0  501    0  0.00000000000E+00 -0.00000000000E+00 -0.15548076289E+03  0.15548076289E+03  0.00000000000E+00 0. -1.
         25    2    1    2    0    0 -0.28704108453E+02  0.27200469297E+02 -0.42552590446E+02  0.13792129359E+03  0.12509104245E+03 0.  0.
          5    1    3    3  502    0 -0.66396545551E+02 -0.21078395861E+02 -0.21669440864E+02  0.73074189017E+02  0.41800000000E+01 0.  1.
         -5    1    3    3    0  502  0.37692437098E+02  0.48278865157E+02 -0.20883149582E+02  0.64847104575E+02  0.41800000000E+01 0.  1.
        -11    1    1    2    0    0  0.16271261290E+02 -0.53039916523E+02 -0.43829436878E+02  0.70703650724E+02  0.00000000000E+00 0.  1.
         11    1    1    2    0    0  0.12432847163E+02  0.25839447227E+02  0.17791312729E+02  0.33745866861E+02  0.00000000000E+00 0. -1.
</event>
<event>
 7    1  0.2651429E-009  0.1178497E+03  0.7561462E-02  0.1246687E+00
          1   -1    0    0  501    0  0.00000000000E+00  0.00000000000E+00  0.46771522435E+02  0.46771522435E+02  0.00000000000E+00 0. -1.
         -1   -1    0    0    0  501 -0.00000000000E+00 -0.00000000000E+00 -0.44669302027E+03  0.44669302027E+03  0.00000000000E+00 0.  1.
         25    2    1    2    0    0 -0.86142027925E+02 -0.36679013637E+02 -0.19325645918E+03  0.24851855696E+03  0.12509042777E+03 0.  0.
          5    1    3    3  502    0 -0.47496654261E+02 -0.63585012384E+02 -0.18388376032E+03  0.20032397678E+03  0.41800000000E+01 0. -1.
         -5    1    3    3    0  502 -0.38645373664E+02  0.26905998746E+02 -0.93726988684E+01  0.48194580175E+02  0.41800000000E+01 0. -1.
        -11    1    1    2    0    0  0.27950002977E+02  0.42069290417E+02 -0.16660536718E+03  0.17409301030E+03  0.00000000000E+00 0.  1.
         11    1    1    2    0    0  0.58192024948E+02 -0.53902767802E+01 -0.40059671471E+02  0.70852975447E+02  0.00000000000E+00 0. -1.
</event>
<event>
 7    1  0.2651429E-009  0.1210789E+03  0.7561462E-02  0.1241328E+00
          3   -1    0    0  501    0  0.00000000000E+00  0.00000000000E+00  0.72703674074E+02  0.72703674074E+02  0.00000000000E+00 0. -1.
         -3   -1    0    0    0  501 -0.00000000000E+00 -0.00000000000E+00 -0.32898229458E+03  0.32898229458E+03  0.00000000000E+00 0.  1.
         25    2    1    2    0    0  0.52826717500E+02 -0.93086494696E+02 -0.16903273099E+03  0.23595561814E+03  0.12508889643E+03 0.  0.
          5    1    3    3  502    0  0.67497648472E+02 -0.37726913370E+02 -0.16009647347E+03  0.17784151866E+03  0.41800000000E+01 0. -1.
         -5    1    3    3    0  502 -0.14670930972E+02 -0.55359581326E+02 -0.89362575163E+01  0.58114099482E+02  0.41800000000E+01 0. -1.
        -11    1    1    2    0    0 -0.73581747145E+01  0.18935257263E+02 -0.75227786880E+02  0.77922439782E+02  0.00000000000E+00 0.  1.
         11    1    1    2    0    0 -0.45468542786E+02  0.74151237433E+02 -0.12018102642E+02  0.87807910732E+02  0.00000000000E+00 0. -1.
</event>
<event>
 7    1  0.2651429E-009  0.6143160E+02  0.7561462E-02  0.1391920E+00
          1   -1    0    0  501    0  0.00000000000E+00  0.00000000000E+00  0.10299997580E+03  0.10299997580E+03  0.00000000000E+00 0. -1.
         -1   -1    0    0    0  501 -0.00000000000E+00 -0.00000000000E+00 -0.12930871613E+03  0.12930871613E+03  0.00000000000E+00 0.  1.
         25    2    1    2    0    0  0.15525192651E+02 -0.13265541644E+02 -0.58917760222E+02  0.13974688996E+03  0.12506352218E+03 0.  0.
          5    1    3    3  502    0 -0.18649265610E+01  0.91175351026E+01  0.37655565180E+02  0.39013092500E+02  0.41800000000E+01 0. -1.
         -5    1    3    3    0  502  0.17390119212E+02 -0.22383076747E+02 -0.96573325402E+02  0.10073379746E+03  0.41800000000E+01 0. -1.
        -11    1    1    2    0    0  0.29655066553E+02  0.23318360871E+02  0.35063955731E+01  0.37887514248E+02  0.00000000000E+00 0.  1.
         11    1    1    2    0    0 -0.45180259204E+02 -0.10052819227E+02  0.29102624324E+02  0.54674287729E+02  0.00000000000E+00 0. -1.
</event>
<event>
 7    1  0.2651429E-009  0.9924414E+02  0.7561462E-02  0.1281893E+00
          1   -1    0    0  501    0  0.00000000000E+00  0.00000000000E+00  0.24116748919E+03  0.24116748919E+03  0.00000000000E+00 0. -1.
         -1   -1    0    0    0  501 -0.00000000000E+00 -0.00000000000E+00 -0.85990938629E+02  0.85990938629E+02  0.00000000000E+00 0.  1.
         25    2    1    2    0    0  0.23943302816E+02 -0.87782235109E+02  0.50535195786E+02  0.16272745069E+03  0.12508962645E+03 0.  0.
          5    1    3    3  502    0 -0.16841553422E+02 -0.39612134480E+02 -0.35493441082E+02  0.55946544840E+02  0.41800000000E+01 0. -1.
         -5    1    3    3    0  502  0.40784856237E+02 -0.48170100628E+02  0.86028636868E+02  0.10678090585E+03  0.41800000000E+01 0. -1.
        -11    1    1    2    0    0 -0.12213618645E+02  0.67164563390E+02  0.12647011810E+02  0.69427645527E+02  0.00000000000E+00 0.  1.
         11    1    1    2    0    0 -0.11729684171E+02  0.20617671719E+02  0.91994342967E+02  0.95003331604E+02  0.00000000000E+00 0. -1.
</event>
<event>
 7    1  0.2651429E-009  0.1135734E+03  0.7561462E-02  0.1254092E+00
         -1   -1    0    0    0  501 -0.00000000000E+00  0.00000000000E+00  0.53905004016E+02  0.53905004016E+02  0.00000000000E+00 0.  1.
          1   -1    0    0  501    0  0.00000000000E+00 -0.00000000000E+00 -0.30614721869E+03  0.30614721869E+03  0.00000000000E+00 0. -1.
         25    2    1    2    0    0 -0.16610523906E+02  0.60843379704E+02 -0.15274160075E+03  0.20725983851E+03  0.12509523453E+03 0.  0.
          5    1    3    3  502    0 -0.60245007423E+02  0.54858175530E+02 -0.13857051944E+03  0.16080466908E+03  0.41800000000E+01 0. -1.
         -5    1    3    3    0  502  0.43634483517E+02  0.59852041739E+01 -0.14171081310E+02  0.46455169425E+02  0.41800000000E+01 0. -1.
        -11    1    1    2    0    0  0.40595073013E+02 -0.65333415533E+02 -0.36317299622E+02  0.85060927517E+02  0.00000000000E+00 0.  1.
         11    1    1    2    0    0 -0.23984549107E+02  0.44900358288E+01 -0.63183314309E+02  0.67731456685E+02  0.00000000000E+00 0. -1.
</event>
<event>
 7    1  0.2651429E-009  0.1507686E+03  0.7561462E-02  0.1199532E+00
         -2   -1    0    0    0  501 -0.00000000000E+00  0.00000000000E+00  0.64744060114E+02  0.64744060114E+02  0.00000000000E+00 0. -1.
          2   -1    0    0  501    0  0.00000000000E+00 -0.00000000000E+00 -0.47117194378E+03  0.47117194378E+03  0.00000000000E+00 0.  1.
         25    2    1    2    0    0  0.19673105688E+02 -0.13076293983E+03 -0.15725385473E+03  0.24054704721E+03  0.12509248409E+03 0.  0.
          5    1    3    3  502    0  0.29081640499E+02 -0.26582263054E+02 -0.12480827040E+03  0.13094630687E+03  0.41800000000E+01 0. -1.
         -5    1    3    3    0  502 -0.94085348108E+01 -0.10418067678E+03 -0.32445584330E+02  0.10960074034E+03  0.41800000000E+01 0. -1.
        -11    1    1    2    0    0 -0.52579665681E+02  0.95348967360E+02 -0.18967248545E+03  0.21870459199E+03  0.00000000000E+00 0.  1.
         11    1    1    2    0    0  0.32906559993E+02  0.35413972470E+02 -0.59501543487E+02  0.76664364694E+02  0.00000000000E+00 0. -1.
</event>
<event>
 7    1  0.2651429E-009  0.1661292E+03  0.7561462E-02  0.1181946E+00
         -2   -1    0    0    0  501 -0.00000000000E+00  0.00000000000E+00  0.53092605693E+02  0.53092605693E+02  0.00000000000E+00 0. -1.
          2   -1    0    0  501    0  0.00000000000E+00 -0.00000000000E+00 -0.65392921091E+03  0.65392921091E+03  0.00000000000E+00 0.  1.
         25    2    1    2    0    0  0.28354273498E+02 -0.13695989961E+03 -0.21527004247E+03  0.28557108248E+03  0.12509065927E+03 0.  0.
          5    1    3    3  502    0 -0.11475625073E+01 -0.15299961174E+03 -0.18554796162E+03  0.24053215284E+03  0.41800000000E+01 0.  1.
         -5    1    3    3    0  502  0.29501836005E+02  0.16039712124E+02 -0.29722080850E+02  0.45038929636E+02  0.41800000000E+01 0.  1.
        -11    1    1    2    0    0  0.28574704164E+01  0.82793094988E+02 -0.32124258359E+03  0.33175240651E+03  0.00000000000E+00 0.  1.
         11    1    1    2    0    0 -0.31211743914E+02  0.54166804625E+02 -0.64323979163E+02  0.89698327615E+02  0.00000000000E+00 0. -1.
</event>
<event>
 7    1  0.2651429E-009  0.1242913E+03  0.7561462E-02  0.1236181E+00
          1   -1    0    0  501    0  0.00000000000E+00  0.00000000000E+00  0.86459521785E+03  0.86459521785E+03  0.00000000000E+00 0. -1.
         -1   -1    0    0    0  501 -0.00000000000E+00 -0.00000000000E+00 -0.27004848129E+02  0.27004848129E+02  0.00000000000E+00 0.  1.
         25    2    1    2    0    0  0.60362079110E+02 -0.87506913023E+02  0.40799798461E+03  0.43978470286E+03  0.12508872454E+03 0.  0.
          5    1    3    3  502    0  0.16258905474E+02 -0.72856831387E+02  0.37562573309E+03  0.38299429976E+03  0.41800000000E+01 0.  1.
         -5    1    3    3    0  502  0.44103173636E+02 -0.14650081637E+02  0.32372251518E+02  0.56790403107E+02  0.41800000000E+01 0.  1.
        -11    1    1    2    0    0 -0.27574872203E+02  0.90140164132E+02  0.38519264062E+03  0.39655894033E+03  0.00000000000E+00 0. -1.
         11    1    1    2    0    0 -0.32787206908E+02 -0.26332511084E+01  0.44399744496E+02  0.55256422790E+02  0.00000000000E+00 0.  1.
</event>
<event>
 7    1  0.2651429E-009  0.9851565E+02  0.7561462E-02  0.1283449E+00
          2   -1    0    0  501    0  0.00000000000E+00  0.00000000000E+00  0.11968244767E+03  0.11968244767E+03  0.00000000000E+00 0. -1.
         -2   -1    0    0    0  501 -0.00000000000E+00 -0.00000000000E+00 -0.17237427960E+03  0.17237427960E+03  0.00000000000E+00 0.  1.
         25    2    1    2    0    0 -0.37611450471E+02  0.71214404538E+02  0.17018414692E+02  0.14974095571E+03  0.12508642915E+03 0.  0.
          5    1    3    3  502    0 -0.42076914560E+01  0.27130870464E+02  0.68592367907E+02  0.74001176576E+02  0.41800000000E+01 0. -1.
         -5    1    3    3    0  502 -0.33403759015E+02  0.44083534073E+02 -0.51573953215E+02  0.75739779132E+02  0.41800000000E+01 0. -1.
        -11    1    1    2    0    0  0.10101286374E+02 -0.83180989441E+02 -0.23156529035E+02  0.86932950184E+02  0.00000000000E+00 0. -1.
         11    1    1    2    0    0  0.27510164097E+02  0.11966584903E+02 -0.46553717581E+02  0.55382821375E+02  0.00000000000E+00 0.  1.
</event>
<event>
 7    1  0.2651429E-009  0.5620164E+02  0.7561462E-02  0.1414500E+00
         -1   -1    0    0    0  501 -0.00000000000E+00  0.00000000000E+00  0.52681603419E+02  0.52681603419E+02  0.00000000000E+00 0.  1.
          1   -1    0    0  501    0  0.00000000000E+00 -0.00000000000E+00 -0.26900406974E+03  0.26900406974E+03  0.00000000000E+00 0. -1.
         25    2    1    2    0    0 -0.42270357218E+02 -0.91323038104E+00 -0.15967053984E+03  0.20719344822E+03  0.12508727594E+03 0.  0.
          5    1    3    3  502    0 -0.46453570598E+02  0.13126283606E+02 -0.17735355215E+03  0.18385317077E+03  0.41800000000E+01 0. -1.
         -5    1    3    3    0  502  0.41832133803E+01 -0.14039513987E+02  0.17683012306E+02  0.23340277449E+02  0.41800000000E+01 0. -1.
        -11    1    1    2    0    0  0.14665361906E+02 -0.11315811430E+02  0.22870571218E+02  0.29430994818E+02  0.00000000000E+00 0.  1.
         11    1    1    2    0    0  0.27604995312E+02  0.12229041811E+02 -0.79522497693E+02  0.85061230118E+02  0.00000000000E+00 0. -1.
</event>
<event>
 7    1  0.2651429E-009  0.1143627E+03  0.7561462E-02  0.1252698E+00
          4   -1    0    0  501    0  0.00000000000E+00  0.00000000000E+00  0.10686937231E+04  0.10686937231E+04  0.00000000000E+00 0. -1.
         -4   -1    0    0    0  501 -0.00000000000E+00 -0.00000000000E+00 -0.14390247128E+02  0.14390247128E+02  0.00000000000E+00 0.  1.
         25    2    1    2    0    0 -0.70601501162E+01 -0.28839280530E+02  0.78401300018E+03  0.79448783211E+03  0.12511187435E+03 0.  0.
          5    1    3    3  502    0 -0.65424572546E+02 -0.11412105420E+02  0.35948810290E+03  0.36559510304E+03  0.41800000000E+01 0.  1.
         -5    1    3    3    0  502  0.58364422430E+02 -0.17427175110E+02  0.42452489728E+03  0.42889272907E+03  0.41800000000E+01 0.  1.
        -11    1    1    2    0    0  0.19786551670E+02 -0.32735897789E+02  0.99487610627E+02  0.10658766955E+03  0.00000000000E+00 0.  1.
         11    1    1    2    0    0 -0.12726401554E+02  0.61575178319E+02  0.17080286512E+03  0.18200846853E+03  0.00000000000E+00 0. -1.
</event>
<event>
 7    1  0.2651429E-009  0.1218709E+03  0.7561462E-02  0.1240042E+00
          2   -1    0    0  501    0  0.00000000000E+00  0.00000000000E+00  0.59858009786E+03  0.59858009786E+03  0.00000000000E+00 0. -1.
         -2   -1    0    0    0  501 -0.00000000000E+00 -0.00000000000E+00 -0.33904081263E+02  0.33904081263E+02  0.00000000000E+00 0.  1.
         25    2    1    2    0    0  0.19153928407E+02  0.77574937344E+02  0.40994523615E+03  0.43598475482E+03  0.12507144324E+03 0.  0.
          5    1    3    3  502    0  0.55125031770E+02  0.17604600091E+02  0.30041801648E+03  0.30596919469E+03  0.41800000000E+01 0.  1.
         -5    1    3    3    0  502 -0.35971103363E+02  0.59970337253E+02  0.10952721967E+03  0.13001556013E+03  0.41800000000E+01 0.  1.
        -11    1    1    2    0    0  0.27561719389E+02 -0.59505587826E+02  0.11572624060E+03  0.13301551083E+03  0.00000000000E+00 0. -1.
         11    1    1    2    0    0 -0.46715647796E+02 -0.18069349518E+02  0.39004539843E+02  0.63483913469E+02  0.00000000000E+00 0.  1.
</event>
<event>
 7    1  0.2651429E-009  0.1465650E+03  0.7561462E-02  0.1204759E+00
         -1   -1    0    0    0  501 -0.00000000000E+00  0.00000000000E+00  0.54061927288E+03  0.54061927288E+03  0.00000000000E+00 0.  1.
          1   -1    0    0  501    0  0.00000000000E+00 -0.00000000000E+00 -0.51637551568E+02  0.51637551568E+02  0.00000000000E+00 0. -1.
         25    2    1    2    0    0 -0.89375711465E+02  0.69638916781E+02  0.16207940923E+03  0.23400105804E+03  0.12509661761E+03 0.  0.
          5    1    3    3  502    0 -0.85891875855E+02  0.97989679275E+01  0.34861897757E+02  0.93307333182E+02  0.41800000000E+01 0. -1.
         -5    1    3    3    0  502 -0.34838356107E+01  0.59839948854E+02  0.12721751148E+03  0.14069372486E+03  0.41800000000E+01 0. -1.
        -11    1    1    2    0    0  0.57445336171E+02  0.12129026626E+02  0.13664921961E+03  0.14872823926E+03  0.00000000000E+00 0. -1.
         11    1    1    2    0    0  0.31930375294E+02 -0.81767943408E+02  0.19025309247E+03  0.20952752714E+03  0.00000000000E+00 0.  1.
</event>
<event>
 7    1  0.2651429E-009  0.1019417E+03  0.7561462E-02  0.1276265E+00
          1   -1    0    0  501    0  0.00000000000E+00  0.00000000000E+00  0.61738147518E+03  0.61738147518E+03  0.00000000000E+00 0. -1.
         -1   -1    0    0    0  501 -0.00000000000E+00 -0.00000000000E+00 -0.20360373832E+02  0.20360373832E+02  0.00000000000E+00 0.  1.
         25    2    1    2    0    0  0.13049600212E+02  0.15343875220E+02  0.34084123071E+03  0.36363143637E+03  0.12509736365E+03 0.  0.
          5    1    3    3  502    0  0.20224823974E+02  0.59784316891E+02  0.98149785542E+02  0.11676498128E+03  0.41800000000E+01 0.  1.
         -5    1    3    3    0  502 -0.71752237616E+01 -0.44440441671E+02  0.24269144516E+03  0.24686645509E+03  0.41800000000E+01 0.  1.
        -11    1    1    2    0    0  0.35256512446E+02  0.15067368186E+02  0.76314586100E+02  0.85404703065E+02  0.00000000000E+00 0.  1.
         11    1    1    2    0    0 -0.48306112658E+02 -0.30411243406E+02  0.17986528455E+03  0.18870570959E+03  0.00000000000E+00 0. -1.
</event>
<event>
 7    1  0.2651429E-009  0.9633357E+02  0.7561462E-02  0.1288200E+00
          1   -1    0    0  501    0  0.00000000000E+00  0.00000000000E+00  0.23798783329E+03  0.23798783329E+03  0.00000000000E+00 0. -1.
         -1   -1    0    0    0  501 -0.00000000000E+00 -0.00000000000E+00 -0.52053148386E+02  0.52053148386E+02  0.00000000000E+00 0.  1.
         25    2    1    2    0    0 -0.22509170229E+02 -0.14168114636E+01  0.86800010836E+02  0.15391883856E+03  0.12509235342E+03 0.  0.
          5    1    3    3  502    0 -0.31214503474E+02  0.46777493933E+02  0.88269363886E+02  0.10474460448E+03  0.41800000000E+01 0.  1.
         -5    1    3    3    0  502  0.87053332451E+01 -0.48194305396E+02 -0.14693530504E+01  0.49174234086E+02  0.41800000000E+01 0.  1.
        -11    1    1    2    0    0  0.51824426059E+02  0.16192753725E+02  0.83887960142E+02  0.99925803806E+02  0.00000000000E+00 0. -1.
         11    1    1    2    0    0 -0.29315255830E+02 -0.14775942261E+02  0.15246713931E+02  0.36196339314E+02  0.00000000000E+00 0.  1.
</event>
<event>
 7    1  0.2696433E-009  0.9017448E+02  0.7561462E-02  0.1302430E+00
          2   -1    0    0  501    0  0.00000000000E+00  0.00000000000E+00  0.19090226689E+03  0.19090226689E+03  0.00000000000E+00 0. -1.
         -2   -1    0    0    0  501 -0.00000000000E+00 -0.00000000000E+00 -0.84459284814E+02  0.84459284814E+02  0.00000000000E+00 0.  1.
         25    2    1    2    0    0 -0.50251746313E-01  0.63558243847E+01  0.12994507196E+03  0.18048252836E+03  0.12509125585E+03 0.  0.
          5    1    3    3  502    0 -0.40988242785E+02  0.42387909862E+02  0.10471486676E+03  0.12024743935E+03  0.41800000000E+01 0. -1.
         -5    1    3    3    0  502  0.40937991039E+02 -0.36032085477E+02  0.25230205194E+02  0.60235089012E+02  0.41800000000E+01 0. -1.
        -11    1    1    2    0    0  0.27002027083E+02  0.16119106812E+02  0.21290444420E+02  0.37976546639E+02  0.00000000000E+00 0. -1.
         11    1    1    2    0    0 -0.26951775337E+02 -0.22474931197E+02 -0.44792534300E+02  0.56902476704E+02  0.00000000000E+00 0.  1.
</event>
<event>
 7    1  0.2651429E-009  0.1339528E+03  0.7561462E-02  0.1221706E+00
          3   -1    0    0  501    0  0.00000000000E+00  0.00000000000E+00  0.95164267789E+02  0.95164267789E+02  0.00000000000E+00 0. -1.
         -3   -1    0    0    0  501 -0.00000000000E+00 -0.00000000000E+00 -0.24747201925E+03  0.24747201925E+03  0.00000000000E+00 0.  1.
         25    2    1    2    0    0 -0.59576729402E+02  0.83088831539E+02 -0.42006245705E+02  0.16692420270E+03  0.12508406835E+03 0.  0.
          5    1    3    3  502    0  0.30260966917E+02  0.38072540812E+01 -0.35311377449E+02  0.46846420138E+02  0.41800000000E+01 0.  1.
         -5    1    3    3    0  502 -0.89837696319E+02  0.79281577458E+02 -0.66948682556E+01  0.12007778256E+03  0.41800000000E+01 0.  1.
        -11    1    1    2    0    0  0.69875702565E+02 -0.80526879893E+02 -0.56089137727E+02  0.12047067513E+03  0.00000000000E+00 0. -1.
         11    1    1    2    0    0 -0.10298973163E+02 -0.25619516461E+01 -0.54212368031E+02  0.55241409214E+02  0.00000000000E+00 0.  1.
</event>
<event>
 7    1  0.2651429E-009  0.8366338E+02  0.7561462E-02  0.1318965E+00
          1   -1    0    0  501    0  0.00000000000E+00  0.00000000000E+00  0.82298547358E+02  0.82298547358E+02  0.00000000000E+00 0. -1.
         -1   -1    0    0    0  501 -0.00000000000E+00 -0.00000000000E+00 -0.21178897431E+03  0.21178897431E+03  0.00000000000E+00 0.  1.
         25    2    1    2    0    0  0.96941735761E+01  0.54535717317E+02 -0.16823623887E+02  0.13784413786E+03  0.12509936273E+03 0.  0.
          5    1    3    3  502    0  0.34443273607E+02  0.10520950011E+02  0.45078368953E+02  0.57849470467E+02  0.41800000000E+01 0. -1.
         -5    1    3    3    0  502 -0.24749100031E+02  0.44014767307E+02 -0.61901992840E+02  0.79994667391E+02  0.41800000000E+01 0. -1.
        -11    1    1    2    0    0 -0.27748226102E+02 -0.55784911092E+02 -0.12116843655E+03  0.13624870778E+03  0.00000000000E+00 0.  1.
         11    1    1    2    0    0  0.18054052526E+02  0.12491937749E+01  0.85016334789E+01  0.19994676029E+02  0.00000000000E+00 0. -1.
</event>
<event>
 7    1  0.2651429E-009  0.9154540E+02  0.7561462E-02  0.1299152E+00
          3   -1    0    0  501    0  0.00000000000E+00  0.00000000000E+00  0.87239668534E+03  0.87239668534E+03  0.00000000000E+00 0. -1.
         -3   -1    0    0    0  501 -0.00000000000E+00 -0.00000000000E+00 -0.15890123199E+02  0.15890123199E+02  0.00000000000E+00 0.  1.
         25    2    1    2    0    0 -0.22239900435E+01 -0.15682986196E+02  0.65710461597E+03  0.66908682438E+03  0.12505918620E+03 0.  0.
          5    1    3    3  502    0  0.33651046895E+01 -0.53711723308E+02  0.58307879520E+03  0.58557205104E+03  0.41800000000E+01 0.  1.
         -5    1    3    3    0  502 -0.55890947330E+01  0.38028737112E+02  0.74025820770E+02  0.83514773345E+02  0.41800000000E+01 0.  1.
        -11    1    1    2    0    0 -0.26048413739E+02 -0.28108705067E+02  0.72390413392E+02  0.81908431251E+02  0.00000000000E+00 0. -1.
         11    1    1    2    0    0  0.28272403782E+02  0.43791691263E+02  0.12701153279E+03  0.13729155291E+03  0.00000000000E+00 0.  1.
</event>
<event>
 7    1  0.2651429E-009  0.1135020E+03  0.7561462E-02  0.1254219E+00
         -2   -1    0    0    0  501 -0.00000000000E+00  0.00000000000E+00  0.61358062603E+02  0.61358062603E+02  0.00000000000E+00 0.  1.
          2   -1    0    0  501    0  0.00000000000E+00 -0.00000000000E+00 -0.28675750200E+03  0.28675750200E+03  0.00000000000E+00 0. -1.
         25    2    1    2    0    0  0.47493471780E+02 -0.60267256764E+01 -0.47487776965E+02  0.14212443137E+03  0.12510920728E+03 0.  0.
          5    1    3    3  502    0  0.70638875510E+02 -0.45658775067E+02 -0.46125322737E+02  0.96018707925E+02  0.41800000000E+01 0. -1.
         -5    1    3    3    0  502 -0.23145403730E+02  0.39632049391E+02 -0.13624542281E+01  0.46105723444E+02  0.41800000000E+01 0. -1.
        -11    1    1    2    0    0  0.23837691747E+02  0.85597447007E+01 -0.18609436344E+02  0.31429538626E+02  0.00000000000E+00 0.  1.
         11    1    1    2    0    0 -0.71331163527E+02 -0.25330190243E+01 -0.15930222609E+03  0.17456159461E+03  0.00000000000E+00 0. -1.
</event>
<event>
 7    1  0.3232313E-009  0.9405615E+02  0.7561462E-02  0.1293316E+00
         -1   -1    0    0    0  501 -0.00000000000E+00  0.00000000000E+00  0.16079508587E+02  0.16079508587E+02  0.00000000000E+00 0. -1.
          1   -1    0    0  501    0  0.00000000000E+00 -0.00000000000E+00 -0.10282450545E+04  0.10282450545E+04  0.00000000000E+00 0.  1.
         25    2    1    2    0    0  0.49202561391E+02 -0.41353712596E+02 -0.46313828476E+03  0.48402335797E+03  0.12510203300E+03 0.  0.
          5    1    3    3  502    0  0.55623543697E+02 -0.32305198797E+02 -0.46709671739E+03  0.47152350978E+03  0.41800000000E+01 0. -1.
         -5    1    3    3    0  502 -0.64209823056E+01 -0.90485137989E+01  0.39584326352E+01  0.12499848186E+02  0.41800000000E+01 0. -1.
        -11    1    1    2    0    0  0.20320484993E+02  0.36906334843E+02 -0.21389366182E+03  0.21800343628E+03  0.00000000000E+00 0.  1.
         11    1    1    2    0    0 -0.69523046384E+02  0.44473777533E+01 -0.33513359929E+03  0.34229776880E+03  0.00000000000E+00 0. -1.
</event>
<event>
 7    1  0.2651429E-009  0.1328516E+03  0.7561462E-02  0.1223285E+00
         -1   -1    0    0    0  501 -0.00000000000E+00  0.00000000000E+00  0.13346374948E+03  0.13346374948E+03  0.00000000000E+00 0.  1.
          1   -1    0    0  501    0  0.00000000000E+00 -0.00000000000E+00 -0.21130140469E+03  0.21130140469E+03  0.00000000000E+00 0. -1.
         25    2    1    2    0    0  0.97699788372E+02  0.65006654075E+01  0.42785583463E+02  0.16450810559E+03  0.12507918833E+03 0.  0.
          5    1    3    3  502    0  0.11565790074E+03  0.26929450559E+02  0.65475710850E+01  0.11900541332E+03  0.41800000000E+01 0. -1.
         -5    1    3    3    0  502 -0.17958112372E+02 -0.20428785152E+02  0.36238012378E+02  0.45502692270E+02  0.41800000000E+01 0. -1.
        -11    1    1    2    0    0 -0.12210871900E+02  0.25343405719E+02  0.10867938660E+01  0.28152703723E+02  0.00000000000E+00 0.  1.
         11    1    1    2    0    0 -0.85488916473E+02 -0.31844071127E+02 -0.12171003253E+03  0.15210434486E+03  0.00000000000E+00 0. -1.
</event>
<event>
 7    1  0.2651429E-009  0.8819400E+02  0.7561462E-02  0.1307285E+00
         -2   -1    0    0    0  501 -0.00000000000E+00  0.00000000000E+00  0.15878893940E+03  0.15878893940E+03  0.00000000000E+00 0.  1.
          2   -1    0    0  501    0  0.00000000000E+00 -0.00000000000E+00 -0.83024102863E+02  0.83024102863E+02  0.00000000000E+00 0. -1.
         25    2    1    2    0    0 -0.30787367838E+02  0.33721577433E+02  0.30398851736E+02  0.13659002831E+03  0.12509092231E+03 0.  0.
          5    1    3    3  502    0 -0.10235788277E+02 -0.20662283200E+02 -0.39284236141E+02  0.45743031358E+02  0.41800000000E+01 0.  1.
         -5    1    3    3    0  502 -0.20551579561E+02  0.54383860633E+02  0.69683087877E+02  0.90846996956E+02  0.41800000000E+01 0.  1.
        -11    1    1    2    0    0 -0.25259847667E+02 -0.28942695521E+02  0.14502910428E+02  0.41061830683E+02  0.00000000000E+00 0. -1.
         11    1    1    2    0    0  0.56047215505E+02 -0.47788819124E+01  0.30863074370E+02  0.64161183263E+02  0.00000000000E+00 0.  1.
</event>
<event>
 7    1  0.2651429E-009  0.1419466E+03  0.7561462E-02  0.1210733E+00
         -2   -1    0    0    0  501 -0.00000000000E+00  0.00000000000E+00  0.34571178607E+02  0.34571178607E+02  0.00000000000E+00 0.  1.
          2   -1    0    0  501    0  0.00000000000E+00 -0.00000000000E+00 -0.10263220396E+04  0.10263220396E+04  0.00000000000E+00 0. -1.
         25    2    1    2    0    0  0.61885997472E+02 -0.10349427055E+03 -0.78781508720E+03  0.80674736644E+03  0.12509101060E+03 0.  0.
          5    1    3    3  502    0  0.47113509570E+02 -0.27514085019E+02 -0.95178533208E+02  0.10978676260E+03  0.41800000000E+01 0. -1.
         -5    1    3    3    0  502  0.14772487902E+02 -0.75980185527E+02 -0.69263655399E+03  0.69696060385E+03  0.41800000000E+01 0. -1.
        -11    1    1    2    0    0  0.99274632670E+01  0.72944523552E+02 -0.98799805037E+02  0.12321063070E+03  0.00000000000E+00 0. -1.
         11    1    1    2    0    0 -0.71813460739E+02  0.30549746994E+02 -0.10513596873E+03  0.13093522103E+03  0.00000000000E+00 0.  1.
</event>
<event>
 7    1  0.2651429E-009  0.1274077E+03  0.7561462E-02  0.1231354E+00
          2   -1    0    0  501    0  0.00000000000E+00  0.00000000000E+00  0.41915720504E+03  0.41915720504E+03  0.00000000000E+00 0.  1.
         -2   -1    0    0    0  501 -0.00000000000E+00 -0.00000000000E+00 -0.42789495713E+02  0.42789495713E+02  0.00000000000E+00 0. -1.
         25    2    1    2    0    0  0.47248425710E+02 -0.54774588108E+02  0.15451362404E+03  0.21155182488E+03  0.12508815036E+03 0.  0.
          5    1    3    3  502    0  0.48359486946E+02 -0.90568645554E+02  0.13758233468E+03  0.17171980303E+03  0.41800000000E+01 0.  1.
         -5    1    3    3    0  502 -0.11110612364E+01  0.35794057445E+02  0.16931289357E+02  0.39832021851E+02  0.41800000000E+01 0.  1.
        -11    1    1    2    0    0  0.22725582623E+02  0.37632168851E+02  0.79297348662E+02  0.90668085581E+02  0.00000000000E+00 0. -1.
         11    1    1    2    0    0 -0.69974008333E+02  0.17142419257E+02  0.14255673662E+03  0.15972679029E+03  0.00000000000E+00 0.  1.
</event>
<event>
 6    1  0.2651429E-009  0.1210139E+03  0.7561462E-02  0.1241434E+00
         -3   -1    0    0    0  501 -0.00000000000E+00  0.00000000000E+00  0.65125784960E+02  0.65125784960E+02  0.00000000000E+00 0.  1.
          3   -1    0    0  501    0  0.00000000000E+00 -0.00000000000E+00 -0.34652364421E+03  0.34652364421E+03  0.00000000000E+00 0. -1.
          5    1    1    2  502    0 -0.87146172971E+02  0.61763221336E+02 -0.17570129695E+03  0.20566372827E+03  0.41800000000E+01 0.  1.
         -5    1    1    2    0  502  0.10390181082E+02 -0.39727085726E+02 -0.73461292228E+02  0.84262868804E+02  0.41800000000E+01 0.  1.
        -11    1    1    2    0    0  0.79075053389E+01 -0.23704104740E+02 -0.45197218365E+02  0.51644958807E+02  0.00000000000E+00 0. -1.
         11    1    1    2    0    0  0.68848486550E+02  0.16679691301E+01  0.12961948299E+02  0.70077873291E+02  0.00000000000E+00 0.  1.
</event>
<event>
 7    1  0.2651429E-009  0.9723354E+02  0.7561462E-02  0.1286223E+00
         -1   -1    0    0    0  501 -0.00000000000E+00  0.00000000000E+00  0.26754179651E+03  0.26754179651E+03  0.00000000000E+00 0.  1.
          1   -1    0    0  501    0  0.00000000000E+00 -0.00000000000E+00 -0.61454861937E+02  0.61454861937E+02  0.00000000000E+00 0. -1.
         25    2    1    2    0    0 -0.68591464740E+01 -0.73047639515E+02  0.13008551689E+03  0.19481462336E+03  0.12508992862E+03 0.  0.
          5    1    3    3  502    0 -0.93996486248E+01 -0.90709290912E+02  0.34665917208E+02  0.97651047449E+02  0.41800000000E+01 0. -1.
         -5    1    3    3    0  502  0.25405021509E+01  0.17661651397E+02  0.95419599682E+02  0.97163575915E+02  0.41800000000E+01 0. -1.
        -11    1    1    2    0    0 -0.15748170050E+02  0.50587808283E+02  0.13346783847E+01  0.52999175212E+02  0.00000000000E+00 0. -1.
         11    1    1    2    0    0  0.22607316524E+02  0.22459831232E+02  0.74666739301E+02  0.81182859873E+02  0.00000000000E+00 0.  1.
</event>
<event>
 7    1  0.2651429E-009  0.1499821E+03  0.7561462E-02  0.1200495E+00
          2   -1    0    0  501    0  0.00000000000E+00  0.00000000000E+00  0.14351212169E+03  0.14351212169E+03  0.00000000000E+00 0. -1.
         -2   -1    0    0    0  501 -0.00000000000E+00 -0.00000000000E+00 -0.16648807437E+03  0.16648807437E+03  0.00000000000E+00 0.  1.
         25    2    1    2    0    0 -0.20240158941E+02 -0.10189330032E+03 -0.49188019191E+02  0.16988260755E+03  0.12509488572E+03 0.  0.
          5    1    3    3  502    0  0.92962559420E+01 -0.12459882758E+03 -0.40357870781E+02  0.13136787409E+03  0.41800000000E+01 0. -1.
         -5    1    3    3    0  502 -0.29536414883E+02  0.22705527263E+02 -0.88301484098E+01  0.38514733458E+02  0.41800000000E+01 0. -1.
        -11    1    1    2    0    0  0.16118352136E+01  0.11479125815E+03  0.24556005604E+02  0.11739943940E+03  0.00000000000E+00 0. -1.
         11    1    1    2    0    0  0.18628323727E+02 -0.12897957831E+02  0.16560609012E+01  0.22718149106E+02  0.00000000000E+00 0.  1.
</event>
<event>
 7    1  0.2651429E-009  0.1059831E+03  0.7561462E-02  0.1268195E+00
         -2   -1    0    0    0  501 -0.00000000000E+00  0.00000000000E+00  0.17564694406E+02  0.17564694406E+02  0.00000000000E+00 0.  1.
          2   -1    0    0  501    0  0.00000000000E+00 -0.00000000000E+00 -0.13755737199E+04  0.13755737199E+04  0.00000000000E+00 0. -1.
         25    2    1    2    0    0 -0.44668883414E+02  0.51523470153E+02 -0.10849315418E+04  0.10942454937E+04  0.12508706145E+03 0.  0.
          5    1    3    3  502    0  0.19442658082E+02  0.63657405352E+02 -0.34196626776E+03  0.34840878705E+03  0.41800000000E+01 0.  1.
         -5    1    3    3    0  502 -0.64111541495E+02 -0.12133935199E+02 -0.74296527401E+03  0.74583670661E+03  0.41800000000E+01 0.  1.
        -11    1    1    2    0    0  0.26428954322E+02 -0.55276092279E+02 -0.27348738557E+03  0.28026645548E+03  0.00000000000E+00 0. -1.
         11    1    1    2    0    0  0.18239929092E+02  0.37526221264E+01  0.40990181588E+00  0.18626465193E+02  0.00000000000E+00 0.  1.
</event>
<event>
 7    1  0.2651429E-009  0.8877888E+02  0.7561462E-02  0.1305836E+00
          1   -1    0    0  501    0  0.00000000000E+00  0.00000000000E+00  0.19919980043E+03  0.19919980043E+03  0.00000000000E+00 0.  1.
         -1   -1    0    0    0  501 -0.00000000000E+00 -0.00000000000E+00 -0.92957377767E+02  0.92957377767E+02  0.00000000000E+00 0. -1.
         25    2    1    2    0    0 -0.41360345357E+02 -0.58345353078E+02  0.10524993352E+03  0.17843815546E+03  0.12509104054E+03 0.  0.
          5    1    3    3  502    0 -0.17844469719E+02 -0.28083838739E+02 -0.25496302145E+02  0.42126724546E+02  0.41800000000E+01 0.  1.
         -5    1    3    3    0  502 -0.23515875638E+02 -0.30261514339E+02  0.13074623567E+03  0.13631143091E+03  0.41800000000E+01 0.  1.
        -11    1    1    2    0    0  0.28319715556E+02 -0.14257624657E+02  0.20073321561E+02  0.37526315946E+02  0.00000000000E+00 0.  1.
         11    1    1    2    0    0  0.13040629802E+02  0.72602977736E+02 -0.19080832423E+02  0.76192706788E+02  0.00000000000E+00 0. -1.
</event>
<event>
 7    1  0.2651429E-009  0.8864231E+02  0.7561462E-02  0.1306173E+00
          4   -1    0    0  501    0  0.00000000000E+00  0.00000000000E+00  0.52582021592E+02  0.52582021592E+02  0.00000000000E+00 0.  1.
         -4   -1    0    0    0  501 -0.00000000000E+00 -0.00000000000E+00 -0.24806733712E+03  0.24806733712E+03  0.00000000000E+00 0. -1.
         25    2    1    2    0    0 -0.10593295600E+02  0.20045806154E+01 -0.64671196108E+02  0.14123183530E+03  0.12509129243E+03 0.  0.
          5    1    3    3  502    0 -0.41619510059E+02 -0.33568810989E+02 -0.75511609289E+02  0.92620322965E+02  0.41800000000E+01 0. -1.
         -5    1    3    3    0  502  0.31026214459E+02  0.35573391604E+02  0.10840413181E+02  0.48611512338E+02  0.41800000000E+01 0. -1.
        -11    1    1    2    0    0 -0.32741246369E+02  0.15961864266E+01 -0.15663661396E+02  0.36330253416E+02  0.00000000000E+00 0.  1.
         11    1    1    2    0    0  0.43334541969E+02 -0.36007670421E+01 -0.11515045802E+03  0.12308726999E+03  0.00000000000E+00 0. -1.
</event>
<event>
 7    1  0.2651429E-009  0.1201813E+03  0.7561462E-02  0.1242798E+00
         -2   -1    0    0    0  501 -0.00000000000E+00  0.00000000000E+00  0.23701262524E+02  0.23701262524E+02  0.00000000000E+00 0.  1.
          2   -1    0    0  501    0  0.00000000000E+00 -0.00000000000E+00 -0.87788272335E+03  0.87788272335E+03  0.00000000000E+00 0. -1.
         25    2    1    2    0    0 -0.67065331644E+02  0.64768098190E+02 -0.51818140822E+03  0.54115824981E+03  0.12509042434E+03 0.  0.
          5    1    3    3  502    0 -0.15816315442E+00  0.37372452559E+02 -0.40531670650E+03  0.40705752689E+03  0.41800000000E+01 0. -1.
         -5    1    3    3    0  502 -0.66907168490E+02  0.27395645631E+02 -0.11286470172E+03  0.13410072293E+03  0.41800000000E+01 0. -1.
        -11    1    1    2    0    0  0.16802914277E+02  0.23424342346E+02 -0.68959099712E+02  0.74742191402E+02  0.00000000000E+00 0.  1.
         11    1    1    2    0    0  0.50262417367E+02 -0.88192440536E+02 -0.26704095289E+03  0.28568354466E+03  0.00000000000E+00 0. -1.
</event>
<event>
 7    1  0.2651429E-009  0.2471504E+03  0.7561462E-02  0.1115119E+00
          1   -1    0    0  501    0  0.00000000000E+00  0.00000000000E+00  0.99976729523E+02  0.99976729523E+02  0.00000000000E+00 0. -1.
         -1   -1    0    0    0  501 -0.00000000000E+00 -0.00000000000E+00 -0.69151390553E+03  0.69151390553E+03  0.00000000000E+00 0.  1.
         25    2    1    2    0    0 -0.16914740702E+03 -0.16527245700E+03 -0.24823093597E+03  0.36494643730E+03  0.12506587939E+03 0.  0.
          5    1    3    3  502    0 -0.28892953568E+02 -0.72137635427E+02 -0.15254608057E+03  0.17124958484E+03  0.41800000000E+01 0.  1.
         -5    1    3    3    0  502 -0.14025445345E+03 -0.93134821575E+02 -0.95684855391E+02  0.19369685246E+03  0.41800000000E+01 0.  1.
        -11    1    1    2    0    0  0.13379211997E+03  0.80317423807E+02 -0.25530975562E+03  0.29922281205E+03  0.00000000000E+00 0.  1.
         11    1    1    2    0    0  0.35355287049E+02  0.84955033195E+02 -0.87996484421E+02  0.12732138570E+03  0.00000000000E+00 0. -1.
</event>
<event>
 7    1  0.2651429E-009  0.1921867E+03  0.7561462E-02  0.1156504E+00
         -2   -1    0    0    0  501 -0.00000000000E+00  0.00000000000E+00  0.72993912957E+02  0.72993912957E+02  0.00000000000E+00 0. -1.
          2   -1    0    0  501    0  0.00000000000E+00 -0.00000000000E+00 -0.57142291782E+03  0.57142291782E+03  0.00000000000E+00 0.  1.
         25    2    1    2    0    0 -0.13924055847E+03  0.96298654102E+02 -0.22574366781E+03  0.30865694165E+03  0.12509012817E+03 0.  0.
          5    1    3    3  502    0 -0.10742977586E+02  0.77773913661E+02 -0.10612022865E+03  0.13207258816E+03  0.41800000000E+01 0.  1.
         -5    1    3    3    0  502 -0.12849758088E+03  0.18524740441E+02 -0.11962343916E+03  0.17658435349E+03  0.41800000000E+01 0.  1.
        -11    1    1    2    0    0  0.11667809997E+03 -0.55434014193E+02 -0.25498105010E+03  0.28583569555E+03  0.00000000000E+00 0.  1.
         11    1    1    2    0    0  0.22562458494E+02 -0.40864639910E+02 -0.17704286958E+02  0.49924193583E+02  0.00000000000E+00 0. -1.
</event>
<event>
 7    1  0.2651429E-009  0.7389920E+02  0.7561462E-02  0.1347314E+00
         -1   -1    0    0    0  501 -0.00000000000E+00  0.00000000000E+00  0.56779465355E+02  0.56779465355E+02  0.00000000000E+00 0.  1.
          1   -1    0    0  501    0  0.00000000000E+00 -0.00000000000E+00 -0.21579237648E+03  0.21579237648E+03  0.00000000000E+00 0. -1.
         25    2    1    2    0    0  0.25864926569E+02 -0.61821119847E+01 -0.96850481440E+02  0.16042055926E+03  0.12509007612E+03 0.  0.
          5    1    3    3  502    0  0.15428745450E+02  0.22157237005E+02  0.23642248466E+02  0.36130563937E+02  0.41800000000E+01 0. -1.
         -5    1    3    3    0  502  0.10436181119E+02 -0.28339348990E+02 -0.12049272991E+03  0.12428999532E+03  0.41800000000E+01 0. -1.
        -11    1    1    2    0    0  0.31614421433E+02 -0.30966105683E+01 -0.82942052438E+01  0.32830694177E+02  0.00000000000E+00 0.  1.
         11    1    1    2    0    0 -0.57479348002E+02  0.92787225530E+01 -0.53868224438E+02  0.79320588393E+02  0.00000000000E+00 0. -1.
</event>
<event>
 7    1  0.2651429E-009  0.2225203E+03  0.7561462E-02  0.1132018E+00
         -2   -1    0    0    0  501 -0.00000000000E+00  0.00000000000E+00  0.49946986471E+02  0.49946986471E+02  0.00000000000E+00 0. -1.
          2   -1    0    0  501    0  0.00000000000E+00 -0.00000000000E+00 -0.10342525033E+04  0.10342525033E+04  0.00000000000E+00 0.  1.
         25    2    1    2    0    0  0.19520091967E+03 -0.38800992916E+02 -0.48744274395E+03  0.54116201512E+03  0.12508789664E+03 0.  0.
          5    1    3    3  502    0  0.38546769123E+02  0.43322294261E+02 -0.11952183991E+03  0.13291206569E+03  0.41800000000E+01 0. -1.
         -5    1    3    3    0  502  0.15665415055E+03 -0.82123287177E+02 -0.36792090403E+03  0.40824994943E+03  0.41800000000E+01 0. -1.
        -11    1    1    2    0    0 -0.10608038069E+02  0.22243183087E+02 -0.12664919136E+03  0.12902444473E+03  0.00000000000E+00 0.  1.
         11    1    1    2    0    0 -0.18459288161E+03  0.16557809829E+02 -0.37021358155E+03  0.41401302995E+03  0.00000000000E+00 0. -1.
</event>
<event>
 7    1  0.2651429E-009  0.8380445E+02  0.7561462E-02  0.1318589E+00
          1   -1    0    0  501    0  0.00000000000E+00  0.00000000000E+00  0.47896949013E+03  0.47896949013E+03  0.00000000000E+00 0. -1.
         -1   -1    0    0    0  501 -0.00000000000E+00 -0.00000000000E+00 -0.33259921347E+02  0.33259921347E+02  0.00000000000E+00 0.  1.
         25    2    1    2    0    0 -0.40308883742E+02 -0.14866267279E+02  0.38786673205E+03  0.40979724734E+03  0.12508944834E+03 0.  0.
          5    1    3    3  502    0  0.19368271139E+02  0.51844264587E+01  0.30479065410E+03  0.30547802446E+03  0.41800000000E+01 0. -1.
         -5    1    3    3    0  502 -0.59677154881E+02 -0.20050693738E+02  0.83076077958E+02  0.10431922288E+03  0.41800000000E+01 0. -1.
        -11    1    1    2    0    0 -0.21176804158E+02  0.50311280377E+01  0.10247641581E+02  0.24057918482E+02  0.00000000000E+00 0.  1.
         11    1    1    2    0    0  0.61485687900E+02  0.98351392413E+01  0.47595195151E+02  0.78374245654E+02  0.00000000000E+00 0. -1.
</event>
<event>
 7    1  0.2651429E-009  0.1661362E+03  0.7561462E-02  0.1181938E+00
         -3   -1    0    0    0  501 -0.00000000000E+00  0.00000000000E+00  0.65352872606E+03  0.65352872606E+03  0.00000000000E+00 0.  1.
          3   -1    0    0  501    0  0.00000000000E+00 -0.00000000000E+00 -0.50162490686E+02  0.50162490686E+02  0.00000000000E+00 0. -1.
         25    2    1    2    0    0  0.36334187684E+02  0.11551281030E+03  0.44803319887E+03  0.48067157801E+03  0.12509211037E+03 0.  0.
          5    1    3    3  502    0  0.76254002930E+02  0.35021630669E+02  0.22609711280E+03  0.24120233082E+03  0.41800000000E+01 0.  1.
         -5    1    3    3    0  502 -0.39919815246E+02  0.80491179633E+02  0.22193608607E+03  0.23946924719E+03  0.41800000000E+01 0.  1.
        -11    1    1    2    0    0  0.90311469260E+01 -0.11248446082E+03  0.12479214915E+03  0.16824801940E+03  0.00000000000E+00 0.  1.
         11    1    1    2    0    0 -0.45365334610E+02 -0.30283494796E+01  0.30540887353E+02  0.54771619340E+02  0.00000000000E+00 0. -1.
</event>
<event>
 7    1  0.2651429E-009  0.1933777E+03  0.7561462E-02  0.1155450E+00
          1   -1    0    0  501    0  0.00000000000E+00  0.00000000000E+00  0.21148723191E+03  0.21148723191E+03  0.00000000000E+00 0. -1.
         -1   -1    0    0    0  501 -0.00000000000E+00 -0.00000000000E+00 -0.20685312886E+03  0.20685312886E+03  0.00000000000E+00 0.  1.
         25    2    1    2    0    0 -0.24520577629E+02 -0.17678219185E+03  0.35715355669E+02  0.22085396457E+03  0.12509070691E+03 0.  0.
          5    1    3    3  502    0 -0.55009294611E+02 -0.16572511685E+03  0.31360774877E+01  0.17469443102E+03  0.41800000000E+01 0. -1.
         -5    1    3    3    0  502  0.30488716982E+02 -0.11057074997E+02  0.32579278181E+02  0.46159533549E+02  0.41800000000E+01 0. -1.
        -11    1    1    2    0    0  0.10551827325E+02  0.13332769750E+03 -0.56559803647E+02  0.14521235268E+03  0.00000000000E+00 0.  1.
         11    1    1    2    0    0  0.13968750305E+02  0.43454494342E+02  0.25478551027E+02  0.52274043521E+02  0.00000000000E+00 0. -1.
</event>
<event>
 7    1  0.2651429E-009  0.1766198E+03  0.7561462E-02  0.1171115E+00
          1   -1    0    0  501    0  0.00000000000E+00  0.00000000000E+00  0.31456580684E+03  0.31456580684E+03  0.00000000000E+00 0. -1.
         -1   -1    0    0    0  501 -0.00000000000E+00 -0.00000000000E+00 -0.21079320816E+03  0.21079320816E+03  0.00000000000E+00 0.  1.
         25    2    1    2    0    0 -0.15355398436E+03  0.27748921633E+02 -0.12330903617E+03  0.23494926469E+03  0.12508880770E+03 0.  0.
          5    1    3    3  502    0 -0.16525915551E+03 -0.10405013159E+01 -0.11808778141E+03  0.20315970969E+03  0.41800000000E+01 0.  1.
         -5    1    3    3    0  502  0.11705171155E+02  0.28789422949E+02 -0.52212547658E+01  0.31789554996E+02  0.41800000000E+01 0.  1.
        -11    1    1    2    0    0  0.71422702247E+02 -0.64188430652E+01  0.17911110987E+03  0.19293313251E+03  0.00000000000E+00 0. -1.
         11    1    1    2    0    0  0.82131282111E+02 -0.21330078568E+02  0.47970524985E+02  0.97476617813E+02  0.00000000000E+00 0.  1.
</event>
<event>
 7    1  0.2651429E-009  0.8240210E+02  0.7561462E-02  0.1322370E+00
         -2   -1    0    0    0  501 -0.00000000000E+00  0.00000000000E+00  0.50686735967E+02  0.50686735967E+02  0.00000000000E+00 0.  1.
          2   -1    0    0  501    0  0.00000000000E+00 -0.00000000000E+00 -0.25866665234E+03  0.25866665234E+03  0.00000000000E+00 0. -1.
         25    2    1    2    0    0 -0.60059791798E+01  0.92854295717E+01 -0.17768663644E+03  0.21758615571E+03  0.12509557705E+03 0.  0.
          5    1    3    3  502    0 -0.83357829944E+01 -0.44293910441E+02 -0.17366369002E+02  0.48481944604E+02  0.41800000000E+01 0.  1.
         -5    1    3    3    0  502  0.23298038147E+01  0.53579340012E+02 -0.16032026744E+03  0.16910421111E+03  0.41800000000E+01 0.  1.
        -11    1    1    2    0    0  0.33935020676E+02  0.51238660006E+01  0.14327276474E+02  0.37190193361E+02  0.00000000000E+00 0.  1.
         11    1    1    2    0    0 -0.27929041496E+02 -0.14409295572E+02 -0.44620556409E+02  0.54577039238E+02  0.00000000000E+00 0. -1.
</event>
<event>
 7    1  0.2651429E-009  0.1074237E+03  0.7561462E-02  0.1265417E+00
          2   -1    0    0  501    0  0.00000000000E+00  0.00000000000E+00  0.10871613820E+03  0.10871613820E+03  0.00000000000E+00 0. -1.
         -2   -1    0    0    0  501 -0.00000000000E+00 -0.00000000000E+00 -0.12931726197E+03  0.12931726197E+03  0.00000000000E+00 0.  1.
         25    2    1    2    0    0 -0.21698836452E+02 -0.13097749291E+02 -0.52658062812E+02  0.13806839328E+03  0.12509044369E+03 0.  0.
          5    1    3    3  502    0 -0.45732537120E+02  0.41699091069E+02 -0.64750141381E+01  0.62367277923E+02  0.41800000000E+01 0. -1.
         -5    1    3    3    0  502  0.24033700668E+02 -0.54796840360E+02 -0.46183048673E+02  0.75701115356E+02  0.41800000000E+01 0. -1.
        -11    1    1    2    0    0  0.49862072217E+02  0.31697858856E+02  0.29706814493E+02  0.66132256344E+02  0.00000000000E+00 0. -1.
         11    1    1    2    0    0 -0.28163235765E+02 -0.18600109565E+02  0.23501245487E+01  0.33832750553E+02  0.00000000000E+00 0.  1.
</event>
<event>
 7    1  0.2651429E-009  0.1337082E+03  0.7561462E-02  0.1222055E+00
         -2   -1    0    0    0  501 -0.00000000000E+00  0.00000000000E+00  0.78072587029E+02  0.78072587029E+02  0.00000000000E+00 0.  1.
          2   -1    0    0  501    0  0.00000000000E+00 -0.00000000000E+00 -0.27153529214E+03  0.27153529214E+03  0.00000000000E+00 0. -1.
         25    2    1    2    0    0  0.76975195015E+02  0.43369446470E+02 -0.14686184779E+03  0.21218448329E+03  0.12509101917E+03 0.  0.
          5    1    3    3  502    0  0.45620990947E+02 -0.41395902105E+02 -0.71187877347E+02  0.94234185979E+02  0.41800000000E+01 0. -1.
         -5    1    3    3    0  502  0.31354204068E+02  0.84765348576E+02 -0.75673970445E+02  0.11795029731E+03  0.41800000000E+01 0. -1.
        -11    1    1    2    0    0 -0.77857157306E+02 -0.62940282231E+01 -0.59464219653E+02  0.98169980921E+02  0.00000000000E+00 0. -1.
         11    1    1    2    0    0  0.88196229069E+00 -0.37075418247E+02  0.12863362333E+02  0.39253414962E+02  0.00000000000E+00 0.  1.
</event>
<event>
 7    1  0.2651429E-009  0.1089716E+03  0.7561462E-02  0.1262486E+00
         -2   -1    0    0    0  501 -0.00000000000E+00  0.00000000000E+00  0.47143076812E+02  0.47143076812E+02  0.00000000000E+00 0.  1.
          2   -1    0    0  501    0  0.00000000000E+00 -0.00000000000E+00 -0.27341380860E+03  0.27341380860E+03  0.00000000000E+00 0. -1.
         25    2    1    2    0    0 -0.17437253004E+02  0.29939129447E+02 -0.14168597611E+03  0.19216149375E+03  0.12510281608E+03 0.  0.
          5    1    3    3  502    0 -0.15431300521E+02  0.75365040210E+02 -0.56603482918E+02  0.95600423640E+02  0.41800000000E+01 0. -1.
         -5    1    3    3    0  502 -0.20059524827E+01 -0.45425910764E+02 -0.85082493191E+02  0.96561070115E+02  0.41800000000E+01 0. -1.
        -11    1    1    2    0    0 -0.36422407904E+02 -0.14581858566E+02 -0.45610912310E+02  0.60162926446E+02  0.00000000000E+00 0. -1.
         11    1    1    2    0    0  0.53859660908E+02 -0.15357270881E+02 -0.38973843374E+02  0.68232465216E+02  0.00000000000E+00 0.  1.
</event>
<event>
 7    1  0.2651429E-009  0.1692296E+03  0.7561462E-02  0.1178654E+00
         -1   -1    0    0    0  501 -0.00000000000E+00  0.00000000000E+00  0.73761849472E+02  0.73761849472E+02  0.00000000000E+00 0.  1.
          1   -1    0    0  501    0  0.00000000000E+00 -0.00000000000E+00 -0.41026526783E+03  0.41026526783E+03  0.00000000000E+00 0. -1.
         25    2    1    2    0    0 -0.72440124139E+02  0.11325028991E+03 -0.18634810301E+03  0.26162322652E+03  0.12509155611E+03 0.  0.
          5    1    3    3  502    0  0.34296011795E+02  0.18580874395E+02 -0.26588033133E+02  0.47390518295E+02  0.41800000000E+01 0. -1.
         -5    1    3    3    0  502 -0.10673613593E+03  0.94669415512E+02 -0.15976006987E+03  0.21423270822E+03  0.41800000000E+01 0. -1.
        -11    1    1    2    0    0  0.73376968192E+01  0.12728385976E+02  0.15122605887E+01  0.14769581451E+02  0.00000000000E+00 0.  1.
         11    1    1    2    0    0  0.65102427319E+02 -0.12597867588E+03 -0.15166757594E+03  0.20763430933E+03  0.00000000000E+00 0. -1.
</event>
<event>
 7    1  0.2651429E-009  0.1590030E+03  0.7561462E-02  0.1189827E+00
          1   -1    0    0  501    0  0.00000000000E+00  0.00000000000E+00  0.11247867303E+03  0.11247867303E+03  0.00000000000E+00 0. -1.
         -1   -1    0    0    0  501 -0.00000000000E+00 -0.00000000000E+00 -0.34866518689E+03  0.34866518689E+03  0.00000000000E+00 0.  1.
         25    2    1    2    0    0 -0.10151523338E+03  0.10205946027E+03 -0.28479134398E+02  0.19282082991E+03  0.12508930934E+03 0.  0.
          5    1    3    3  502    0 -0.49490615447E+02  0.10857959184E+03 -0.57743730871E+02  0.13262978412E+03  0.41800000000E+01 0. -1.
         -5    1    3    3    0  502 -0.52024617932E+02 -0.65201315643E+01  0.29264596473E+02  0.60191045790E+02  0.41800000000E+01 0. -1.
        -11    1    1    2    0    0  0.53747272219E+02 -0.36816159202E+02 -0.27325255606E+02  0.70646078754E+02  0.00000000000E+00 0. -1.
         11    1    1    2    0    0  0.47767961160E+02 -0.65243301073E+02 -0.18038212386E+03  0.19767695125E+03  0.00000000000E+00 0.  1.
</event>
<event>
 7    1  0.2651429E-009  0.2075978E+03  0.7561462E-02  0.1143482E+00
          2   -1    0    0  501    0  0.00000000000E+00  0.00000000000E+00  0.15004615762E+04  0.15004615762E+04  0.00000000000E+00 0. -1.
         -2   -1    0    0    0  501 -0.00000000000E+00 -0.00000000000E+00 -0.34229694863E+02  0.34229694863E+02  0.00000000000E+00 0.  1.
         25    2    1    2    0    0 -0.17556088195E+03 -0.26746001242E+02  0.45922802306E+03  0.50801036278E+03  0.12508868723E+03 0.  0.
          5    1    3    3  502    0 -0.95953262204E+02 -0.75130619494E+02  0.29398174400E+03  0.31826777518E+03  0.41800000000E+01 0.  1.
         -5    1    3    3    0  502 -0.79607619749E+02  0.48384618252E+02  0.16524627906E+03  0.18974258760E+03  0.41800000000E+01 0.  1.
        -11    1    1    2    0    0  0.39689914546E+02 -0.32962826545E+02  0.26855284669E+03  0.27346383438E+03  0.00000000000E+00 0.  1.
         11    1    1    2    0    0  0.13587096741E+03  0.59708827787E+02  0.73845101156E+03  0.75321707387E+03  0.00000000000E+00 0. -1.
</event>
<event>
 7    1  0.2651429E-009  0.2029080E+03  0.7561462E-02  0.1147308E+00
         -2   -1    0    0    0  501 -0.00000000000E+00  0.00000000000E+00  0.54297646293E+02  0.54297646293E+02  0.00000000000E+00 0.  1.
          2   -1    0    0  501    0  0.00000000000E+00 -0.00000000000E+00 -0.21295089720E+04  0.21295089720E+04  0.00000000000E+00 0. -1.
         25    2    1    2    0    0  0.14495157570E+03  0.10155570165E+03 -0.19193811849E+04  0.19315786376E+04  0.12508948979E+03 0.  0.
          5    1    3    3  502    0  0.73982755008E+02  0.12200850615E+03 -0.12713457393E+04  0.12793345868E+04  0.41800000000E+01 0.  1.
         -5    1    3    3    0  502  0.70968820691E+02 -0.20452804494E+02 -0.64803544558E+03  0.65224405084E+03  0.41800000000E+01 0.  1.
        -11    1    1    2    0    0 -0.93856635422E+02 -0.10116265286E+03 -0.14466231514E+03  0.19992532548E+03  0.00000000000E+00 0. -1.
         11    1    1    2    0    0 -0.51094940277E+02 -0.39304878838E+00 -0.11167825635E+02  0.52302655179E+02  0.00000000000E+00 0.  1.
</event>
<event>
 7    1  0.2651429E-009  0.1684440E+03  0.7561462E-02  0.1179480E+00
          2   -1    0    0  501    0  0.00000000000E+00  0.00000000000E+00  0.13634055088E+04  0.13634055088E+04  0.00000000000E+00 0. -1.
         -2   -1    0    0    0  501 -0.00000000000E+00 -0.00000000000E+00 -0.26062946979E+02  0.26062946979E+02  0.00000000000E+00 0.  1.
         25    2    1    2    0    0 -0.14364917692E+03 -0.46393839306E+01  0.90129552026E+03  0.92121543052E+03  0.12509054587E+03 0.  0.
          5    1    3    3  502    0 -0.77214306371E+02 -0.63473904880E+02  0.41645150674E+03  0.42829932942E+03  0.41800000000E+01 0.  1.
         -5    1    3    3    0  502 -0.66434870551E+02  0.58834520950E+02  0.48484401352E+03  0.49291610110E+03  0.41800000000E+01 0.  1.
        -11    1    1    2    0    0  0.43844856805E+02 -0.14898401746E+02  0.46403519303E+02  0.65556238807E+02  0.00000000000E+00 0.  1.
         11    1    1    2    0    0  0.99804320117E+02  0.19537785677E+02  0.38964352220E+03  0.40269678640E+03  0.00000000000E+00 0. -1.
</event>
<event>
 7    1  0.2651429E-009  0.1984149E+03  0.7561462E-02  0.1151083E+00
          1   -1    0    0  501    0  0.00000000000E+00  0.00000000000E+00  0.23855385518E+03  0.23855385518E+03  0.00000000000E+00 0. -1.
         -1   -1    0    0    0  501 -0.00000000000E+00 -0.00000000000E+00 -0.20907624899E+03  0.20907624899E+03  0.00000000000E+00 0.  1.
         25    2    1    2    0    0 -0.11408775800E+03 -0.15347189097E+03  0.55953205603E+02  0.23526253477E+03  0.12509221082E+03 0.  0.
          5    1    3    3  502    0 -0.10069806093E+03 -0.13813058678E+03  0.91613167146E+02  0.19398609041E+03  0.41800000000E+01 0.  1.
         -5    1    3    3    0  502 -0.13389697068E+02 -0.15341304186E+02 -0.35659961543E+02  0.41276444359E+02  0.41800000000E+01 0.  1.
        -11    1    1    2    0    0  0.39733494114E+02  0.11430306294E+03 -0.39561280552E+02  0.12731471113E+03  0.00000000000E+00 0.  1.
         11    1    1    2    0    0  0.74354263886E+02  0.39168828029E+02  0.13085681136E+02  0.85052858259E+02  0.00000000000E+00 0. -1.
</event>
<event>
 7    1  0.2651429E-009  0.1185969E+03  0.7561462E-02  0.1245430E+00
         -3   -1    0    0    0  501 -0.00000000000E+00  0.00000000000E+00  0.12289092040E+03  0.12289092040E+03  0.00000000000E+00 0.  1.
          3   -1    0    0  501    0  0.00000000000E+00 -0.00000000000E+00 -0.12877452935E+03  0.12877452935E+03  0.00000000000E+00 0. -1.
         25    2    1    2    0    0  0.53741265225E+02 -0.29629115753E+02  0.14059744134E+02  0.14003580830E+03  0.12508534332E+03 0.  0.
          5    1    3    3  502    0  0.11902466901E+01  0.41639913994E+02 -0.18267516871E+02  0.45677934467E+02  0.41800000000E+01 0. -1.
         -5    1    3    3    0  502  0.52551018535E+02 -0.71269029746E+02  0.32327261004E+02  0.94357873832E+02  0.41800000000E+01 0. -1.
        -11    1    1    2    0    0 -0.73951217585E+02  0.40243681336E+01 -0.13291437649E+01  0.74072564046E+02  0.00000000000E+00 0.  1.
         11    1    1    2    0    0  0.20209952360E+02  0.25604747619E+02 -0.18614209314E+02  0.37557077408E+02  0.00000000000E+00 0. -1.
</event>
<event>
 7    1  0.2651429E-009  0.1289301E+03  0.7561462E-02  0.1229052E+00
         -2   -1    0    0    0  501 -0.00000000000E+00  0.00000000000E+00  0.23734746017E+02  0.23734746017E+02  0.00000000000E+00 0. -1.
          2   -1    0    0  501    0  0.00000000000E+00 -0.00000000000E+00 -0.96705072518E+03  0.96705072518E+03  0.00000000000E+00 0.  1.
         25    2    1    2    0    0  0.61556834189E+02 -0.85533219001E+02 -0.53498380424E+03  0.55942745003E+03  0.12508487381E+03 0.  0.
          5    1    3    3  502    0 -0.21651508338E+01 -0.58182639894E+02 -0.79239487329E+02  0.98418881397E+02  0.41800000000E+01 0. -1.
         -5    1    3    3    0  502  0.63721985023E+02 -0.27350579106E+02 -0.45574431691E+03  0.46100856863E+03  0.41800000000E+01 0. -1.
        -11    1    1    2    0    0 -0.73215345085E+02  0.40853269446E+02 -0.32948098682E+03  0.33998117162E+03  0.00000000000E+00 0.  1.
         11    1    1    2    0    0  0.11658510896E+02  0.44679949555E+02 -0.78851188103E+02  0.91376849550E+02  0.00000000000E+00 0. -1.
</event>
<event>
 7    1  0.2651429E-009  0.7947364E+02  0.7561462E-02  0.1330552E+00
          2   -1    0    0  501    0  0.00000000000E+00  0.00000000000E+00  0.29435385453E+03  0.29435385453E+03  0.00000000000E+00 0. -1.
         -2   -1    0    0    0  501 -0.00000000000E+00 -0.00000000000E+00 -0.43709147819E+02  0.43709147819E+02  0.00000000000E+00 0.  1.
         25    2    1    2    0    0  0.95427837156E+01 -0.26011624887E+02  0.10702792516E+03  0.16694334553E+03  0.12508970582E+03 0.  0.
          5    1    3    3  502    0  0.27628665242E+02  0.27200351626E+02  0.10335515533E+03  0.11046702135E+03  0.41800000000E+01 0.  1.
         -5    1    3    3    0  502 -0.18085881527E+02 -0.53211976513E+02  0.36727698315E+01  0.56476324183E+02  0.41800000000E+01 0.  1.
        -11    1    1    2    0    0 -0.15203025489E+02 -0.15492728836E+02  0.12212585144E+03  0.12403983320E+03  0.00000000000E+00 0. -1.
         11    1    1    2    0    0  0.56602417733E+01  0.41504353723E+02  0.21490930109E+02  0.47079823618E+02  0.00000000000E+00 0.  1.
</event>
<event>
 7    1  0.2651429E-009  0.1283250E+03  0.7561462E-02  0.1229962E+00
          1   -1    0    0  501    0  0.00000000000E+00  0.00000000000E+00  0.55881564783E+03  0.55881564783E+03  0.00000000000E+00 0. -1.
         -1   -1    0    0    0  501 -0.00000000000E+00 -0.00000000000E+00 -0.36110375981E+02  0.36110375981E+02  0.00000000000E+00 0.  1.
         25    2    1    2    0    0 -0.17289827043E+02  0.43682403803E+02  0.20735244326E+03  0.24667558447E+03  0.12508684075E+03 0.  0.
          5    1    3    3  502    0  0.25888808373E+01 -0.39241730463E+02  0.29323901698E+02  0.49233924529E+02  0.41800000000E+01 0.  1.
         -5    1    3    3    0  502 -0.19878707880E+02  0.82924134266E+02  0.17802854156E+03  0.19744165994E+03  0.41800000000E+01 0.  1.
        -11    1    1    2    0    0  0.38068202173E+02 -0.80726379227E+02  0.27699799122E+03  0.29102203260E+03  0.00000000000E+00 0. -1.
         11    1    1    2    0    0 -0.20778375130E+02  0.37043975424E+02  0.38354837376E+02  0.57228406743E+02  0.00000000000E+00 0.  1.
</event>
<event>
 7    1  0.2651429E-009  0.3949079E+03  0.7561462E-02  0.1045557E+00
         -2   -1    0    0    0  501 -0.00000000000E+00  0.00000000000E+00  0.11323089613E+03  0.11323089613E+03  0.00000000000E+00 0.  1.
          2   -1    0    0  501    0  0.00000000000E+00 -0.00000000000E+00 -0.18988212518E+04  0.18988212518E+04  0.00000000000E+00 0. -1.
         25    2    1    2    0    0 -0.25326017245E+03 -0.29626902003E+03 -0.40975026638E+03  0.57918904571E+03  0.12509445509E+03 0.  0.
          5    1    3    3  502    0 -0.16374164526E+03 -0.20704881934E+03 -0.35243367037E+03  0.44034929817E+03  0.41800000000E+01 0. -1.
         -5    1    3    3    0  502 -0.89518527180E+02 -0.89220200691E+02 -0.57316596011E+02  0.13883974754E+03  0.41800000000E+01 0. -1.
        -11    1    1    2    0    0  0.22987573550E+03  0.21486154650E+03 -0.11204582236E+04  0.11638019457E+04  0.00000000000E+00 0. -1.
         11    1    1    2    0    0  0.23384436947E+02  0.81407473534E+02 -0.25538186567E+03  0.26906115653E+03  0.00000000000E+00 0.  1.
</event>
<event>
 7    1  0.2651429E-009  0.1071369E+03  0.7561462E-02  0.1265966E+00
          2   -1    0    0  501    0  0.00000000000E+00  0.00000000000E+00  0.33110145069E+02  0.33110145069E+02  0.00000000000E+00 0. -1.
         -2   -1    0    0    0  501 -0.00000000000E+00 -0.00000000000E+00 -0.38310061459E+03  0.38310061459E+03  0.00000000000E+00 0.  1.
         25    2    1    2    0    0 -0.80974162677E+01  0.13421552630E+02 -0.16449783827E+03  0.20724589767E+03  0.12508244113E+03 0.  0.
          5    1    3    3  502    0 -0.23624109239E+02  0.63218893236E+02 -0.60096919279E+02  0.90464573763E+02  0.41800000000E+01 0. -1.
         -5    1    3    3    0  502  0.15526692972E+02 -0.49797340606E+02 -0.10440091899E+03  0.11678132390E+03  0.41800000000E+01 0. -1.
        -11    1    1    2    0    0 -0.13252731646E+02  0.37144637574E+02 -0.57776558781E+02  0.69953482695E+02  0.00000000000E+00 0. -1.
         11    1    1    2    0    0  0.21350147913E+02 -0.50566190204E+02 -0.12771607247E+03  0.13901137930E+03  0.00000000000E+00 0.  1.
</event>
<event>
 7    1  0.2651429E-009  0.1104609E+03  0.7561462E-02  0.1259719E+00
          1   -1    0    0  501    0  0.00000000000E+00  0.00000000000E+00  0.15497543731E+03  0.15497543731E+03  0.00000000000E+00 0. -1.
         -1   -1    0    0    0  501 -0.00000000000E+00 -0.00000000000E+00 -0.85422706435E+02  0.85422706435E+02  0.00000000000E+00 0.  1.
         25    2    1    2    0    0 -0.87208073822E+01  0.35739151308E+02  0.20887840182E+02  0.13205412079E+03  0.12509456236E+03 0.  0.
          5    1    3    3  502    0 -0.43069179745E+02  0.66521268550E+02 -0.40393657007E+01  0.79459563859E+02  0.41800000000E+01 0.  1.
         -5    1    3    3    0  502  0.34348372363E+02 -0.30782117242E+02  0.24927205882E+02  0.52594556933E+02  0.41800000000E+01 0.  1.
        -11    1    1    2    0    0 -0.38897209497E+02 -0.66756524378E+01  0.29803258024E+02  0.49454943444E+02  0.00000000000E+00 0. -1.
         11    1    1    2    0    0  0.47618016880E+02 -0.29063498870E+02  0.18861632666E+02  0.58889079505E+02  0.00000000000E+00 0.  1.
</event>
<event>
 7    1  0.2651429E-009  0.1068108E+03  0.7561462E-02  0.1266592E+00
         -1   -1    0    0    0  501 -0.00000000000E+00  0.00000000000E+00  0.13621738228E+02  0.13621738228E+02  0.00000000000E+00 0.  1.
          1   -1    0    0  501    0  0.00000000000E+00 -0.00000000000E+00 -0.93480008020E+03  0.93480008020E+03  0.00000000000E+00 0. -1.
         25    2    1    2    0    0 -0.24675429200E+02 -0.23408210344E+02 -0.54277638524E+03  0.55804185209E+03  0.12509069982E+03 0.  0.
          5    1    3    3  502    0 -0.74344272204E+02 -0.21642364581E+00 -0.32722757217E+03  0.33559272048E+03  0.41800000000E+01 0. -1.
         -5    1    3    3    0  502  0.49668843005E+02 -0.23191786699E+02 -0.21554881307E+03  0.22244913161E+03  0.41800000000E+01 0. -1.
        -11    1    1    2    0    0  0.20262759337E+02  0.51711013529E+02 -0.32565402434E+03  0.33035609864E+03  0.00000000000E+00 0. -1.
         11    1    1    2    0    0  0.44126698627E+01 -0.28302803185E+02 -0.52747932384E+02  0.60023867705E+02  0.00000000000E+00 0.  1.
</event>
<event>
 7    1  0.2651429E-009  0.8406616E+02  0.7561462E-02  0.1317893E+00
          1   -1    0    0  501    0  0.00000000000E+00  0.00000000000E+00  0.39747998020E+03  0.39747998020E+03  0.00000000000E+00 0. -1.
         -1   -1    0    0    0  501 -0.00000000000E+00 -0.00000000000E+00 -0.34750618194E+02  0.34750618194E+02  0.00000000000E+00 0.  1.
         25    2    1    2    0    0  0.31936384896E+01  0.40033390709E+02  0.25821907256E+03  0.28972206592E+03  0.12509562082E+03 0.  0.
          5    1    3    3  502    0  0.46581596669E+02  0.44222167530E+02  0.22698493487E+03  0.23593447884E+03  0.41800000000E+01 0. -1.
         -5    1    3    3    0  502 -0.43387958180E+02 -0.41887768216E+01  0.31234137693E+02  0.53787587078E+02  0.41800000000E+01 0. -1.
        -11    1    1    2    0    0 -0.19890605434E+02 -0.40360205092E+01  0.10060927867E+03  0.10263602000E+03  0.00000000000E+00 0. -1.
         11    1    1    2    0    0  0.16696966944E+02 -0.35997370200E+02  0.39010107773E+01  0.39872512481E+02  0.00000000000E+00 0.  1.
</event>
<event>
 7    1  0.2651429E-009  0.5972033E+02  0.7561462E-02  0.1399009E+00
          3   -1    0    0  501    0  0.00000000000E+00  0.00000000000E+00  0.32185112421E+03  0.32185112421E+03  0.00000000000E+00 0. -1.
         -3   -1    0    0    0  501 -0.00000000000E+00 -0.00000000000E+00 -0.37873444494E+02  0.37873444494E+02  0.00000000000E+00 0.  1.
         25    2    1    2    0    0 -0.31288553099E+01  0.10670485770E+02  0.19148908848E+03  0.22899419326E+03  0.12508645226E+03 0.  0.
          5    1    3    3  502    0  0.10695400793E+02  0.85852085645E+01 -0.15717386964E+02  0.21274540117E+02  0.41800000000E+01 0. -1.
         -5    1    3    3    0  502 -0.13824256103E+02  0.20852772056E+01  0.20720647544E+03  0.20771965315E+03  0.41800000000E+01 0. -1.
        -11    1    1    2    0    0  0.45911024617E+02  0.18058887743E+01  0.33800130160E+02  0.57039742412E+02  0.00000000000E+00 0. -1.
         11    1    1    2    0    0 -0.42782169307E+02 -0.12476374544E+02  0.58688461074E+02  0.73690633025E+02  0.00000000000E+00 0.  1.
</event>
<event>
 7    1  0.2651429E-009  0.9624311E+02  0.7561462E-02  0.1288401E+00
          1   -1    0    0  501    0  0.00000000000E+00  0.00000000000E+00  0.97403866363E+02  0.97403866363E+02  0.00000000000E+00 0.  1.
         -1   -1    0    0    0  501 -0.00000000000E+00 -0.00000000000E+00 -0.27999567775E+03  0.27999567775E+03  0.00000000000E+00 0. -1.
         25    2    1    2    0    0 -0.64836154019E+02 -0.28344469632E+02  0.17565586091E+02  0.14478811628E+03  0.12509161832E+03 0.  0.
          5    1    3    3  502    0 -0.58978452796E+02  0.11339202352E+02 -0.41604086044E+02  0.73180651676E+02  0.41800000000E+01 0. -1.
         -5    1    3    3    0  502 -0.58577012231E+01 -0.39683671984E+02  0.59169672135E+02  0.71607464599E+02  0.41800000000E+01 0. -1.
        -11    1    1    2    0    0  0.29698246232E+02  0.44321707060E+02 -0.36940258547E+02  0.64892081547E+02  0.00000000000E+00 0.  1.
         11    1    1    2    0    0  0.35137907787E+02 -0.15977237428E+02 -0.16321713893E+03  0.16771934629E+03  0.00000000000E+00 0. -1.
</event>
<event>
 7    1  0.2651429E-009  0.9411021E+02  0.7561462E-02  0.1293193E+00
         -4   -1    0    0    0  501 -0.00000000000E+00  0.00000000000E+00  0.11610686280E+03  0.11610686280E+03  0.00000000000E+00 0.  1.
          4   -1    0    0  501    0  0.00000000000E+00 -0.00000000000E+00 -0.12911912090E+03  0.12911912090E+03  0.00000000000E+00 0. -1.
         25    2    1    2    0    0 -0.21136368341E+02  0.35276731071E+02 -0.43278213941E+02  0.13860695584E+03  0.12509072941E+03 0.  0.
          5    1    3    3  502    0  0.46819876173E+02  0.32560505216E+02 -0.41124198212E+02  0.70434078281E+02  0.41800000000E+01 0.  1.
         -5    1    3    3    0  502 -0.67956244514E+02  0.27162258555E+01 -0.21540157297E+01  0.68172877562E+02  0.41800000000E+01 0.  1.
        -11    1    1    2    0    0  0.18678324548E+02 -0.47181330344E+02  0.57563890304E+02  0.76736948127E+02  0.00000000000E+00 0.  1.
         11    1    1    2    0    0  0.24580437925E+01  0.11904599273E+02 -0.27297934465E+02  0.29882079733E+02  0.00000000000E+00 0. -1.
</event>
<event>
 7    1  0.2651429E-009  0.8569102E+02  0.7561462E-02  0.1313635E+00
         -1   -1    0    0    0  501 -0.00000000000E+00  0.00000000000E+00  0.81502370174E+02  0.81502370174E+02  0.00000000000E+00 0.  1.
          1   -1    0    0  501    0  0.00000000000E+00 -0.00000000000E+00 -0.20341127664E+03  0.20341127664E+03  0.00000000000E+00 0. -1.
         25    2    1    2    0    0  0.26463090131E+02 -0.64152750482E+02 -0.79304695235E+02  0.16356222740E+03  0.12508995568E+03 0.  0.
          5    1    3    3  502    0  0.19250514862E+02 -0.24131832926E+02 -0.10878756658E+03  0.11315977521E+03  0.41800000000E+01 0. -1.
         -5    1    3    3    0  502  0.72125752694E+01 -0.40020917556E+02  0.29482871346E+02  0.50402452191E+02  0.41800000000E+01 0. -1.
        -11    1    1    2    0    0 -0.51043448255E+02  0.46915879620E+02 -0.11891456305E+00  0.69329268790E+02  0.00000000000E+00 0. -1.
         11    1    1    2    0    0  0.24580358124E+02  0.17236870861E+02 -0.42485296672E+02  0.52022150628E+02  0.00000000000E+00 0.  1.
</event>
<event>
 7    1  0.2651429E-009  0.1090646E+03  0.7561462E-02  0.1262312E+00
         -2   -1    0    0    0  501 -0.00000000000E+00  0.00000000000E+00  0.48935545969E+03  0.48935545969E+03  0.00000000000E+00 0.  1.
          2   -1    0    0  501    0  0.00000000000E+00 -0.00000000000E+00 -0.49145345122E+02  0.49145345122E+02  0.00000000000E+00 0. -1.
         25    2    1    2    0    0  0.47619871042E+02  0.79564511480E+02  0.13507307611E+03  0.20613278237E+03  0.12509126457E+03 0.  0.
          5    1    3    3  502    0  0.43872990186E+02  0.63387668670E+02  0.76687978274E+01  0.77582979238E+02  0.41800000000E+01 0.  1.
         -5    1    3    3    0  502  0.37468808560E+01  0.16176842810E+02  0.12740427828E+03  0.12854980313E+03  0.41800000000E+01 0.  1.
        -11    1    1    2    0    0  0.12645831806E+02  0.98122005790E+01  0.11900090468E+02  0.19945137137E+02  0.00000000000E+00 0. -1.
         11    1    1    2    0    0 -0.60265702847E+02 -0.89376712059E+02  0.29323694799E+03  0.31242288531E+03  0.00000000000E+00 0.  1.
</event>
<event>
 7    1  0.2651429E-009  0.1109959E+03  0.7561462E-02  0.1258737E+00
         -1   -1    0    0    0  501 -0.00000000000E+00  0.00000000000E+00  0.10846136143E+03  0.10846136143E+03  0.00000000000E+00 0.  1.
          1   -1    0    0  501    0  0.00000000000E+00 -0.00000000000E+00 -0.21095583473E+03  0.21095583473E+03  0.00000000000E+00 0. -1.
         25    2    1    2    0    0 -0.59467687180E+02  0.38758638830E+02 -0.13707540407E+03  0.19867755800E+03  0.12507784676E+03 0.  0.
          5    1    3    3  502    0 -0.19942568261E+02 -0.39128373262E+02 -0.87917421606E+02  0.98365039749E+02  0.41800000000E+01 0. -1.
         -5    1    3    3    0  502 -0.39525118919E+02  0.77887012092E+02 -0.49157982465E+02  0.10031251825E+03  0.41800000000E+01 0. -1.
        -11    1    1    2    0    0  0.56000328451E+02 -0.52197746049E+02  0.56255803344E+02  0.95001878345E+02  0.00000000000E+00 0.  1.
         11    1    1    2    0    0  0.34673587289E+01  0.13439107218E+02 -0.21674872569E+02  0.25737759814E+02  0.00000000000E+00 0. -1.
</event>
<event>
 7    1  0.2651429E-009  0.1437429E+03  0.7561462E-02  0.1208380E+00
          1   -1    0    0  501    0  0.00000000000E+00  0.00000000000E+00  0.82907602810E+03  0.82907602810E+03  0.00000000000E+00 0. -1.
         -1   -1    0    0    0  501 -0.00000000000E+00 -0.00000000000E+00 -0.35642338218E+02  0.35642338218E+02  0.00000000000E+00 0.  1.
         25    2    1    2    0    0  0.10632308834E+03  0.61547422853E+02  0.54914138652E+03  0.57645251814E+03  0.12509420013E+03 0.  0.
          5    1    3    3  502    0  0.35907410395E+02  0.64492894692E+02  0.11574204554E+03  0.13734034037E+03  0.41800000000E+01 0. -1.
         -5    1    3    3    0  502  0.70415677948E+02 -0.29454718385E+01  0.43339934098E+03  0.43911217777E+03  0.41800000000E+01 0. -1.
        -11    1    1    2    0    0 -0.14789951396E+01  0.13775751644E+02  0.70069616710E+02  0.71426255298E+02  0.00000000000E+00 0. -1.
         11    1    1    2    0    0 -0.10484409320E+03 -0.75323174497E+02  0.17422268665E+03  0.21683959288E+03  0.00000000000E+00 0.  1.
</event>
<event>
 7    1  0.2651429E-009  0.1036359E+03  0.7561462E-02  0.1272831E+00
          2   -1    0    0  501    0  0.00000000000E+00  0.00000000000E+00  0.15398178518E+03  0.15398178518E+03  0.00000000000E+00 0. -1.
         -2   -1    0    0    0  501 -0.00000000000E+00 -0.00000000000E+00 -0.11089234570E+03  0.11089234570E+03  0.00000000000E+00 0.  1.
         25    2    1    2    0    0 -0.51094597676E+02  0.28007050110E+01  0.75177748446E+02  0.15465776445E+03  0.12509527722E+03 0.  0.
          5    1    3    3  502    0 -0.31261788371E+02 -0.56008885222E+02  0.65381057910E+02  0.91686693524E+02  0.41800000000E+01 0. -1.
         -5    1    3    3    0  502 -0.19832809305E+02  0.58809590233E+02  0.97966905364E+01  0.62971070928E+02  0.41800000000E+01 0. -1.
        -11    1    1    2    0    0  0.59346110747E+02 -0.19246426455E+02  0.11011553627E+02  0.63353295931E+02  0.00000000000E+00 0. -1.
         11    1    1    2    0    0 -0.82515130710E+01  0.16445721444E+02 -0.43099862586E+02  0.46863070500E+02  0.00000000000E+00 0.  1.
</event>
<event>
 7    1  0.2651429E-009  0.2206721E+03  0.7561462E-02  0.1133383E+00
          1   -1    0    0  501    0  0.00000000000E+00  0.00000000000E+00  0.11239464430E+04  0.11239464430E+04  0.00000000000E+00 0. -1.
         -1   -1    0    0    0  501 -0.00000000000E+00 -0.00000000000E+00 -0.49278384506E+02  0.49278384506E+02  0.00000000000E+00 0.  1.
         25    2    1    2    0    0  0.13887974197E+03  0.14534575973E+03  0.69443009820E+03  0.73368496030E+03  0.12508991596E+03 0.  0.
          5    1    3    3  502    0  0.14973400889E+03  0.15849731183E+03  0.65892928989E+03  0.69407993253E+03  0.41800000000E+01 0. -1.
         -5    1    3    3    0  502 -0.10854266925E+02 -0.13151552096E+02  0.35500808316E+02  0.39605027763E+02  0.41800000000E+01 0. -1.
        -11    1    1    2    0    0 -0.37092782092E+02 -0.69464865464E+02  0.74139934805E+02  0.10815716319E+03  0.00000000000E+00 0.  1.
         11    1    1    2    0    0 -0.10178695988E+03 -0.75880894267E+02  0.30609802552E+03  0.33138270405E+03  0.00000000000E+00 0. -1.
</event>
<event>
 7    1  0.2651429E-009  0.2933767E+03  0.7561462E-02  0.1088599E+00
         -1   -1    0    0    0  501 -0.00000000000E+00  0.00000000000E+00  0.22292176443E+03  0.22292176443E+03  0.00000000000E+00 0.  1.
          1   -1    0    0  501    0  0.00000000000E+00 -0.00000000000E+00 -0.42685563428E+03  0.42685563428E+03  0.00000000000E+00 0. -1.
         25    2    1    2    0    0  0.26247769740E+03  0.11723133475E+03 -0.97249206771E+02  0.32824194863E+03  0.12509053179E+03 0.  0.
          5    1    3    3  502    0  0.20134615459E+03  0.10973280702E+03 -0.12427807248E+03  0.26085259172E+03  0.41800000000E+01 0. -1.
         -5    1    3    3    0  502  0.61131542806E+02  0.74985277283E+01  0.27028865705E+02  0.67389356914E+02  0.41800000000E+01 0. -1.
        -11    1    1    2    0    0 -0.19822745083E+03 -0.11936477223E+03 -0.11191941333E+03  0.25703701327E+03  0.00000000000E+00 0. -1.
         11    1    1    2    0    0 -0.64250246573E+02  0.21334374763E+01  0.52347502499E+01  0.64498436806E+02  0.00000000000E+00 0.  1.
</event>
<event>
 7    1  0.2717106E-009  0.2675349E+03  0.7561462E-02  0.1102699E+00
         -2   -1    0    0    0  501 -0.00000000000E+00  0.00000000000E+00  0.84387485448E+02  0.84387485448E+02  0.00000000000E+00 0.  1.
          2   -1    0    0  501    0  0.00000000000E+00 -0.00000000000E+00 -0.92242736926E+03  0.92242736926E+03  0.00000000000E+00 0. -1.
         25    2    1    2    0    0  0.21630175239E+03  0.11483571325E+03 -0.29044647976E+03  0.39997511777E+03  0.12508896078E+03 0.  0.
          5    1    3    3  502    0  0.16203339968E+03  0.18418439902E+02 -0.15490797713E+03  0.22496225310E+03  0.41800000000E+01 0. -1.
         -5    1    3    3    0  502  0.54268352702E+02  0.96417273348E+02 -0.13553850263E+03  0.17501286467E+03  0.41800000000E+01 0. -1.
        -11    1    1    2    0    0 -0.47711514886E+02 -0.73513704381E+02 -0.19779542961E+03  0.21634159415E+03  0.00000000000E+00 0.  1.
         11    1    1    2    0    0 -0.16859023750E+03 -0.41322008869E+02 -0.34979797445E+03  0.39049814279E+03  0.00000000000E+00 0. -1.
</event>
<event>
 7    1  0.2651429E-009  0.1001637E+03  0.7561462E-02  0.1279952E+00
          3   -1    0    0  501    0  0.00000000000E+00  0.00000000000E+00  0.31284072525E+03  0.31284072525E+03  0.00000000000E+00 0. -1.
         -3   -1    0    0    0  501 -0.00000000000E+00 -0.00000000000E+00 -0.40630414894E+02  0.40630414894E+02  0.00000000000E+00 0.  1.
         25    2    1    2    0    0  0.45012379879E+02  0.31675995450E+02  0.18636895038E+03  0.23110784992E+03  0.12509184465E+03 0.  0.
          5    1    3    3  502    0 -0.26812697879E+02 -0.31033111073E+02  0.55742817488E+02  0.69330432365E+02  0.41800000000E+01 0. -1.
         -5    1    3    3    0  502  0.71825077758E+02  0.62709106523E+02  0.13062613289E+03  0.16177741755E+03  0.41800000000E+01 0. -1.
        -11    1    1    2    0    0 -0.29951388840E+02 -0.15607984863E+01  0.83370825649E+02  0.88601446685E+02  0.00000000000E+00 0. -1.
         11    1    1    2    0    0 -0.15060991039E+02 -0.30115196964E+02  0.24705343244E+01  0.33761843538E+02  0.00000000000E+00 0.  1.
</event>
<event>
 7    1  0.2651429E-009  0.9206196E+02  0.7561462E-02  0.1297934E+00
          1   -1    0    0  501    0  0.00000000000E+00  0.00000000000E+00  0.19988262948E+03  0.19988262948E+03  0.00000000000E+00 0. -1.
         -1   -1    0    0    0  501 -0.00000000000E+00 -0.00000000000E+00 -0.60583538367E+02  0.60583538367E+02  0.00000000000E+00 0.  1.
         25    2    1    2    0    0  0.24425618442E+02  0.10974408594E+02  0.11022084897E+03  0.16885890225E+03  0.12509054657E+03 0.  0.
          5    1    3    3  502    0  0.56207955064E+02  0.27310939594E+02  0.11656440808E+03  0.13232518756E+03  0.41800000000E+01 0. -1.
         -5    1    3    3    0  502 -0.31782336622E+02 -0.16336531001E+02 -0.63435591102E+01  0.36533714682E+02  0.41800000000E+01 0. -1.
        -11    1    1    2    0    0 -0.22747942687E+02 -0.45541079426E+02  0.25142608427E+02  0.56776840088E+02  0.00000000000E+00 0.  1.
         11    1    1    2    0    0 -0.16776757546E+01  0.34566670832E+02  0.39356337167E+01  0.34830425509E+02  0.00000000000E+00 0. -1.
</event>
<event>
 7    1  0.2651429E-009  0.2533106E+03  0.7561462E-02  0.1111230E+00
         -1   -1    0    0    0  501 -0.00000000000E+00  0.00000000000E+00  0.29260861222E+03  0.29260861222E+03  0.00000000000E+00 0.  1.
          1   -1    0    0  501    0  0.00000000000E+00 -0.00000000000E+00 -0.24819710432E+03  0.24819710432E+03  0.00000000000E+00 0. -1.
         25    2    1    2    0    0 -0.11886287738E+03  0.21561523945E+03  0.17612321267E+02  0.27672411821E+03  0.12509088152E+03 0.  0.
          5    1    3    3  502    0 -0.11280048697E+03  0.17871927403E+03 -0.32704727252E+02  0.21389623736E+03  0.41800000000E+01 0.  1.
         -5    1    3    3    0  502 -0.60623904128E+01  0.36895965414E+02  0.50317048519E+02  0.62827880858E+02  0.41800000000E+01 0.  1.
        -11    1    1    2    0    0  0.12404568568E+03 -0.16343188861E+03  0.42108046107E+02  0.20945262447E+03  0.00000000000E+00 0.  1.
         11    1    1    2    0    0 -0.51828083053E+01 -0.52183350839E+02 -0.15308859476E+02  0.54628973862E+02  0.00000000000E+00 0. -1.
</event>
<event>
 7    1  0.2651429E-009  0.8894278E+02  0.7561462E-02  0.1305432E+00
         -1   -1    0    0    0  501 -0.00000000000E+00  0.00000000000E+00  0.14196120420E+02  0.14196120420E+02  0.00000000000E+00 0.  1.
          1   -1    0    0  501    0  0.00000000000E+00 -0.00000000000E+00 -0.17058508379E+04  0.17058508379E+04  0.00000000000E+00 0. -1.
         25    2    1    2    0    0  0.38630523973E+02  0.12257201800E+02 -0.14630582124E+04  0.14689577299E+04  0.12511963460E+03 0.  0.
          5    1    3    3  502    0  0.73890189342E+02  0.19145548929E+02 -0.56216393376E+03  0.56733770626E+03  0.41800000000E+01 0. -1.
         -5    1    3    3    0  502 -0.35259665369E+02 -0.68883471286E+01 -0.90089427866E+03  0.90162002366E+03  0.41800000000E+01 0. -1.
        -11    1    1    2    0    0 -0.83369736025E+01  0.19607171322E+02 -0.33208230186E+01  0.21563259532E+02  0.00000000000E+00 0.  1.
         11    1    1    2    0    0 -0.30293550371E+02 -0.31864373123E+02 -0.22527568205E+03  0.22952596888E+03  0.00000000000E+00 0. -1.
</event>
<event>
 7    1  0.2651429E-009  0.7926153E+02  0.7561462E-02  0.1331160E+00
         -1   -1    0    0    0  501 -0.00000000000E+00  0.00000000000E+00  0.38959008452E+02  0.38959008452E+02  0.00000000000E+00 0.  1.
          1   -1    0    0  501    0  0.00000000000E+00 -0.00000000000E+00 -0.31913628293E+03  0.31913628293E+03  0.00000000000E+00 0. -1.
         25    2    1    2    0    0 -0.17423828088E+01  0.12400993035E+02 -0.19606599872E+03  0.23290731997E+03  0.12508846195E+03 0.  0.
          5    1    3    3  502    0  0.20762742558E+02 -0.45367166222E+02 -0.14190471854E+03  0.15047821369E+03  0.41800000000E+01 0.  1.
         -5    1    3    3    0  502 -0.22505125367E+02  0.57768159257E+02 -0.54161280181E+02  0.82429106283E+02  0.41800000000E+01 0.  1.
        -11    1    1    2    0    0  0.15313613502E+01 -0.29338777112E+02  0.88604134589E+01  0.30685759509E+02  0.00000000000E+00 0.  1.
         11    1    1    2    0    0  0.21102145861E+00  0.16937784077E+02 -0.92971689215E+02  0.94502211905E+02  0.00000000000E+00 0. -1.
</event>
<event>
 7    1  0.2651429E-009  0.9325015E+02  0.7561462E-02  0.1295167E+00
         -2   -1    0    0    0  501 -0.00000000000E+00  0.00000000000E+00  0.89417826845E+02  0.89417826845E+02  0.00000000000E+00 0.  1.
          2   -1    0    0  501    0  0.00000000000E+00 -0.00000000000E+00 -0.20725606024E+03  0.20725606024E+03  0.00000000000E+00 0. -1.
         25    2    1    2    0    0 -0.26955494424E+02  0.43366681014E+02  0.19289730780E+01  0.13513344383E+03  0.12510019585E+03 0.  0.
          5    1    3    3  502    0 -0.42376679151E+02  0.49334057045E+02 -0.48928042241E+02  0.81492685794E+02  0.41800000000E+01 0. -1.
         -5    1    3    3    0  502  0.15421184727E+02 -0.59673760312E+01  0.50857015319E+02  0.53640758032E+02  0.41800000000E+01 0. -1.
        -11    1    1    2    0    0 -0.27062466218E+02 -0.42336634014E+02 -0.35811493987E+02  0.61702761357E+02  0.00000000000E+00 0.  1.
         11    1    1    2    0    0  0.54017960642E+02 -0.10300469994E+01 -0.83955712489E+02  0.99837681906E+02  0.00000000000E+00 0. -1.
</event>
<event>
 7    1  0.2651429E-009  0.9880818E+02  0.7561462E-02  0.1282822E+00
         -2   -1    0    0    0  501 -0.00000000000E+00  0.00000000000E+00  0.23055985703E+02  0.23055985703E+02  0.00000000000E+00 0.  1.
          2   -1    0    0  501    0  0.00000000000E+00 -0.00000000000E+00 -0.64910232509E+03  0.64910232509E+03  0.00000000000E+00 0. -1.
         25    2    1    2    0    0  0.30280605875E+02  0.32245086550E+00 -0.48314079797E+03  0.49999001194E+03  0.12509181554E+03 0.  0.
          5    1    3    3  502    0  0.64448690852E+02  0.34421821436E+02 -0.36562062934E+03  0.37287318560E+03  0.41800000000E+01 0. -1.
         -5    1    3    3    0  502 -0.34168084977E+02 -0.34099370571E+02 -0.11752016863E+03  0.12711682634E+03  0.41800000000E+01 0. -1.
        -11    1    1    2    0    0 -0.46329774834E+01 -0.33626187262E+02 -0.11913810008E+03  0.12387926316E+03  0.00000000000E+00 0. -1.
         11    1    1    2    0    0 -0.25647628392E+02  0.33303736396E+02 -0.23767441338E+02  0.48289035689E+02  0.00000000000E+00 0.  1.
</event>
<event>
 7    1  0.2651429E-009  0.1828692E+03  0.7561462E-02  0.1165055E+00
          1   -1    0    0  501    0  0.00000000000E+00  0.00000000000E+00  0.34404246956E+03  0.34404246956E+03  0.00000000000E+00 0. -1.
         -1   -1    0    0    0  501 -0.00000000000E+00 -0.00000000000E+00 -0.16131278632E+03  0.16131278632E+03  0.00000000000E+00 0.  1.
         25    2    1    2    0    0 -0.11109246217E+03  0.10371926478E+03 -0.59423986472E+02  0.20561605774E+03  0.12509009550E+03 0.  0.
          5    1    3    3  502    0  0.14427071809E+02 -0.15117081015E+02  0.35496678309E+01  0.21604144999E+02  0.41800000000E+01 0.  1.
         -5    1    3    3    0  502 -0.12551953398E+03  0.11883634580E+03 -0.62973654303E+02  0.18401191274E+03  0.41800000000E+01 0.  1.
        -11    1    1    2    0    0  0.58057767201E+02 -0.35279805101E+01  0.50304614377E+02  0.76900619025E+02  0.00000000000E+00 0.  1.
         11    1    1    2    0    0  0.53034694970E+02 -0.10019128427E+03  0.19184905533E+03  0.22283857912E+03  0.00000000000E+00 0. -1.
</event>
<event>
 6    1  0.2651429E-009  0.1373054E+03  0.7561462E-02  0.1217001E+00
          2   -1    0    0  501    0  0.00000000000E+00  0.00000000000E+00  0.84158677307E+02  0.84158677307E+02  0.00000000000E+00 0. -1.
         -2   -1    0    0    0  501 -0.00000000000E+00 -0.00000000000E+00 -0.24143103102E+03  0.24143103102E+03  0.00000000000E+00 0.  1.
          5    1    1    2  502    0 -0.43560569330E+02  0.70550557236E+00 -0.43475488374E+02  0.61689637929E+02  0.41800000000E+01 0.  1.
         -5    1    1    2    0  502  0.69559443022E+02 -0.81677251494E+02 -0.81267459496E+02  0.13465348825E+03  0.41800000000E+01 0.  1.
        -11    1    1    2    0    0 -0.41018201608E+02 -0.11044926499E+00 -0.12053886696E+01  0.41036057608E+02  0.00000000000E+00 0.  1.
         11    1    1    2    0    0  0.15019327916E+02  0.81082195187E+02 -0.31324017174E+02  0.88210524538E+02  0.00000000000E+00 0. -1.
</event>
<event>
 7    1  0.2651429E-009  0.1003020E+03  0.7561462E-02  0.1279662E+00
          1   -1    0    0  501    0  0.00000000000E+00  0.00000000000E+00  0.71244515099E+03  0.71244515099E+03  0.00000000000E+00 0. -1.
         -1   -1    0    0    0  501 -0.00000000000E+00 -0.00000000000E+00 -0.25375000457E+02  0.25375000457E+02  0.00000000000E+00 0.  1.
         25    2    1    2    0    0 -0.37739705082E+02 -0.11801748859E+02  0.56545091155E+03  0.58047103354E+03  0.12509324837E+03 0.  0.
          5    1    3    3  502    0 -0.59241197243E+02  0.28686106237E+02  0.16992885107E+03  0.18227917865E+03  0.41800000000E+01 0. -1.
         -5    1    3    3    0  502  0.21501492161E+02 -0.40487855096E+02  0.39552206048E+03  0.39819185489E+03  0.41800000000E+01 0. -1.
        -11    1    1    2    0    0 -0.17763043452E+02  0.25849498732E+02  0.81810198482E+02  0.87616384730E+02  0.00000000000E+00 0. -1.
         11    1    1    2    0    0  0.55502748534E+02 -0.14047749873E+02  0.39809040502E+02  0.69732733182E+02  0.00000000000E+00 0.  1.
</event>
<event>
 7    1  0.2651429E-009  0.9989031E+02  0.7561462E-02  0.1280527E+00
         -2   -1    0    0    0  501 -0.00000000000E+00  0.00000000000E+00  0.16743697677E+02  0.16743697677E+02  0.00000000000E+00 0. -1.
          2   -1    0    0  501    0  0.00000000000E+00 -0.00000000000E+00 -0.10406015336E+04  0.10406015336E+04  0.00000000000E+00 0.  1.
         25    2    1    2    0    0 -0.60339718339E+02 -0.43046102177E+02 -0.50683418736E+03  0.52727806811E+03  0.12508964429E+03 0.  0.
          5    1    3    3  502    0 -0.47461368607E+02 -0.51014607921E+02 -0.50678269040E+03  0.51156743389E+03  0.41800000000E+01 0. -1.
         -5    1    3    3    0  502 -0.12878349731E+02  0.79685057432E+01 -0.51496962504E-01  0.15710634217E+02  0.41800000000E+01 0. -1.
        -11    1    1    2    0    0  0.64105564961E+01  0.57959731240E+02 -0.31919744450E+03  0.32448025249E+03  0.00000000000E+00 0.  1.
         11    1    1    2    0    0  0.53929161842E+02 -0.14913629063E+02 -0.19782620405E+03  0.20558691067E+03  0.00000000000E+00 0. -1.
</event>
<event>
 7    1  0.2651429E-009  0.1024871E+03  0.7561462E-02  0.1275151E+00
         -1   -1    0    0    0  501 -0.00000000000E+00  0.00000000000E+00  0.37351226035E+02  0.37351226035E+02  0.00000000000E+00 0.  1.
          1   -1    0    0  501    0  0.00000000000E+00 -0.00000000000E+00 -0.31826201886E+03  0.31826201886E+03  0.00000000000E+00 0. -1.
         25    2    1    2    0    0  0.53110804122E+01  0.22605302698E+02 -0.16968109562E+03  0.21208056960E+03  0.12508911426E+03 0.  0.
          5    1    3    3  502    0  0.52115015069E+02  0.40227173242E+02 -0.51514052868E+02  0.83698090214E+02  0.41800000000E+01 0.  1.
         -5    1    3    3    0  502 -0.46803934657E+02 -0.17621870544E+02 -0.11816704275E+03  0.12838247939E+03  0.41800000000E+01 0.  1.
        -11    1    1    2    0    0  0.40174680666E+02 -0.13890103840E+02 -0.67913011510E+02  0.80119392682E+02  0.00000000000E+00 0.  1.
         11    1    1    2    0    0 -0.45485761079E+02 -0.87151988582E+01 -0.43316685694E+02  0.63413282612E+02  0.00000000000E+00 0. -1.
</event>
<event>
 7    1  0.2651429E-009  0.1410768E+03  0.7561462E-02  0.1211887E+00
         -1   -1    0    0    0  501 -0.00000000000E+00  0.00000000000E+00  0.12463318786E+03  0.12463318786E+03  0.00000000000E+00 0.  1.
          1   -1    0    0  501    0  0.00000000000E+00 -0.00000000000E+00 -0.22322820135E+03  0.22322820135E+03  0.00000000000E+00 0. -1.
         25    2    1    2    0    0  0.68447661532E+02  0.10546578934E+03 -0.42273131384E+02  0.18232444790E+03  0.12508825514E+03 0.  0.
          5    1    3    3  502    0  0.25249279939E+02  0.72642266001E+02  0.37576662674E+02  0.85696574756E+02  0.41800000000E+01 0.  1.
         -5    1    3    3    0  502  0.43198381593E+02  0.32823523340E+02 -0.79849794058E+02  0.96627873141E+02  0.41800000000E+01 0.  1.
        -11    1    1    2    0    0  0.13560864907E+01 -0.74236590669E+02 -0.70858258738E+01  0.74586321085E+02  0.00000000000E+00 0.  1.
         11    1    1    2    0    0 -0.69803748023E+02 -0.31229198672E+02 -0.49236056232E+02  0.90950620234E+02  0.00000000000E+00 0. -1.
</event>
<event>
 7    1  0.2651429E-009  0.1991513E+03  0.7561462E-02  0.1150457E+00
          1   -1    0    0  501    0  0.00000000000E+00  0.00000000000E+00  0.18601635683E+03  0.18601635683E+03  0.00000000000E+00 0. -1.
         -1   -1    0    0    0  501 -0.00000000000E+00 -0.00000000000E+00 -0.25802593141E+03  0.25802593141E+03  0.00000000000E+00 0.  1.
         25    2    1    2    0    0 -0.41755056585E+02  0.18116790783E+03 -0.76867864833E+02  0.23690370907E+03  0.12509757451E+03 0.  0.
          5    1    3    3  502    0 -0.32503905340E+02  0.21027693931E+01  0.14173565121E+02  0.35767133652E+02  0.41800000000E+01 0.  1.
         -5    1    3    3    0  502 -0.92511512452E+01  0.17906513844E+03 -0.91041429954E+02  0.20113657542E+03  0.41800000000E+01 0.  1.
        -11    1    1    2    0    0  0.22496743931E+02 -0.11581226102E+03 -0.41125013875E+02  0.12493938553E+03  0.00000000000E+00 0.  1.
         11    1    1    2    0    0  0.19258312654E+02 -0.65355646810E+02  0.45983304134E+02  0.82199193642E+02  0.00000000000E+00 0. -1.
</event>
<event>
 7    1  0.2651429E-009  0.1187894E+03  0.7561462E-02  0.1245108E+00
          1   -1    0    0  501    0  0.00000000000E+00  0.00000000000E+00  0.20097603540E+03  0.20097603540E+03  0.00000000000E+00 0. -1.
         -1   -1    0    0    0  501 -0.00000000000E+00 -0.00000000000E+00 -0.93426992513E+02  0.93426992513E+02  0.00000000000E+00 0.  1.
         25    2    1    2    0    0 -0.76609391747E+02  0.22143053769E+02  0.37827512159E+02  0.15309363244E+03  0.12508967137E+03 0.  0.
          5    1    3    3  502    0  0.64085590093E+01 -0.35074253651E+02 -0.15331585423E+02  0.39035916914E+02  0.41800000000E+01 0.  1.
         -5    1    3    3    0  502 -0.83017950756E+02  0.57217307420E+02  0.53159097582E+02  0.11405771553E+03  0.41800000000E+01 0.  1.
        -11    1    1    2    0    0  0.24574076326E+02 -0.38977025638E+02  0.73214978889E+02  0.86507380544E+02  0.00000000000E+00 0. -1.
         11    1    1    2    0    0  0.52035315421E+02  0.16833971869E+02 -0.34934481619E+01  0.54802014925E+02  0.00000000000E+00 0.  1.
</event>
<event>
 7    1  0.2651429E-009  0.8527384E+02  0.7561462E-02  0.1314718E+00
         -1   -1    0    0    0  501 -0.00000000000E+00  0.00000000000E+00  0.38382154896E+03  0.38382154896E+03  0.00000000000E+00 0.  1.
          1   -1    0    0  501    0  0.00000000000E+00 -0.00000000000E+00 -0.37684662905E+02  0.37684662905E+02  0.00000000000E+00 0. -1.
         25    2    1    2    0    0  0.32948091973E+02  0.32590167976E+02  0.18938851992E+03  0.23165176363E+03  0.12508729871E+03 0.  0.
          5    1    3    3  502    0  0.24444416967E+02 -0.53604385901E+01 -0.10874685616E+02  0.27604257099E+02  0.41800000000E+01 0.  1.
         -5    1    3    3    0  502  0.85036750057E+01  0.37950606566E+02  0.20026320554E+03  0.20404750653E+03  0.41800000000E+01 0.  1.
        -11    1    1    2    0    0 -0.42332926977E+02 -0.62064858737E+02  0.12252260501E+03  0.14372164810E+03  0.00000000000E+00 0.  1.
         11    1    1    2    0    0  0.93848350043E+01  0.29474690760E+02  0.34225761126E+02  0.46132800133E+02  0.00000000000E+00 0. -1.
</event>
<event>
 7    1  0.2651429E-009  0.1486423E+03  0.7561462E-02  0.1202151E+00
         -2   -1    0    0    0  501 -0.00000000000E+00  0.00000000000E+00  0.12787063172E+02  0.12787063172E+02  0.00000000000E+00 0.  1.
          2   -1    0    0  501    0  0.00000000000E+00 -0.00000000000E+00 -0.20174760940E+04  0.20174760940E+04  0.00000000000E+00 0. -1.
         25    2    1    2    0    0  0.99573708417E+02  0.39180552469E+02 -0.13439192956E+04  0.13539629255E+04  0.12508593628E+03 0.  0.
          5    1    3    3  502    0 -0.16872995122E+02  0.33270592816E+02 -0.16167469718E+03  0.16597533076E+03  0.41800000000E+01 0. -1.
         -5    1    3    3    0  502  0.11644670354E+03  0.59099596533E+01 -0.11822445984E+04  0.11879875947E+04  0.41800000000E+01 0. -1.
        -11    1    1    2    0    0 -0.10901332229E+03 -0.56921180106E+02 -0.59280226800E+03  0.60542419354E+03  0.00000000000E+00 0.  1.
         11    1    1    2    0    0  0.94396138715E+01  0.17740627637E+02 -0.67967467246E+02  0.70876038143E+02  0.00000000000E+00 0. -1.
</event>
<event>
 7    1  0.4452479E-009  0.1033604E+03  0.7561462E-02  0.1273384E+00
         -3   -1    0    0    0  501 -0.00000000000E+00  0.00000000000E+00  0.20233387046E+02  0.20233387046E+02  0.00000000000E+00 0.  1.
          3   -1    0    0  501    0  0.00000000000E+00 -0.00000000000E+00 -0.97551797107E+03  0.97551797107E+03  0.00000000000E+00 0. -1.
         25    2    1    2    0    0  0.16393735777E+02  0.85491305202E+02 -0.58172487691E+03  0.60135570661E+03  0.12508931057E+03 0.  0.
          5    1    3    3  502    0  0.40621432803E+02  0.81132053703E+02 -0.21010030926E+03  0.22889325742E+03  0.41800000000E+01 0. -1.
         -5    1    3    3    0  502 -0.24227697026E+02  0.43592514999E+01 -0.37162456765E+03  0.37246244919E+03  0.41800000000E+01 0. -1.
        -11    1    1    2    0    0  0.66496235137E+01 -0.31919427486E+02 -0.25252868209E+02  0.41240449764E+02  0.00000000000E+00 0.  1.
         11    1    1    2    0    0 -0.23043359290E+02 -0.53571877716E+02 -0.34830683890E+03  0.35315520174E+03  0.00000000000E+00 0. -1.
</event>
<event>
 7    1  0.2651429E-009  0.1929263E+03  0.7561462E-02  0.1155848E+00
         -2   -1    0    0    0  501 -0.00000000000E+00  0.00000000000E+00  0.47879041677E+03  0.47879041677E+03  0.00000000000E+00 0.  1.
          2   -1    0    0  501    0  0.00000000000E+00 -0.00000000000E+00 -0.90026022364E+02  0.90026022364E+02  0.00000000000E+00 0. -1.
         25    2    1    2    0    0  0.15285016622E+03  0.86224867511E+02  0.22948208144E+03  0.31481255528E+03  0.12508804167E+03 0.  0.
          5    1    3    3  502    0  0.10586181669E+03  0.20716093521E+02  0.20288632450E+03  0.22981778398E+03  0.41800000000E+01 0.  1.
         -5    1    3    3    0  502  0.46988349529E+02  0.65508773989E+02  0.26595756941E+02  0.84994771300E+02  0.41800000000E+01 0.  1.
        -11    1    1    2    0    0 -0.27002901962E+02 -0.63889318840E+02  0.46135972363E+02  0.83303839780E+02  0.00000000000E+00 0. -1.
         11    1    1    2    0    0 -0.12584726426E+03 -0.22335548671E+02  0.11314634060E+03  0.17070004407E+03  0.00000000000E+00 0.  1.
</event>
<event>
 7    1  0.2651429E-009  0.1304579E+03  0.7561462E-02  0.1226778E+00
          1   -1    0    0  501    0  0.00000000000E+00  0.00000000000E+00  0.60942582748E+02  0.60942582748E+02  0.00000000000E+00 0. -1.
         -1   -1    0    0    0  501 -0.00000000000E+00 -0.00000000000E+00 -0.34755720453E+03  0.34755720453E+03  0.00000000000E+00 0.  1.
         25    2    1    2    0    0 -0.25390429205E+02 -0.81877348339E+02 -0.21984284449E+03  0.26704583406E+03  0.12503610338E+03 0.  0.
          5    1    3    3  502    0  0.34669232224E+02  0.11819003995E+02 -0.32742688697E+02  0.49307206183E+02  0.41800000000E+01 0. -1.
         -5    1    3    3    0  502 -0.60059661429E+02 -0.93696352334E+02 -0.18710015579E+03  0.21773862788E+03  0.41800000000E+01 0. -1.
        -11    1    1    2    0    0 -0.21763330179E+02  0.53222768034E+02 -0.36513336368E+01  0.57616298172E+02  0.00000000000E+00 0. -1.
         11    1    1    2    0    0  0.47153759383E+02  0.28654580305E+02 -0.63120443651E+02  0.83837655043E+02  0.00000000000E+00 0.  1.
</event>
<event>
 7    1  0.2651429E-009  0.1406781E+03  0.7561462E-02  0.1212419E+00
         -1   -1    0    0    0  501 -0.00000000000E+00  0.00000000000E+00  0.37927153011E+02  0.37927153011E+02  0.00000000000E+00 0.  1.
          1   -1    0    0  501    0  0.00000000000E+00 -0.00000000000E+00 -0.64484086839E+03  0.64484086839E+03  0.00000000000E+00 0. -1.
         25    2    1    2    0    0 -0.67695290070E+02  0.76102153026E+02 -0.43381117768E+03  0.46283283145E+03  0.12509157444E+03 0.  0.
          5    1    3    3  502    0 -0.71744277119E+02 -0.91848944991E+01 -0.15279074135E+03  0.16909786110E+03  0.41800000000E+01 0.  1.
         -5    1    3    3    0  502  0.40489870491E+01  0.85287047525E+02 -0.28102043633E+03  0.29373497035E+03  0.41800000000E+01 0.  1.
        -11    1    1    2    0    0  0.79273722526E+02 -0.47142648442E+02 -0.81193354026E+02  0.12287844857E+03  0.00000000000E+00 0.  1.
         11    1    1    2    0    0 -0.11578432457E+02 -0.28959504584E+02 -0.91909183676E+02  0.97056741383E+02  0.00000000000E+00 0. -1.
</event>
<event>
 7    1  0.2651429E-009  0.1274222E+03  0.7561462E-02  0.1231332E+00
          3   -1    0    0  501    0  0.00000000000E+00  0.00000000000E+00  0.77431830654E+02  0.77431830654E+02  0.00000000000E+00 0. -1.
         -3   -1    0    0    0  501 -0.00000000000E+00 -0.00000000000E+00 -0.21462959500E+03  0.21462959500E+03  0.00000000000E+00 0.  1.
         25    2    1    2    0    0  0.93162603670E+01 -0.67521570344E+02 -0.92831694295E+02  0.17003316968E+03  0.12509036796E+03 0.  0.
          5    1    3    3  502    0  0.27754368059E+02 -0.10012910152E+03 -0.75737656544E+02  0.12864605294E+03  0.41800000000E+01 0.  1.
         -5    1    3    3    0  502 -0.18438107692E+02  0.32607531181E+02 -0.17094037751E+02  0.41387116734E+02  0.41800000000E+01 0.  1.
        -11    1    1    2    0    0 -0.47726764302E+02  0.54872156398E+02 -0.22900298693E+02  0.76244483464E+02  0.00000000000E+00 0.  1.
         11    1    1    2    0    0  0.38410503935E+02  0.12649413946E+02 -0.21465771358E+02  0.45783772515E+02  0.00000000000E+00 0. -1.
</event>
<event>
 7    1  0.2651429E-009  0.1632206E+03  0.7561462E-02  0.1185108E+00
         -1   -1    0    0    0  501 -0.00000000000E+00  0.00000000000E+00  0.29811850206E+02  0.29811850206E+02  0.00000000000E+00 0.  1.
          1   -1    0    0  501    0  0.00000000000E+00 -0.00000000000E+00 -0.12490604031E+04  0.12490604031E+04  0.00000000000E+00 0. -1.
         25    2    1    2    0    0  0.15593934163E+03  0.25802483057E+02 -0.72938177112E+03  0.75672254962E+03  0.12509357559E+03 0.  0.
          5    1    3    3  502    0  0.15339272113E+03  0.12237347342E+02 -0.42534249427E+03  0.45234145222E+03  0.41800000000E+01 0.  1.
         -5    1    3    3    0  502  0.25466205016E+01  0.13565135715E+02 -0.30403927686E+03  0.30438109740E+03  0.41800000000E+01 0.  1.
        -11    1    1    2    0    0 -0.72327165219E+02 -0.13347667079E+02 -0.10556244734E+03  0.12865772163E+03  0.00000000000E+00 0.  1.
         11    1    1    2    0    0 -0.83612176414E+02 -0.12454815978E+02 -0.38430433443E+03  0.39349198206E+03  0.00000000000E+00 0. -1.
</event>
<event>
 7    1  0.2651429E-009  0.1013481E+03  0.7561462E-02  0.1277486E+00
         -1   -1    0    0    0  501 -0.00000000000E+00  0.00000000000E+00  0.30287546598E+02  0.30287546598E+02  0.00000000000E+00 0.  1.
          1   -1    0    0  501    0  0.00000000000E+00 -0.00000000000E+00 -0.59479204186E+03  0.59479204186E+03  0.00000000000E+00 0. -1.
         25    2    1    2    0    0  0.36294282127E+02 -0.49210302617E+02 -0.42926665857E+03  0.45128691306E+03  0.12510429627E+03 0.  0.
          5    1    3    3  502    0  0.83807166212E+01  0.26685747128E+02 -0.21414560939E+02  0.35474234749E+02  0.41800000000E+01 0.  1.
         -5    1    3    3    0  502  0.27913565506E+02 -0.75896049744E+02 -0.40785209763E+03  0.41581267831E+03  0.41800000000E+01 0.  1.
        -11    1    1    2    0    0  0.26828166040E+00  0.56212638244E+02 -0.12192011266E+03  0.13425515463E+03  0.00000000000E+00 0.  1.
         11    1    1    2    0    0 -0.36562563787E+02 -0.70023356277E+01 -0.13317724036E+02  0.39537520767E+02  0.00000000000E+00 0. -1.
</event>
<event>
 7    1  0.2651429E-009  0.1725418E+03  0.7561462E-02  0.1175223E+00
          1   -1    0    0  501    0  0.00000000000E+00  0.00000000000E+00  0.81031745110E+03  0.81031745110E+03  0.00000000000E+00 0. -1.
         -1   -1    0    0    0  501 -0.00000000000E+00 -0.00000000000E+00 -0.59929175090E+02  0.59929175090E+02  0.00000000000E+00 0.  1.
         25    2    1    2    0    0 -0.12028115586E+03  0.96462904967E+02  0.16596520998E+03  0.25877575964E+03  0.12509114423E+03 0.  0.
          5    1    3    3  502    0 -0.43032270550E+02 -0.22505106302E+02  0.77491135023E+02  0.91545641761E+02  0.41800000000E+01 0.  1.
         -5    1    3    3    0  502 -0.77248885308E+02  0.11896801127E+03  0.88474074958E+02  0.16723011788E+03  0.41800000000E+01 0.  1.
        -11    1    1    2    0    0  0.10020504472E+03 -0.75997469051E+02  0.55957178439E+03  0.57353051199E+03  0.00000000000E+00 0. -1.
         11    1    1    2    0    0  0.20076111133E+02 -0.20465435916E+02  0.24851281641E+02  0.37940354567E+02  0.00000000000E+00 0.  1.
</event>
<event>
 7    1  0.2651429E-009  0.1187513E+03  0.7561462E-02  0.1245171E+00
          1   -1    0    0  501    0  0.00000000000E+00  0.00000000000E+00  0.18109701686E+03  0.18109701686E+03  0.00000000000E+00 0. -1.
         -1   -1    0    0    0  501 -0.00000000000E+00 -0.00000000000E+00 -0.14065122228E+03  0.14065122228E+03  0.00000000000E+00 0.  1.
         25    2    1    2    0    0 -0.32717610373E+02  0.10809360469E+03  0.48972781838E+02  0.17550283049E+03  0.12509292844E+03 0.  0.
          5    1    3    3  502    0 -0.17840119459E+02  0.88835598998E+01 -0.37709074876E+02  0.42855970725E+02  0.41800000000E+01 0.  1.
         -5    1    3    3    0  502 -0.14877490915E+02  0.99210044790E+02  0.86681856713E+02  0.13264685977E+03  0.41800000000E+01 0.  1.
        -11    1    1    2    0    0  0.33148138749E+01 -0.61815286148E+02 -0.48293623008E+02  0.78513639681E+02  0.00000000000E+00 0.  1.
         11    1    1    2    0    0  0.29402796498E+02 -0.46278318541E+02  0.39766635750E+02  0.67731768970E+02  0.00000000000E+00 0. -1.
</event>
<event>
 7    1  0.2651429E-009  0.1782951E+03  0.7561462E-02  0.1169463E+00
          2   -1    0    0  501    0  0.00000000000E+00  0.00000000000E+00  0.14622534346E+04  0.14622534346E+04  0.00000000000E+00 0. -1.
         -2   -1    0    0    0  501 -0.00000000000E+00 -0.00000000000E+00 -0.25388370483E+02  0.25388370483E+02  0.00000000000E+00 0.  1.
         25    2    1    2    0    0 -0.14129711196E+03 -0.70977651802E+02  0.80790883648E+03  0.83268656971E+03  0.12509010515E+03 0.  0.
          5    1    3    3  502    0  0.65425381204E+01  0.15721715196E+02  0.21184722649E+02  0.27499854681E+02  0.41800000000E+01 0. -1.
         -5    1    3    3    0  502 -0.14783965008E+03 -0.86699366998E+02  0.78672411383E+03  0.80518671503E+03  0.41800000000E+01 0. -1.
        -11    1    1    2    0    0  0.28116711833E+01  0.19769677533E+02  0.19653299984E+02  0.28017812992E+02  0.00000000000E+00 0.  1.
         11    1    1    2    0    0  0.13848544078E+03  0.51207974269E+02  0.60930292762E+03  0.62693742235E+03  0.00000000000E+00 0. -1.
</event>
<event>
 7    1  0.2651429E-009  0.2060935E+03  0.7561462E-02  0.1144697E+00
          3   -1    0    0  501    0  0.00000000000E+00  0.00000000000E+00  0.49900337004E+02  0.49900337004E+02  0.00000000000E+00 0. -1.
         -3   -1    0    0    0  501 -0.00000000000E+00 -0.00000000000E+00 -0.12766326522E+04  0.12766326522E+04  0.00000000000E+00 0.  1.
         25    2    1    2    0    0  0.17115615929E+03  0.80399175660E+02 -0.29879287492E+03  0.37507851594E+03  0.12509297623E+03 0.  0.
          5    1    3    3  502    0  0.16217581747E+03  0.40231783334E+02 -0.28689169123E+03  0.33202997916E+03  0.41800000000E+01 0. -1.
         -5    1    3    3    0  502  0.89803418172E+01  0.40167392326E+02 -0.11901183693E+02  0.43048536778E+02  0.41800000000E+01 0. -1.
        -11    1    1    2    0    0 -0.68065256859E+02 -0.73762222327E+02 -0.57551822421E+03  0.58420456266E+03  0.00000000000E+00 0.  1.
         11    1    1    2    0    0 -0.10309090243E+03 -0.66369533324E+01 -0.35242121607E+03  0.36724991062E+03  0.00000000000E+00 0. -1.
</event>
<event>
 7    1  0.2651429E-009  0.9572400E+02  0.7561462E-02  0.1289554E+00
          2   -1    0    0  501    0  0.00000000000E+00  0.00000000000E+00  0.76352462106E+03  0.76352462106E+03  0.00000000000E+00 0. -1.
         -2   -1    0    0    0  501 -0.00000000000E+00 -0.00000000000E+00 -0.19794532853E+02  0.19794532853E+02  0.00000000000E+00 0.  1.
         25    2    1    2    0    0  0.24815531077E+02 -0.46247821919E+02  0.35442883153E+03  0.37950253896E+03  0.12509080239E+03 0.  0.
          5    1    3    3  502    0 -0.20094027880E+02 -0.33731362068E+00  0.13123291596E+01  0.20568868339E+02  0.41800000000E+01 0. -1.
         -5    1    3    3    0  502  0.44909558957E+02 -0.45910508298E+02  0.35311650237E+03  0.35893367062E+03  0.41800000000E+01 0. -1.
        -11    1    1    2    0    0  0.29141161712E+02  0.43725161689E+02  0.21557792765E+03  0.22188947691E+03  0.00000000000E+00 0.  1.
         11    1    1    2    0    0 -0.53956692789E+02  0.25226602301E+01  0.17372332902E+03  0.18192713805E+03  0.00000000000E+00 0. -1.
</event>
<event>
 7    1  0.2651429E-009  0.7251440E+02  0.7561462E-02  0.1351746E+00
         -1   -1    0    0    0  501 -0.00000000000E+00  0.00000000000E+00  0.48207676244E+02  0.48207676244E+02  0.00000000000E+00 0.  1.
          1   -1    0    0  501    0  0.00000000000E+00 -0.00000000000E+00 -0.29830715253E+03  0.29830715253E+03  0.00000000000E+00 0. -1.
         25    2    1    2    0    0 -0.31354962774E+02  0.29330201527E+02 -0.17884586783E+03  0.22243827596E+03  0.12509815251E+03 0.  0.
          5    1    3    3  502    0  0.30325814112E+01  0.36135621182E+01 -0.17918310578E+03  0.17929392677E+03  0.41800000000E+01 0.  1.
         -5    1    3    3    0  502 -0.34387544185E+02  0.25716639409E+02  0.33723794944E+00  0.43144349189E+02  0.41800000000E+01 0.  1.
        -11    1    1    2    0    0  0.45127272725E+02 -0.52128116452E+02 -0.30503843350E+02  0.75394268533E+02  0.00000000000E+00 0.  1.
         11    1    1    2    0    0 -0.13772309952E+02  0.22797914925E+02 -0.40749765107E+02  0.48682284279E+02  0.00000000000E+00 0. -1.
</event>
<event>
 7    1  0.2651429E-009  0.3565561E+03  0.7561462E-02  0.1059956E+00
          2   -1    0    0  501    0  0.00000000000E+00  0.00000000000E+00  0.27609323395E+04  0.27609323395E+04  0.00000000000E+00 0. -1.
         -2   -1    0    0    0  501 -0.00000000000E+00 -0.00000000000E+00 -0.63584275654E+02  0.63584275654E+02  0.00000000000E+00 0.  1.
         25    2    1    2    0    0 -0.33407083100E+03  0.93774259366E+02  0.20612007364E+04  0.20939426937E+04  0.12510234520E+03 0.  0.
          5    1    3    3  502    0 -0.24202316999E+03  0.11817558576E+03  0.16496889957E+04  0.16715358024E+04  0.41800000000E+01 0. -1.
         -5    1    3    3    0  502 -0.92047661009E+02 -0.24401326392E+02  0.41151174075E+03  0.42240689128E+03  0.41800000000E+01 0. -1.
        -11    1    1    2    0    0  0.93838440753E+02 -0.41330719678E+02  0.11340404030E+03  0.15288674798E+03  0.00000000000E+00 0.  1.
         11    1    1    2    0    0  0.24023239024E+03 -0.52443539688E+02  0.52274328714E+03  0.57768717350E+03  0.00000000000E+00 0. -1.
</event>
<event>
 7    1  0.2651429E-009  0.7637952E+02  0.7561462E-02  0.1339652E+00
          1   -1    0    0  501    0  0.00000000000E+00  0.00000000000E+00  0.14873994228E+03  0.14873994228E+03  0.00000000000E+00 0. -1.
         -1   -1    0    0    0  501 -0.00000000000E+00 -0.00000000000E+00 -0.13448640773E+03  0.13448640773E+03  0.00000000000E+00 0.  1.
         25    2    1    2    0    0  0.62632042497E+02 -0.29991560905E+02  0.65056985930E+02  0.15719039923E+03  0.12511652057E+03 0.  0.
          5    1    3    3  502    0  0.43450789045E+02 -0.38938358336E+02  0.10015871718E+03  0.11598882639E+03  0.41800000000E+01 0.  1.
         -5    1    3    3    0  502  0.19181253451E+02  0.89467974308E+01 -0.35101731254E+02  0.41201572849E+02  0.41800000000E+01 0.  1.
        -11    1    1    2    0    0 -0.28562208215E+02  0.20637069043E+01  0.25227754362E+02  0.38164095882E+02  0.00000000000E+00 0. -1.
         11    1    1    2    0    0 -0.34069834282E+02  0.27927854001E+02 -0.76031205738E+02  0.87871854897E+02  0.00000000000E+00 0.  1.
</event>
<event>
 7    1  0.2651429E-009  0.1434653E+03  0.7561462E-02  0.1208741E+00
         -1   -1    0    0    0  501 -0.00000000000E+00  0.00000000000E+00  0.87885398071E+02  0.87885398071E+02  0.00000000000E+00 0.  1.
          1   -1    0    0  501    0  0.00000000000E+00 -0.00000000000E+00 -0.29834903439E+03  0.29834903439E+03  0.00000000000E+00 0. -1.
         25    2    1    2    0    0  0.75916802865E+02 -0.87212993931E+02 -0.69359280484E+02  0.18391520760E+03  0.12507848148E+03 0.  0.
          5    1    3    3  502    0 -0.15078609436E+02  0.16398625463E+01 -0.53399121737E+02  0.55668592706E+02  0.41800000000E+01 0.  1.
         -5    1    3    3    0  502  0.90995412301E+02 -0.88852856477E+02 -0.15960158747E+02  0.12824661489E+03  0.41800000000E+01 0.  1.
        -11    1    1    2    0    0 -0.72390986470E+02  0.17933950864E+02 -0.60961009640E+02  0.96324068705E+02  0.00000000000E+00 0.  1.
         11    1    1    2    0    0 -0.35258163949E+01  0.69279043068E+02 -0.80143346201E+02  0.10599515616E+03  0.00000000000E+00 0. -1.
</event>
<event>
 7    1  0.2651429E-009  0.2208952E+03  0.7561462E-02  0.1133217E+00
         -1   -1    0    0    0  501 -0.00000000000E+00  0.00000000000E+00  0.80643795754E+02  0.80643795754E+02  0.00000000000E+00 0.  1.
          1   -1    0    0  501    0  0.00000000000E+00 -0.00000000000E+00 -0.66834884865E+03  0.66834884865E+03  0.00000000000E+00 0. -1.
         25    2    1    2    0    0  0.19344782702E+03  0.60614202908E+02 -0.34229734380E+03  0.41702131500E+03  0.12507262779E+03 0.  0.
          5    1    3    3  502    0  0.56622931566E+02 -0.24974887530E+02 -0.38537275107E+02  0.73023936890E+02  0.41800000000E+01 0.  1.
         -5    1    3    3    0  502  0.13682489546E+03  0.85589090438E+02 -0.30376006869E+03  0.34399737811E+03  0.41800000000E+01 0.  1.
        -11    1    1    2    0    0 -0.24782079417E+02 -0.41818153093E+02 -0.27757440695E+02  0.55976646043E+02  0.00000000000E+00 0.  1.
         11    1    1    2    0    0 -0.16866574761E+03 -0.18796049815E+02 -0.21765026840E+03  0.27599468336E+03  0.00000000000E+00 0. -1.
</event>
<event>
 7    1  0.2651429E-009  0.1186220E+03  0.7561462E-02  0.1245388E+00
          2   -1    0    0  501    0  0.00000000000E+00  0.00000000000E+00  0.27086788451E+03  0.27086788451E+03  0.00000000000E+00 0. -1.
         -2   -1    0    0    0  501 -0.00000000000E+00 -0.00000000000E+00 -0.69261134129E+02  0.69261134129E+02  0.00000000000E+00 0.  1.
         25    2    1    2    0    0 -0.89794080455E+02 -0.99464239198E+01  0.93313325524E+02  0.18032519063E+03  0.12509152418E+03 0.  0.
          5    1    3    3  502    0 -0.29139649222E+02  0.47594142243E+02  0.76760210241E+02  0.94994335668E+02  0.41800000000E+01 0.  1.
         -5    1    3    3    0  502 -0.60654431233E+02 -0.57540566163E+02  0.16553115282E+02  0.85330854960E+02  0.41800000000E+01 0.  1.
        -11    1    1    2    0    0  0.83937577010E+02 -0.23298598681E+01  0.45401843333E+02  0.95458223634E+02  0.00000000000E+00 0.  1.
         11    1    1    2    0    0  0.58565034447E+01  0.12276283788E+02  0.62891581526E+02  0.64345604381E+02  0.00000000000E+00 0. -1.
</event>
<event>
 7    1  0.2651429E-009  0.1639122E+03  0.7561462E-02  0.1184349E+00
          2   -1    0    0  501    0  0.00000000000E+00  0.00000000000E+00  0.77946578820E+03  0.77946578820E+03  0.00000000000E+00 0. -1.
         -2   -1    0    0    0  501 -0.00000000000E+00 -0.00000000000E+00 -0.43456315461E+02  0.43456315461E+02  0.00000000000E+00 0.  1.
         25    2    1    2    0    0 -0.14575155644E+03  0.19266719218E+02  0.43273751961E+03  0.47383938044E+03  0.12508906787E+03 0.  0.
          5    1    3    3  502    0 -0.14201565086E+03 -0.10580061788E+02  0.41476265372E+03  0.43854978522E+03  0.41800000000E+01 0.  1.
         -5    1    3    3    0  502 -0.37359055806E+01  0.29846781006E+02  0.17974865897E+02  0.35289595222E+02  0.41800000000E+01 0.  1.
        -11    1    1    2    0    0  0.13128160353E+03 -0.32643610993E+02  0.30002233865E+03  0.32911072370E+03  0.00000000000E+00 0. -1.
         11    1    1    2    0    0  0.14469952909E+02  0.13376891775E+02  0.32496144764E+01  0.19971999524E+02  0.00000000000E+00 0.  1.
</event>
<event>
 7    1  0.2651429E-009  0.1717340E+03  0.7561462E-02  0.1176052E+00
          2   -1    0    0  501    0  0.00000000000E+00  0.00000000000E+00  0.72330114155E+03  0.72330114155E+03  0.00000000000E+00 0. -1.
         -2   -1    0    0    0  501 -0.00000000000E+00 -0.00000000000E+00 -0.55710534681E+02  0.55710534681E+02  0.00000000000E+00 0.  1.
         25    2    1    2    0    0  0.39326225133E+02 -0.16373953038E+03  0.33393341763E+03  0.39435554439E+03  0.12509029615E+03 0.  0.
          5    1    3    3  502    0  0.16973381372E+02 -0.10981963297E+03  0.88723444456E+02  0.14225951447E+03  0.41800000000E+01 0.  1.
         -5    1    3    3    0  502  0.22352843761E+02 -0.53919897413E+02  0.24520997317E+03  0.25209602993E+03  0.41800000000E+01 0.  1.
        -11    1    1    2    0    0  0.39973314606E+01  0.73887735978E+02  0.66511103668E+02  0.99494236506E+02  0.00000000000E+00 0.  1.
         11    1    1    2    0    0 -0.43323556594E+02  0.89851794400E+02  0.26714608557E+03  0.28516189533E+03  0.00000000000E+00 0. -1.
</event>
<event>
 7    1  0.2651429E-009  0.1767517E+03  0.7561462E-02  0.1170984E+00
         -1   -1    0    0    0  501 -0.00000000000E+00  0.00000000000E+00  0.38644886896E+03  0.38644886896E+03  0.00000000000E+00 0.  1.
          1   -1    0    0  501    0  0.00000000000E+00 -0.00000000000E+00 -0.89414880277E+02  0.89414880277E+02  0.00000000000E+00 0. -1.
         25    2    1    2    0    0 -0.13682760719E+03 -0.56268927985E+02  0.19120870663E+03  0.27220567023E+03  0.12508865284E+03 0.  0.
          5    1    3    3  502    0 -0.72041636241E+02  0.26039604548E+02  0.12962140918E+03  0.15062284181E+03  0.41800000000E+01 0. -1.
         -5    1    3    3    0  502 -0.64785970949E+02 -0.82308532534E+02  0.61587297451E+02  0.12158282842E+03  0.41800000000E+01 0. -1.
        -11    1    1    2    0    0  0.98210379012E+02 -0.63186481484E+01  0.44966438082E+02  0.10819974313E+03  0.00000000000E+00 0.  1.
         11    1    1    2    0    0  0.38617228178E+02  0.62587576134E+02  0.60858843977E+02  0.95458335879E+02  0.00000000000E+00 0. -1.
</event>
<event>
 7    1  0.2651429E-009  0.1020501E+03  0.7561462E-02  0.1276043E+00
         -1   -1    0    0    0  501 -0.00000000000E+00  0.00000000000E+00  0.26938297726E+02  0.26938297726E+02  0.00000000000E+00 0.  1.
          1   -1    0    0  501    0  0.00000000000E+00 -0.00000000000E+00 -0.47688006211E+03  0.47688006211E+03  0.00000000000E+00 0. -1.
         25    2    1    2    0    0 -0.26004224949E+02 -0.22478184524E+02 -0.25065720510E+03  0.28223529750E+03  0.12508493190E+03 0.  0.
          5    1    3    3  502    0  0.32112999883E+02 -0.35134554892E+02 -0.19465423171E+03  0.20043309116E+03  0.41800000000E+01 0.  1.
         -5    1    3    3    0  502 -0.58117224832E+02  0.12656370369E+02 -0.56002973392E+02  0.81802206338E+02  0.41800000000E+01 0.  1.
        -11    1    1    2    0    0  0.58745669058E+02  0.25020184010E+02 -0.12503327884E+03  0.14039367528E+03  0.00000000000E+00 0.  1.
         11    1    1    2    0    0 -0.32741444109E+02 -0.25419994866E+01 -0.74251280443E+02  0.81189387059E+02  0.00000000000E+00 0. -1.
</event>
<event>
 6    1  0.2651429E-009  0.9618877E+02  0.7561462E-02  0.1288521E+00
          1   -1    0    0  501    0  0.00000000000E+00  0.00000000000E+00  0.70125449661E+02  0.70125449661E+02  0.00000000000E+00 0. -1.
         -1   -1    0    0    0  501 -0.00000000000E+00 -0.00000000000E+00 -0.23690672879E+03  0.23690672879E+03  0.00000000000E+00 0.  1.
          5    1    1    2  502    0  0.20377988852E+02  0.54057449367E+02  0.26349124723E+02  0.63633474173E+02  0.41800000000E+01 0. -1.
         -5    1    1    2    0  502 -0.43035037746E+02 -0.20612493995E+02 -0.51103668286E+02  0.70042463512E+02  0.41800000000E+01 0. -1.
        -11    1    1    2    0    0  0.25197159205E+02  0.20541965672E+02 -0.16008722409E+02  0.36237389238E+02  0.00000000000E+00 0. -1.
         11    1    1    2    0    0 -0.25401103107E+01 -0.53986921044E+02 -0.12601801316E+03  0.13711885153E+03  0.00000000000E+00 0.  1.
</event>
<event>
 7    1  0.2651429E-009  0.1060332E+03  0.7561462E-02  0.1268097E+00
          1   -1    0    0  501    0  0.00000000000E+00  0.00000000000E+00  0.12517234861E+02  0.12517234861E+02  0.00000000000E+00 0. -1.
         -1   -1    0    0    0  501 -0.00000000000E+00 -0.00000000000E+00 -0.99805429519E+03  0.99805429519E+03  0.00000000000E+00 0.  1.
         25    2    1    2    0    0 -0.81954892175E+01 -0.13561245839E+02 -0.61085466861E+03  0.62374021555E+03  0.12512936063E+03 0.  0.
          5    1    3    3  502    0 -0.66580719181E+02 -0.71350584378E+01 -0.34044744900E+03  0.34699544544E+03  0.41800000000E+01 0.  1.
         -5    1    3    3    0  502  0.58385229964E+02 -0.64261874015E+01 -0.27040721961E+03  0.27674477011E+03  0.41800000000E+01 0.  1.
        -11    1    1    2    0    0 -0.14104360128E+02 -0.32215823389E+02 -0.74779289857E+02  0.82636156994E+02  0.00000000000E+00 0. -1.
         11    1    1    2    0    0  0.22299849345E+02  0.45777069229E+02 -0.29990310186E+03  0.30419515751E+03  0.00000000000E+00 0.  1.
</event>
<event>
 7    1  0.2651429E-009  0.9511702E+02  0.7561462E-02  0.1290913E+00
         -1   -1    0    0    0  501 -0.00000000000E+00  0.00000000000E+00  0.35681808434E+03  0.35681808434E+03  0.00000000000E+00 0.  1.
          1   -1    0    0  501    0  0.00000000000E+00 -0.00000000000E+00 -0.40790979555E+02  0.40790979555E+02  0.00000000000E+00 0. -1.
         25    2    1    2    0    0 -0.33147354743E+02 -0.26075543783E+02  0.21156625227E+03  0.24937381299E+03  0.12509331874E+03 0.  0.
          5    1    3    3  502    0 -0.19499948413E+02  0.49392419679E+02  0.66246978802E+02  0.85005845153E+02  0.41800000000E+01 0.  1.
         -5    1    3    3    0  502 -0.13647406330E+02 -0.75467963462E+02  0.14531927347E+03  0.16436796784E+03  0.41800000000E+01 0.  1.
        -11    1    1    2    0    0  0.37431041985E+02  0.39656208708E+01  0.11668823550E+03  0.12260894485E+03  0.00000000000E+00 0.  1.
         11    1    1    2    0    0 -0.42836872428E+01  0.22109922913E+02 -0.12227382985E+02  0.25626306059E+02  0.00000000000E+00 0. -1.
</event>
<event>
 7    1  0.2651429E-009  0.7308729E+02  0.7561462E-02  0.1349898E+00
          1   -1    0    0  501    0  0.00000000000E+00  0.00000000000E+00  0.79803548062E+02  0.79803548062E+02  0.00000000000E+00 0. -1.
         -1   -1    0    0    0  501 -0.00000000000E+00 -0.00000000000E+00 -0.20141490011E+03  0.20141490011E+03  0.00000000000E+00 0.  1.
         25    2    1    2    0    0 -0.11725622017E+02 -0.56135506351E+02 -0.10366025726E+03  0.17228207434E+03  0.12508788478E+03 0.  0.
          5    1    3    3  502    0 -0.35181210929E+02 -0.10602598978E+02 -0.11401255518E+03  0.11986020126E+03  0.41800000000E+01 0.  1.
         -5    1    3    3    0  502  0.23455588912E+02 -0.45532907373E+02  0.10352297917E+02  0.52421873080E+02  0.41800000000E+01 0.  1.
        -11    1    1    2    0    0  0.86592185654E+01  0.23853329743E+02 -0.54474241097E+02  0.60094977736E+02  0.00000000000E+00 0.  1.
         11    1    1    2    0    0  0.30664034518E+01  0.32282176608E+02  0.36523146308E+02  0.48841396099E+02  0.00000000000E+00 0. -1.
</event>
<event>
 7    1  0.2651429E-009  0.1650081E+03  0.7561462E-02  0.1183156E+00
          1   -1    0    0  501    0  0.00000000000E+00  0.00000000000E+00  0.81926693265E+03  0.81926693265E+03  0.00000000000E+00 0. -1.
         -1   -1    0    0    0  501 -0.00000000000E+00 -0.00000000000E+00 -0.39427857317E+02  0.39427857317E+02  0.00000000000E+00 0.  1.
         25    2    1    2    0    0  0.50639008791E+02 -0.11786503352E+03  0.26419462002E+03  0.31922349890E+03  0.12509344373E+03 0.  0.
          5    1    3    3  502    0 -0.29687766901E+02  0.30961436098E+00  0.19291946328E+02  0.35652643068E+02  0.41800000000E+01 0. -1.
         -5    1    3    3    0  502  0.80326775693E+02 -0.11817464788E+03  0.24490267370E+03  0.28357085583E+03  0.41800000000E+01 0. -1.
        -11    1    1    2    0    0  0.20903729685E+02  0.21190115397E+01  0.97709074104E+02  0.99942579949E+02  0.00000000000E+00 0. -1.
         11    1    1    2    0    0 -0.71542738476E+02  0.11574602198E+03  0.41793538120E+03  0.43952871111E+03  0.00000000000E+00 0.  1.
</event>
<event>
 7    1  0.3854872E-009  0.1242626E+03  0.7561462E-02  0.1236226E+00
         -1   -1    0    0    0  501 -0.00000000000E+00  0.00000000000E+00  0.82367736770E+02  0.82367736770E+02  0.00000000000E+00 0.  1.
          1   -1    0    0  501    0  0.00000000000E+00 -0.00000000000E+00 -0.22041750495E+03  0.22041750495E+03  0.00000000000E+00 0. -1.
         25    2    1    2    0    0  0.79850089053E+01  0.63346443707E+02 -0.12939399690E+03  0.19096084062E+03  0.12508678555E+03 0.  0.
          5    1    3    3  502    0 -0.52251955792E+02  0.55745478331E+02 -0.52051668865E+02  0.92545523231E+02  0.41800000000E+01 0.  1.
         -5    1    3    3    0  502  0.60236964697E+02  0.76009653761E+01 -0.77342328034E+02  0.98415317387E+02  0.41800000000E+01 0.  1.
        -11    1    1    2    0    0  0.25200080552E+02 -0.72473461534E+02 -0.10013273693E+02  0.77380309748E+02  0.00000000000E+00 0. -1.
         11    1    1    2    0    0 -0.33185089457E+02  0.91270178274E+01  0.13575024086E+01  0.34444091358E+02  0.00000000000E+00 0.  1.
</event>
<event>
 7    1  0.2651429E-009  0.1460119E+03  0.7561462E-02  0.1205461E+00
          4   -1    0    0  501    0  0.00000000000E+00  0.00000000000E+00  0.30097633185E+03  0.30097633185E+03  0.00000000000E+00 0. -1.
         -4   -1    0    0    0  501 -0.00000000000E+00 -0.00000000000E+00 -0.92483372503E+02  0.92483372503E+02  0.00000000000E+00 0.  1.
         25    2    1    2    0    0 -0.12109039959E+03 -0.32380800707E+02  0.11913537155E+03  0.21342764667E+03  0.12508685974E+03 0.  0.
          5    1    3    3  502    0 -0.13850254016E+03 -0.37873396212E+02  0.12827555450E+03  0.19258618345E+03  0.41800000000E+01 0.  1.
         -5    1    3    3    0  502  0.17412140572E+02  0.54925955051E+01 -0.91401829519E+01  0.20841463218E+02  0.41800000000E+01 0.  1.
        -11    1    1    2    0    0  0.74623712272E+02  0.30303772024E+01  0.99227042335E+02  0.12419294485E+03  0.00000000000E+00 0. -1.
         11    1    1    2    0    0  0.46466687319E+02  0.29350423504E+02 -0.98694545354E+01  0.55839112843E+02  0.00000000000E+00 0.  1.
</event>
<event>
 7    1  0.2651429E-009  0.1087786E+03  0.7561462E-02  0.1262849E+00
         -3   -1    0    0    0  501 -0.00000000000E+00  0.00000000000E+00  0.29525181235E+02  0.29525181235E+02  0.00000000000E+00 0.  1.
          3   -1    0    0  501    0  0.00000000000E+00 -0.00000000000E+00 -0.42957546784E+03  0.42957546784E+03  0.00000000000E+00 0. -1.
         25    2    1    2    0    0  0.29353696356E+02  0.71950592538E+01 -0.22187397349E+03  0.25649127239E+03  0.12508518829E+03 0.  0.
          5    1    3    3  502    0  0.29756611022E+02  0.63781041054E+02 -0.14167854598E+03  0.15825220342E+03  0.41800000000E+01 0.  1.
         -5    1    3    3    0  502 -0.40291466564E+00 -0.56585981800E+02 -0.80195427512E+02  0.98239068961E+02  0.41800000000E+01 0.  1.
        -11    1    1    2    0    0  0.27597536276E+02  0.12163545686E+02 -0.29334096072E+02  0.42072140955E+02  0.00000000000E+00 0.  1.
         11    1    1    2    0    0 -0.56951232632E+02 -0.19358604940E+02 -0.14884221704E+03  0.16053723573E+03  0.00000000000E+00 0. -1.
</event>
<event>
 7    1  0.2651429E-009  0.1005984E+03  0.7561462E-02  0.1279043E+00
          1   -1    0    0  501    0  0.00000000000E+00  0.00000000000E+00  0.95867550500E+02  0.95867550500E+02  0.00000000000E+00 0. -1.
         -1   -1    0    0    0  501 -0.00000000000E+00 -0.00000000000E+00 -0.16859026862E+03  0.16859026862E+03  0.00000000000E+00 0.  1.
         25    2    1    2    0    0 -0.48070024884E+01  0.62784780053E+02 -0.18106096361E+02  0.14120947172E+03  0.12508896154E+03 0.  0.
          5    1    3    3  502    0 -0.12020927399E+02 -0.15086618745E+02 -0.52189998599E+02  0.55797644345E+02  0.41800000000E+01 0. -1.
         -5    1    3    3    0  502  0.72139249109E+01  0.77871398798E+02  0.34083902238E+02  0.85411827373E+02  0.41800000000E+01 0. -1.
        -11    1    1    2    0    0 -0.32660377803E+02 -0.32802220538E+01 -0.39437977921E+02  0.51310956310E+02  0.00000000000E+00 0.  1.
         11    1    1    2    0    0  0.37467380291E+02 -0.59504558000E+02 -0.15178643839E+02  0.71937391094E+02  0.00000000000E+00 0. -1.
</event>
<event>
 7    1  0.2651429E-009  0.2042878E+03  0.7561462E-02  0.1146171E+00
         -1   -1    0    0    0  501 -0.00000000000E+00  0.00000000000E+00  0.18999727277E+03  0.18999727277E+03  0.00000000000E+00 0.  1.
          1   -1    0    0  501    0  0.00000000000E+00 -0.00000000000E+00 -0.31353146457E+03  0.31353146457E+03  0.00000000000E+00 0. -1.
         25    2    1    2    0    0  0.65238214893E+02  0.18777406972E+03 -0.15550692454E+03  0.28166264178E+03  0.12504524881E+03 0.  0.
          5    1    3    3  502    0  0.20307625403E+02  0.27964097148E+02  0.19917420389E+02  0.40106937227E+02  0.41800000000E+01 0.  1.
         -5    1    3    3    0  502  0.44930589491E+02  0.15980997258E+03 -0.17542434493E+03  0.24155570455E+03  0.41800000000E+01 0.  1.
        -11    1    1    2    0    0 -0.23639972547E+02 -0.10947835165E+02  0.30626165898E+02  0.40207778282E+02  0.00000000000E+00 0. -1.
         11    1    1    2    0    0 -0.41598242347E+02 -0.17682623456E+03  0.13465668385E+01  0.18165831728E+03  0.00000000000E+00 0.  1.
</event>
<event>
 7    1  0.2651429E-009  0.1126263E+03  0.7561462E-02  0.1255782E+00
          1   -1    0    0  501    0  0.00000000000E+00  0.00000000000E+00  0.24166840440E+02  0.24166840440E+02  0.00000000000E+00 0.  1.
         -1   -1    0    0    0  501 -0.00000000000E+00 -0.00000000000E+00 -0.67604424665E+03  0.67604424665E+03  0.00000000000E+00 0. -1.
         25    2    1    2    0    0  0.22440679524E+02 -0.47526938291E+02 -0.47705404308E+03  0.49597307353E+03  0.12508531366E+03 0.  0.
          5    1    3    3  502    0  0.30879288516E+02 -0.84445847445E+02 -0.40014027615E+03  0.41013942094E+03  0.41800000000E+01 0.  1.
         -5    1    3    3    0  502 -0.84386089916E+01  0.36918909154E+02 -0.76913766923E+02  0.85833652591E+02  0.41800000000E+01 0.  1.
        -11    1    1    2    0    0 -0.39367068027E+02  0.62946562402E+02 -0.91530274294E+02  0.11785510967E+03  0.00000000000E+00 0. -1.
         11    1    1    2    0    0  0.16926388503E+02 -0.15419624112E+02 -0.83293088840E+02  0.86382903887E+02  0.00000000000E+00 0.  1.
</event>
<event>
 7    1  0.2651429E-009  0.1026234E+03  0.7561462E-02  0.1274874E+00
         -2   -1    0    0    0  501 -0.00000000000E+00  0.00000000000E+00  0.56914638439E+02  0.56914638439E+02  0.00000000000E+00 0.  1.
          2   -1    0    0  501    0  0.00000000000E+00 -0.00000000000E+00 -0.30869058442E+03  0.30869058442E+03  0.00000000000E+00 0. -1.
         25    2    1    2    0    0 -0.41593737835E+02  0.45801278750E+02 -0.19943562133E+03  0.24341368560E+03  0.12509140307E+03 0.  0.
          5    1    3    3  502    0 -0.39825528475E+02 -0.23950666200E+02 -0.15184216845E+03  0.15884968886E+03  0.41800000000E+01 0. -1.
         -5    1    3    3    0  502 -0.17682093597E+01  0.69751944951E+02 -0.47593452873E+02  0.84563996743E+02  0.41800000000E+01 0. -1.
        -11    1    1    2    0    0  0.27250803034E+02  0.11529476939E+02  0.14517260560E+02  0.32958852508E+02  0.00000000000E+00 0.  1.
         11    1    1    2    0    0  0.14342934801E+02 -0.57330755690E+02 -0.66857585211E+02  0.89232684746E+02  0.00000000000E+00 0. -1.
</event>
<event>
 7    1  0.2651429E-009  0.1608967E+03  0.7561462E-02  0.1187688E+00
         -4   -1    0    0    0  501 -0.00000000000E+00  0.00000000000E+00  0.80083945611E+03  0.80083945611E+03  0.00000000000E+00 0.  1.
          4   -1    0    0  501    0  0.00000000000E+00 -0.00000000000E+00 -0.37512935094E+02  0.37512935094E+02  0.00000000000E+00 0. -1.
         25    2    1    2    0    0 -0.63027683530E+02 -0.11984322844E+03  0.39034408146E+03  0.43168386960E+03  0.12509025960E+03 0.  0.
          5    1    3    3  502    0 -0.17333974594E+02 -0.13423759751E+03  0.30530609271E+03  0.33399024223E+03  0.41800000000E+01 0. -1.
         -5    1    3    3    0  502 -0.45693708936E+02  0.14394369069E+02  0.85037988750E+02  0.97693627366E+02  0.41800000000E+01 0. -1.
        -11    1    1    2    0    0  0.22676842297E+02  0.73101969249E+02  0.95437276772E+02  0.12233728329E+03  0.00000000000E+00 0. -1.
         11    1    1    2    0    0  0.40350841233E+02  0.46741259192E+02  0.27754516278E+03  0.28433123832E+03  0.00000000000E+00 0.  1.
</event>
<event>
 7    1  0.2651429E-009  0.1078060E+03  0.7561462E-02  0.1264688E+00
         -1   -1    0    0    0  501 -0.00000000000E+00  0.00000000000E+00  0.96160824754E+02  0.96160824754E+02  0.00000000000E+00 0.  1.
          1   -1    0    0  501    0  0.00000000000E+00 -0.00000000000E+00 -0.16205942756E+03  0.16205942756E+03  0.00000000000E+00 0. -1.
         25    2    1    2    0    0  0.34888787520E+02 -0.42152203761E+02 -0.16389583267E+01  0.13654485792E+03  0.12509107188E+03 0.  0.
          5    1    3    3  502    0  0.72563665557E+01  0.39371443811E+02 -0.24834849234E+02  0.47297014492E+02  0.41800000000E+01 0.  1.
         -5    1    3    3    0  502  0.27632420964E+02 -0.81523647571E+02  0.23195890908E+02  0.89247843429E+02  0.41800000000E+01 0.  1.
        -11    1    1    2    0    0 -0.17819230947E+02 -0.18787492892E+02  0.65473376799E+01  0.26708847063E+02  0.00000000000E+00 0.  1.
         11    1    1    2    0    0 -0.17069556573E+02  0.60939696653E+02 -0.70806982161E+02  0.94966547334E+02  0.00000000000E+00 0. -1.
</event>
<event>
 7    1  0.2651429E-009  0.2483871E+03  0.7561462E-02  0.1114328E+00
          1   -1    0    0  501    0  0.00000000000E+00  0.00000000000E+00  0.19165925130E+04  0.19165925130E+04  0.00000000000E+00 0. -1.
         -1   -1    0    0    0  501 -0.00000000000E+00 -0.00000000000E+00 -0.37657243942E+02  0.37657243942E+02  0.00000000000E+00 0.  1.
         25    2    1    2    0    0 -0.23812224499E+03 -0.51963553009E+01  0.76937352788E+03  0.81505223388E+03  0.12508122517E+03 0.  0.
          5    1    3    3  502    0 -0.10023491355E+03  0.25170858642E+02  0.50320280628E+03  0.51372283059E+03  0.41800000000E+01 0. -1.
         -5    1    3    3    0  502 -0.13788733143E+03 -0.30367213943E+02  0.26617072159E+03  0.30132940329E+03  0.41800000000E+01 0. -1.
        -11    1    1    2    0    0  0.15676293049E+03 -0.36075451607E+02  0.58270936465E+03  0.60450496957E+03  0.00000000000E+00 0.  1.
         11    1    1    2    0    0  0.81359314500E+02  0.41271806908E+02  0.52685237649E+03  0.53469255345E+03  0.00000000000E+00 0. -1.
</event>
<event>
 7    1  0.2651429E-009  0.9762480E+02  0.7561462E-02  0.1285371E+00
         -1   -1    0    0    0  501 -0.00000000000E+00  0.00000000000E+00  0.16449398777E+03  0.16449398777E+03  0.00000000000E+00 0.  1.
          1   -1    0    0  501    0  0.00000000000E+00 -0.00000000000E+00 -0.14093475462E+03  0.14093475462E+03  0.00000000000E+00 0. -1.
         25    2    1    2    0    0  0.50434667006E+02 -0.52543237731E+02  0.91351141229E+02  0.17116390287E+03  0.12509038002E+03 0.  0.
          5    1    3    3  502    0  0.68817932288E+02 -0.28079700297E+02 -0.30481610604E+00  0.74444225337E+02  0.41800000000E+01 0. -1.
         -5    1    3    3    0  502 -0.18383265282E+02 -0.24463537434E+02  0.91655957335E+02  0.96719677529E+02  0.41800000000E+01 0. -1.
        -11    1    1    2    0    0 -0.10428937483E+02 -0.10792855106E+02  0.15953082518E+02  0.21903180138E+02  0.00000000000E+00 0.  1.
         11    1    1    2    0    0 -0.40005729524E+02  0.63336092837E+02 -0.83744990590E+02  0.11236165938E+03  0.00000000000E+00 0. -1.
</event>
<event>
 7    1  0.2651429E-009  0.1276484E+03  0.7561462E-02  0.1230987E+00
         -1   -1    0    0    0  501 -0.00000000000E+00  0.00000000000E+00  0.12790128476E+04  0.12790128476E+04  0.00000000000E+00 0.  1.
          1   -1    0    0  501    0  0.00000000000E+00 -0.00000000000E+00 -0.18249539523E+02  0.18249539523E+02  0.00000000000E+00 0. -1.
         25    2    1    2    0    0 -0.74161197355E+02  0.56792348031E+02  0.91851701369E+03  0.93168770195E+03  0.12507284090E+03 0.  0.
          5    1    3    3  502    0 -0.99100031606E+02  0.40975045449E+02  0.46639065790E+03  0.47857861297E+03  0.41800000000E+01 0. -1.
         -5    1    3    3    0  502  0.24938834251E+02  0.15817302581E+02  0.45212635579E+03  0.45310908898E+03  0.41800000000E+01 0. -1.
        -11    1    1    2    0    0  0.15228754635E+01  0.15556259787E+02  0.11784672986E+02  0.19575364253E+02  0.00000000000E+00 0. -1.
         11    1    1    2    0    0  0.72638321892E+02 -0.72348607818E+02  0.33046162138E+03  0.34599932090E+03  0.00000000000E+00 0.  1.
</event>
<event>
 7    1  0.2651429E-009  0.1012673E+03  0.7561462E-02  0.1277653E+00
          1   -1    0    0  501    0  0.00000000000E+00  0.00000000000E+00  0.10217573261E+04  0.10217573261E+04  0.00000000000E+00 0.  1.
         -1   -1    0    0    0  501 -0.00000000000E+00 -0.00000000000E+00 -0.14804462828E+02  0.14804462828E+02  0.00000000000E+00 0. -1.
         25    2    1    2    0    0  0.43392467355E+02  0.53368718032E+02  0.58829004105E+03  0.60536230961E+03  0.12508887725E+03 0.  0.
          5    1    3    3  502    0  0.65595676333E+02  0.37541055819E+02  0.16913393585E+03  0.18529944490E+03  0.41800000000E+01 0. -1.
         -5    1    3    3    0  502 -0.22203208978E+02  0.15827662213E+02  0.41915610520E+03  0.42006286471E+03  0.41800000000E+01 0. -1.
        -11    1    1    2    0    0 -0.75625031225E+00 -0.56498872703E+02  0.17749351878E+03  0.18627035121E+03  0.00000000000E+00 0. -1.
         11    1    1    2    0    0 -0.42636217043E+02  0.31301546703E+01  0.24116930348E+03  0.24492912814E+03  0.00000000000E+00 0.  1.
</event>
<event>
 7    1  0.2651429E-009  0.1264801E+03  0.7561462E-02  0.1232774E+00
         -3   -1    0    0    0  501 -0.00000000000E+00  0.00000000000E+00  0.68630523066E+02  0.68630523066E+02  0.00000000000E+00 0.  1.
          3   -1    0    0  501    0  0.00000000000E+00 -0.00000000000E+00 -0.39772826926E+03  0.39772826926E+03  0.00000000000E+00 0. -1.
         25    2    1    2    0    0 -0.51101196923E+02  0.54240383159E+01 -0.31390796972E+03  0.34179676275E+03  0.12508421583E+03 0.  0.
          5    1    3    3  502    0  0.61503746605E+01  0.57300790401E+02 -0.12857815203E+03  0.14096460999E+03  0.41800000000E+01 0. -1.
         -5    1    3    3    0  502 -0.57251571584E+02 -0.51876752085E+02 -0.18532981769E+03  0.20083215276E+03  0.41800000000E+01 0. -1.
        -11    1    1    2    0    0 -0.27674525213E+02  0.20975572874E+02  0.12623175606E+02  0.36948593553E+02  0.00000000000E+00 0.  1.
         11    1    1    2    0    0  0.78775722136E+02 -0.26399611189E+02 -0.27812952072E+02  0.87613436024E+02  0.00000000000E+00 0. -1.
</event>
<event>
 7    1  0.2651429E-009  0.1130409E+03  0.7561462E-02  0.1255040E+00
         -2   -1    0    0    0  501 -0.00000000000E+00  0.00000000000E+00  0.71927871292E+02  0.71927871292E+02  0.00000000000E+00 0.  1.
          2   -1    0    0  501    0  0.00000000000E+00 -0.00000000000E+00 -0.22984866717E+03  0.22984866717E+03  0.00000000000E+00 0. -1.
         25    2    1    2    0    0 -0.32163112428E+02 -0.17878302720E+02 -0.15649909434E+03  0.20369893782E+03  0.12508873344E+03 0.  0.
          5    1    3    3  502    0 -0.41945360975E+02 -0.67430602245E+02 -0.10082994500E+03  0.12841514566E+03  0.41800000000E+01 0. -1.
         -5    1    3    3    0  502  0.97822485463E+01  0.49552299525E+02 -0.55669149338E+02  0.75283792166E+02  0.41800000000E+01 0. -1.
        -11    1    1    2    0    0 -0.24838524349E+02 -0.16022012149E+02 -0.10002379975E+02  0.31204242825E+02  0.00000000000E+00 0. -1.
         11    1    1    2    0    0  0.57001636777E+02  0.33900314869E+02  0.85806784277E+01  0.66873357818E+02  0.00000000000E+00 0.  1.
</event>
<event>
 7    1  0.2651429E-009  0.1083774E+03  0.7561462E-02  0.1263605E+00
         -2   -1    0    0    0  501 -0.00000000000E+00  0.00000000000E+00  0.12074113771E+02  0.12074113771E+02  0.00000000000E+00 0.  1.
          2   -1    0    0  501    0  0.00000000000E+00 -0.00000000000E+00 -0.17654971861E+04  0.17654971861E+04  0.00000000000E+00 0. -1.
         25    2    1    2    0    0 -0.54499178787E+02 -0.54529943848E+02 -0.13060587997E+04  0.13142978012E+04  0.12508176076E+03 0.  0.
          5    1    3    3  502    0 -0.57071125619E+02 -0.13899613809E+02 -0.11858890627E+04  0.11873502660E+04  0.41800000000E+01 0. -1.
         -5    1    3    3    0  502  0.25719468317E+01 -0.40630330039E+02 -0.12016973699E+03  0.12694753529E+03  0.41800000000E+01 0. -1.
        -11    1    1    2    0    0  0.39646625122E+02  0.78957655562E+02 -0.28397714190E+03  0.29740407424E+03  0.00000000000E+00 0.  1.
         11    1    1    2    0    0  0.14852553665E+02 -0.24427711714E+02 -0.16338713071E+03  0.16586942434E+03  0.00000000000E+00 0. -1.
</event>
<event>
 7    1  0.2651429E-009  0.1176280E+03  0.7561462E-02  0.1247062E+00
         -2   -1    0    0    0  501 -0.00000000000E+00  0.00000000000E+00  0.71380061900E+02  0.71380061900E+02  0.00000000000E+00 0. -1.
          2   -1    0    0  501    0  0.00000000000E+00 -0.00000000000E+00 -0.28152076887E+03  0.28152076887E+03  0.00000000000E+00 0.  1.
         25    2    1    2    0    0 -0.53066924788E+02  0.70838830474E+02 -0.14134643899E+03  0.20847170522E+03  0.12508955853E+03 0.  0.
          5    1    3    3  502    0  0.19668836803E+02  0.32745638710E+02 -0.11636647948E+03  0.12254701116E+03  0.41800000000E+01 0.  1.
         -5    1    3    3    0  502 -0.72735761592E+02  0.38093191764E+02 -0.24979959506E+02  0.85924694064E+02  0.41800000000E+01 0.  1.
        -11    1    1    2    0    0  0.30615514629E+02 -0.83433312849E+02 -0.76811649346E+02  0.11746683321E+03  0.00000000000E+00 0.  1.
         11    1    1    2    0    0  0.22451410160E+02  0.12594482375E+02  0.80173813636E+01  0.26962292343E+02  0.00000000000E+00 0. -1.
</event>
<event>
 7    1  0.2651429E-009  0.1438792E+03  0.7561462E-02  0.1208203E+00
         -2   -1    0    0    0  501 -0.00000000000E+00  0.00000000000E+00  0.91112274374E+02  0.91112274374E+02  0.00000000000E+00 0.  1.
          2   -1    0    0  501    0  0.00000000000E+00 -0.00000000000E+00 -0.38034420442E+03  0.38034420442E+03  0.00000000000E+00 0. -1.
         25    2    1    2    0    0  0.10337539381E+03 -0.57989524761E+02 -0.33060402425E+02  0.17546786673E+03  0.12508686990E+03 0.  0.
          5    1    3    3  502    0  0.12069524406E+03 -0.72636204492E+02 -0.76284100954E+01  0.14113477666E+03  0.41800000000E+01 0.  1.
         -5    1    3    3    0  502 -0.17319850256E+02  0.14646679731E+02 -0.25431992329E+02  0.34333090072E+02  0.41800000000E+01 0.  1.
        -11    1    1    2    0    0 -0.45607641223E+02  0.45979253626E+02 -0.50799267303E+02  0.82308652403E+02  0.00000000000E+00 0.  1.
         11    1    1    2    0    0 -0.57767752585E+02  0.12010271135E+02 -0.20537226032E+03  0.21367995966E+03  0.00000000000E+00 0. -1.
</event>
<event>
 7    1  0.2651429E-009  0.1423674E+03  0.7561462E-02  0.1210179E+00
          2   -1    0    0  501    0  0.00000000000E+00  0.00000000000E+00  0.53586083541E+03  0.53586083541E+03  0.00000000000E+00 0. -1.
         -2   -1    0    0    0  501 -0.00000000000E+00 -0.00000000000E+00 -0.49410790683E+02  0.49410790683E+02  0.00000000000E+00 0.  1.
         25    2    1    2    0    0 -0.66252090556E+02  0.98531748429E+02  0.29615473207E+03  0.34271421117E+03  0.12509020848E+03 0.  0.
          5    1    3    3  502    0 -0.85332422678E+02  0.43225891351E+02  0.25115499405E+03  0.26878691091E+03  0.41800000000E+01 0.  1.
         -5    1    3    3    0  502  0.19080332122E+02  0.55305857078E+02  0.44999738023E+02  0.73927300256E+02  0.41800000000E+01 0.  1.
        -11    1    1    2    0    0  0.74551991896E+02 -0.76630290619E+02  0.90568792120E+02  0.14011747586E+03  0.00000000000E+00 0.  1.
         11    1    1    2    0    0 -0.82999013391E+01 -0.21901457809E+02  0.99726520539E+02  0.10243993906E+03  0.00000000000E+00 0. -1.
</event>
<event>
 7    1  0.2651429E-009  0.1284306E+03  0.7561462E-02  0.1229803E+00
          1   -1    0    0  501    0  0.00000000000E+00  0.00000000000E+00  0.13473406828E+03  0.13473406828E+03  0.00000000000E+00 0. -1.
         -1   -1    0    0    0  501 -0.00000000000E+00 -0.00000000000E+00 -0.14322041264E+03  0.14322041264E+03  0.00000000000E+00 0.  1.
         25    2    1    2    0    0 -0.67773790272E+02  0.40850995414E+02  0.31302836589E+02  0.15129378491E+03  0.12509137181E+03 0.  0.
          5    1    3    3  502    0 -0.66628917203E+02  0.76549006434E+02 -0.29741633500E+01  0.10161437419E+03  0.41800000000E+01 0.  1.
         -5    1    3    3    0  502 -0.11448730687E+01 -0.35698011020E+02  0.34276999939E+02  0.49679410725E+02  0.41800000000E+01 0.  1.
        -11    1    1    2    0    0  0.88535547015E+02 -0.21863160357E+02 -0.36899877451E+02  0.98377547346E+02  0.00000000000E+00 0.  1.
         11    1    1    2    0    0 -0.20761756743E+02 -0.18987835057E+02 -0.28893035002E+01  0.28283148656E+02  0.00000000000E+00 0. -1.
</event>
<event>
 7    1  0.2651429E-009  0.1527929E+03  0.7561462E-02  0.1197083E+00
         -2   -1    0    0    0  501 -0.00000000000E+00  0.00000000000E+00  0.56372001785E+02  0.56372001785E+02  0.00000000000E+00 0.  1.
          2   -1    0    0  501    0  0.00000000000E+00 -0.00000000000E+00 -0.46795251650E+03  0.46795251650E+03  0.00000000000E+00 0. -1.
         25    2    1    2    0    0  0.81230630364E+02  0.74121982520E+02 -0.30053406637E+03  0.34359674242E+03  0.12508202411E+03 0.  0.
          5    1    3    3  502    0  0.75353581286E+02  0.10640191801E+03 -0.26295941490E+03  0.29353816899E+03  0.41800000000E+01 0.  1.
         -5    1    3    3    0  502  0.58770490781E+01 -0.32279935492E+02 -0.37574651466E+02  0.50058573432E+02  0.41800000000E+01 0.  1.
        -11    1    1    2    0    0 -0.55711072059E+02  0.78014423729E+01 -0.51650236936E+02  0.76369712770E+02  0.00000000000E+00 0. -1.
         11    1    1    2    0    0 -0.25519558304E+02 -0.81923424893E+02 -0.59396211413E+02  0.10435806309E+03  0.00000000000E+00 0.  1.
</event>
<event>
 7    1  0.2651429E-009  0.3702003E+03  0.7561462E-02  0.1054616E+00
         -1   -1    0    0    0  501 -0.00000000000E+00  0.00000000000E+00  0.13270910023E+03  0.13270910023E+03  0.00000000000E+00 0.  1.
          1   -1    0    0  501    0  0.00000000000E+00 -0.00000000000E+00 -0.12705936924E+04  0.12705936924E+04  0.00000000000E+00 0. -1.
         25    2    1    2    0    0 -0.33604643552E+03 -0.13836339953E+03 -0.30679696412E+03  0.49177748987E+03  0.12509630369E+03 0.  0.
          5    1    3    3  502    0 -0.21494479986E+03 -0.44176018537E+02 -0.23750296231E+03  0.32338509104E+03  0.41800000000E+01 0.  1.
         -5    1    3    3    0  502 -0.12110163566E+03 -0.94187380994E+02 -0.69294001813E+02  0.16839239884E+03  0.41800000000E+01 0.  1.
        -11    1    1    2    0    0  0.11807164373E+03  0.77148074048E+02 -0.23747065285E+03  0.27619748252E+03  0.00000000000E+00 0. -1.
         11    1    1    2    0    0  0.21797479179E+03  0.61215325483E+02 -0.59361697519E+03  0.63532782023E+03  0.00000000000E+00 0.  1.
</event>
<event>
 7    1  0.2651429E-009  0.1109832E+03  0.7561462E-02  0.1258760E+00
         -4   -1    0    0    0  501 -0.00000000000E+00  0.00000000000E+00  0.10245142934E+04  0.10245142934E+04  0.00000000000E+00 0.  1.
          4   -1    0    0  501    0  0.00000000000E+00 -0.00000000000E+00 -0.24646868410E+02  0.24646868410E+02  0.00000000000E+00 0. -1.
         25    2    1    2    0    0  0.59367344695E+01  0.46985839519E+02  0.88378042367E+03  0.89384494765E+03  0.12509212303E+03 0.  0.
          5    1    3    3  502    0 -0.58114849153E+02  0.23569058083E+02  0.33687491992E+03  0.34268793422E+03  0.41800000000E+01 0.  1.
         -5    1    3    3    0  502  0.64051583622E+02  0.23416781436E+02  0.54690550375E+03  0.55115701343E+03  0.41800000000E+01 0.  1.
        -11    1    1    2    0    0 -0.40934601260E+02 -0.34807848020E+02  0.29879391097E+02  0.61481752386E+02  0.00000000000E+00 0.  1.
         11    1    1    2    0    0  0.34997866791E+02 -0.12177991498E+02  0.86207610267E+02  0.93834461818E+02  0.00000000000E+00 0. -1.
</event>
<event>
 7    1  0.2651429E-009  0.1350862E+03  0.7561462E-02  0.1220098E+00
         -2   -1    0    0    0  501 -0.00000000000E+00  0.00000000000E+00  0.10037267000E+04  0.10037267000E+04  0.00000000000E+00 0.  1.
          2   -1    0    0  501    0  0.00000000000E+00 -0.00000000000E+00 -0.19866350817E+02  0.19866350817E+02  0.00000000000E+00 0. -1.
         25    2    1    2    0    0 -0.12827129298E+02  0.89966752352E+02  0.60786573181E+03  0.62722162493E+03  0.12509063553E+03 0.  0.
          5    1    3    3  502    0 -0.80702239391E+01  0.11694057561E+03  0.55781650323E+03  0.57001486859E+03  0.41800000000E+01 0. -1.
         -5    1    3    3    0  502 -0.47569053588E+01 -0.26973823256E+02  0.50049228585E+02  0.57206756346E+02  0.41800000000E+01 0. -1.
        -11    1    1    2    0    0  0.26570868364E+02 -0.10291492908E+03  0.30918708741E+03  0.32694670620E+03  0.00000000000E+00 0. -1.
         11    1    1    2    0    0 -0.13743739066E+02  0.12948176724E+02  0.66807529915E+02  0.69424719641E+02  0.00000000000E+00 0.  1.
</event>
<event>
 7    1  0.2651429E-009  0.9416698E+02  0.7561462E-02  0.1293063E+00
         -2   -1    0    0    0  501 -0.00000000000E+00  0.00000000000E+00  0.59701960268E+02  0.59701960268E+02  0.00000000000E+00 0. -1.
          2   -1    0    0  501    0  0.00000000000E+00 -0.00000000000E+00 -0.26306019726E+03  0.26306019726E+03  0.00000000000E+00 0.  1.
         25    2    1    2    0    0  0.26865022439E+02 -0.27034649086E+02 -0.63561575185E+02  0.14539639719E+03  0.12508971497E+03 0.  0.
          5    1    3    3  502    0  0.25372588223E+02 -0.54059895929E+02  0.15405787203E+02  0.61814652472E+02  0.41800000000E+01 0. -1.
         -5    1    3    3    0  502  0.14924342166E+01  0.27025246842E+02 -0.78967362388E+02  0.83581744713E+02  0.41800000000E+01 0. -1.
        -11    1    1    2    0    0 -0.61413852909E+02  0.88748201074E+01 -0.50826237016E+02  0.80210536280E+02  0.00000000000E+00 0. -1.
         11    1    1    2    0    0  0.34548830470E+02  0.18159828979E+02 -0.88970424791E+02  0.97155224064E+02  0.00000000000E+00 0.  1.
</event>
<event>
 7    1  0.2651429E-009  0.2846815E+03  0.7561462E-02  0.1093159E+00
         -1   -1    0    0    0  501 -0.00000000000E+00  0.00000000000E+00  0.87057064273E+02  0.87057064273E+02  0.00000000000E+00 0.  1.
          1   -1    0    0  501    0  0.00000000000E+00 -0.00000000000E+00 -0.10514237766E+04  0.10514237766E+04  0.00000000000E+00 0. -1.
         25    2    1    2    0    0 -0.27731878530E+03 -0.29781129436E+02 -0.41121776696E+03  0.51238684862E+03  0.12509039301E+03 0.  0.
          5    1    3    3  502    0  0.46234510324E+01 -0.37097628405E+01 -0.63666593574E+02  0.64078437693E+02  0.41800000000E+01 0.  1.
         -5    1    3    3    0  502 -0.28194223634E+03 -0.26071366595E+02 -0.34755117339E+03  0.44830841093E+03  0.41800000000E+01 0.  1.
        -11    1    1    2    0    0  0.81358204436E+02  0.10282276939E+02 -0.84496518593E+02  0.11774779956E+03  0.00000000000E+00 0.  1.
         11    1    1    2    0    0  0.19596058087E+03  0.19498852497E+02 -0.46865242681E+03  0.50834619272E+03  0.00000000000E+00 0. -1.
</event>
<event>
 7    1  0.2651429E-009  0.6383012E+02  0.7561462E-02  0.1382427E+00
          2   -1    0    0  501    0  0.00000000000E+00  0.00000000000E+00  0.56664935643E+03  0.56664935643E+03  0.00000000000E+00 0. -1.
         -2   -1    0    0    0  501 -0.00000000000E+00 -0.00000000000E+00 -0.22761162889E+02  0.22761162889E+02  0.00000000000E+00 0.  1.
         25    2    1    2    0    0  0.25062492351E+02  0.18486477730E+02  0.29787134717E+03  0.32456576169E+03  0.12508283581E+03 0.  0.
          5    1    3    3  502    0  0.21866576713E+02 -0.10721820492E+02  0.29353379796E+03  0.29457200742E+03  0.41800000000E+01 0.  1.
         -5    1    3    3    0  502  0.31959156385E+01  0.29208298222E+02  0.43375492066E+01  0.29993754265E+02  0.41800000000E+01 0.  1.
        -11    1    1    2    0    0  0.20376207056E+02 -0.18956885003E+02  0.19916023001E+02  0.34222818049E+02  0.00000000000E+00 0.  1.
         11    1    1    2    0    0 -0.45438699407E+02  0.47040727289E+00  0.22610082337E+03  0.23062193958E+03  0.00000000000E+00 0. -1.
</event>
<event>
 7    1  0.2651429E-009  0.1224042E+03  0.7561462E-02  0.1239183E+00
          2   -1    0    0  501    0  0.00000000000E+00  0.00000000000E+00  0.13840819128E+04  0.13840819128E+04  0.00000000000E+00 0. -1.
         -2   -1    0    0    0  501 -0.00000000000E+00 -0.00000000000E+00 -0.20259977890E+02  0.20259977890E+02  0.00000000000E+00 0.  1.
         25    2    1    2    0    0  0.77137497610E+02 -0.50908912162E+02  0.10759678139E+04  0.10871505846E+04  0.12509095151E+03 0.  0.
          5    1    3    3  502    0  0.66839629067E+02 -0.89751126635E+02  0.87715212725E+03  0.88427152362E+03  0.41800000000E+01 0. -1.
         -5    1    3    3    0  502  0.10297868544E+02  0.38842214473E+02  0.19881568667E+03  0.20287906099E+03  0.41800000000E+01 0. -1.
        -11    1    1    2    0    0 -0.47242081103E+02  0.31505233487E+02  0.27255274429E+03  0.27840508685E+03  0.00000000000E+00 0. -1.
         11    1    1    2    0    0 -0.29895416508E+02  0.19403678676E+02  0.15301376722E+02  0.38786219252E+02  0.00000000000E+00 0.  1.
</event>
<event>
 7    1  0.2651429E-009  0.1165127E+03  0.7561462E-02  0.1248963E+00
          1   -1    0    0  501    0  0.00000000000E+00  0.00000000000E+00  0.45890526166E+03  0.45890526166E+03  0.00000000000E+00 0. -1.
         -1   -1    0    0    0  501 -0.00000000000E+00 -0.00000000000E+00 -0.32263037577E+02  0.32263037577E+02  0.00000000000E+00 0.  1.
         25    2    1    2    0    0  0.44455215890E+02  0.32067058472E+02  0.22432889217E+03  0.26263036056E+03  0.12508673778E+03 0.  0.
          5    1    3    3  502    0 -0.40301128432E+02  0.60567071383E+01  0.36424403170E+02  0.54818557082E+02  0.41800000000E+01 0. -1.
         -5    1    3    3    0  502  0.84756344323E+02  0.26010351333E+02  0.18790448900E+03  0.20781180348E+03  0.41800000000E+01 0. -1.
        -11    1    1    2    0    0  0.18558342442E+02 -0.35644912409E+02  0.53653620144E+02  0.67034937230E+02  0.00000000000E+00 0. -1.
         11    1    1    2    0    0 -0.63013558333E+02  0.35778539377E+01  0.14865971177E+03  0.16150300145E+03  0.00000000000E+00 0.  1.
</event>
<event>
 7    1  0.2651429E-009  0.2191211E+03  0.7561462E-02  0.1134540E+00
          1   -1    0    0  501    0  0.00000000000E+00  0.00000000000E+00  0.26488802316E+03  0.26488802316E+03  0.00000000000E+00 0. -1.
         -1   -1    0    0    0  501 -0.00000000000E+00 -0.00000000000E+00 -0.34744769234E+03  0.34744769234E+03  0.00000000000E+00 0.  1.
         25    2    1    2    0    0 -0.37030079940E+02  0.19949089887E+03  0.15772765309E+03  0.28582053438E+03  0.12509004665E+03 0.  0.
          5    1    3    3  502    0 -0.17603505557E+02 -0.19196589080E+01 -0.11905773292E+02  0.21743696463E+02  0.41800000000E+01 0.  1.
         -5    1    3    3    0  502 -0.19426574384E+02  0.20141055778E+03  0.16963342638E+03  0.26407683792E+03  0.41800000000E+01 0.  1.
        -11    1    1    2    0    0 -0.24264868315E+02 -0.76237436484E+02 -0.61700572842E+02  0.10103410931E+03  0.00000000000E+00 0. -1.
         11    1    1    2    0    0  0.61294948255E+02 -0.12325346239E+03 -0.17858674943E+03  0.22548107181E+03  0.00000000000E+00 0.  1.
</event>
<event>
 6    1  0.2651429E-009  0.9798208E+02  0.7561462E-02  0.1284597E+00
         -2   -1    0    0    0  501 -0.00000000000E+00  0.00000000000E+00  0.37449038314E+02  0.37449038314E+02  0.00000000000E+00 0.  1.
          2   -1    0    0  501    0  0.00000000000E+00 -0.00000000000E+00 -0.32097132568E+03  0.32097132568E+03  0.00000000000E+00 0. -1.
          5    1    1    2  502    0  0.36462193509E+02  0.20106775177E+02 -0.39196578865E+02  0.57337755086E+02  0.41800000000E+01 0.  1.
         -5    1    1    2    0  502 -0.74964100590E+02 -0.56052243157E+02 -0.71634930818E+02  0.11794280840E+03  0.41800000000E+01 0.  1.
        -11    1    1    2    0    0  0.15519379451E+02 -0.24108946489E+01 -0.34791012998E+02  0.38171692876E+02  0.00000000000E+00 0.  1.
         11    1    1    2    0    0  0.22982527629E+02  0.38356362629E+02 -0.13789976469E+03  0.14496810763E+03  0.00000000000E+00 0. -1.
</event>
<event>
 7    1  0.2651429E-009  0.1111799E+03  0.7561462E-02  0.1258400E+00
         -1   -1    0    0    0  501 -0.00000000000E+00  0.00000000000E+00  0.26419076568E+02  0.26419076568E+02  0.00000000000E+00 0.  1.
          1   -1    0    0  501    0  0.00000000000E+00 -0.00000000000E+00 -0.56813391856E+03  0.56813391856E+03  0.00000000000E+00 0. -1.
         25    2    1    2    0    0 -0.82341578567E+01 -0.53536926286E+02 -0.32846689237E+03  0.35562889772E+03  0.12508960660E+03 0.  0.
          5    1    3    3  502    0  0.46882679538E+02 -0.21490489496E+02 -0.58035821813E+02  0.77752529174E+02  0.41800000000E+01 0. -1.
         -5    1    3    3    0  502 -0.55116837395E+02 -0.32046436790E+02 -0.27043107055E+03  0.27787636855E+03  0.41800000000E+01 0. -1.
        -11    1    1    2    0    0  0.20052382424E+02 -0.22289695160E+02 -0.75607785581E+02  0.81335513717E+02  0.00000000000E+00 0.  1.
         11    1    1    2    0    0 -0.11818224567E+02  0.75826621446E+02 -0.13764016405E+03  0.15758858370E+03  0.00000000000E+00 0. -1.
</event>
<event>
 7    1  0.2651429E-009  0.2900609E+03  0.7561462E-02  0.1090317E+00
         -2   -1    0    0    0  501 -0.00000000000E+00  0.00000000000E+00  0.42741880720E+03  0.42741880720E+03  0.00000000000E+00 0. -1.
          2   -1    0    0  501    0  0.00000000000E+00 -0.00000000000E+00 -0.34456490555E+03  0.34456490555E+03  0.00000000000E+00 0.  1.
         25    2    1    2    0    0  0.11897915951E+03  0.25976496341E+03 -0.19118794963E+03  0.36583724553E+03  0.12510068554E+03 0.  0.
          5    1    3    3  502    0  0.37490582680E+01  0.82436304167E+02 -0.11373818425E+03  0.14058323740E+03  0.41800000000E+01 0. -1.
         -5    1    3    3    0  502  0.11523010124E+03  0.17732865924E+03 -0.77449765379E+02  0.22525400813E+03  0.41800000000E+01 0. -1.
        -11    1    1    2    0    0 -0.75190263910E+02 -0.14980793091E+03  0.98455252337E+02  0.19439503251E+03  0.00000000000E+00 0.  1.
         11    1    1    2    0    0 -0.43788895597E+02 -0.10995703250E+03  0.17558659894E+03  0.21175143471E+03  0.00000000000E+00 0. -1.
</event>
<event>
 7    1  0.2651429E-009  0.2802196E+03  0.7561462E-02  0.1095569E+00
          2   -1    0    0  501    0  0.00000000000E+00  0.00000000000E+00  0.15189056935E+04  0.15189056935E+04  0.00000000000E+00 0. -1.
         -2   -1    0    0    0  501 -0.00000000000E+00 -0.00000000000E+00 -0.57698203908E+02  0.57698203908E+02  0.00000000000E+00 0.  1.
         25    2    1    2    0    0  0.62522642209E+02  0.26371553808E+03  0.86598548752E+03  0.91598691479E+03  0.12508476189E+03 0.  0.
          5    1    3    3  502    0  0.75772713918E+02  0.21212433512E+03  0.53172935363E+03  0.57748750258E+03  0.41800000000E+01 0. -1.
         -5    1    3    3    0  502 -0.13250071709E+02  0.51591202965E+02  0.33425613389E+03  0.33849941221E+03  0.41800000000E+01 0. -1.
        -11    1    1    2    0    0  0.29473465578E+01 -0.15347797518E+03  0.26311987231E+03  0.30462475756E+03  0.00000000000E+00 0.  1.
         11    1    1    2    0    0 -0.65469988767E+02 -0.11023756290E+03  0.33210212975E+03  0.35599222504E+03  0.00000000000E+00 0. -1.
</event>
<event>
 7    1  0.2651429E-009  0.1134985E+03  0.7561462E-02  0.1254225E+00
          1   -1    0    0  501    0  0.00000000000E+00  0.00000000000E+00  0.59109589432E+03  0.59109589432E+03  0.00000000000E+00 0. -1.
         -1   -1    0    0    0  501 -0.00000000000E+00 -0.00000000000E+00 -0.24118187823E+02  0.24118187823E+02  0.00000000000E+00 0.  1.
         25    2    1    2    0    0 -0.42516722791E+02  0.28503656640E+02  0.33285076898E+03  0.35924603262E+03  0.12509175586E+03 0.  0.
          5    1    3    3  502    0  0.41468346896E+02  0.44910676026E+01  0.16173153822E+03  0.16707589993E+03  0.41800000000E+01 0. -1.
         -5    1    3    3    0  502 -0.83985069688E+02  0.24012589037E+02  0.17111923076E+03  0.19217013269E+03  0.41800000000E+01 0. -1.
        -11    1    1    2    0    0 -0.16816910490E+02 -0.34108676031E+02  0.52595366580E+02  0.64903642769E+02  0.00000000000E+00 0.  1.
         11    1    1    2    0    0  0.59333633282E+02  0.56050193911E+01  0.18153157094E+03  0.19106440676E+03  0.00000000000E+00 0. -1.
</event>
<event>
 7    1  0.2651429E-009  0.2000856E+03  0.7561462E-02  0.1149667E+00
          1   -1    0    0  501    0  0.00000000000E+00  0.00000000000E+00  0.31190787393E+03  0.31190787393E+03  0.00000000000E+00 0. -1.
         -1   -1    0    0    0  501 -0.00000000000E+00 -0.00000000000E+00 -0.14993230993E+03  0.14993230993E+03  0.00000000000E+00 0.  1.
         25    2    1    2    0    0 -0.16973263672E+03  0.24185451708E+02  0.48762656120E+01  0.21228674636E+03  0.12509108950E+03 0.  0.
          5    1    3    3  502    0 -0.11408245911E+03  0.70437948263E+02  0.26320210961E+02  0.13669871227E+03  0.41800000000E+01 0. -1.
         -5    1    3    3    0  502 -0.55650177615E+02 -0.46252496555E+02 -0.21443945349E+02  0.75588034095E+02  0.41800000000E+01 0. -1.
        -11    1    1    2    0    0  0.47604333807E+02  0.33769869333E+02  0.40597011118E+02  0.71096371101E+02  0.00000000000E+00 0. -1.
         11    1    1    2    0    0  0.12212830291E+03 -0.57955321042E+02  0.11650228726E+03  0.17845706640E+03  0.00000000000E+00 0.  1.
</event>
<event>
 7    1  0.2651429E-009  0.7167279E+02  0.7561462E-02  0.1354495E+00
          1   -1    0    0  501    0  0.00000000000E+00  0.00000000000E+00  0.58274142845E+02  0.58274142845E+02  0.00000000000E+00 0. -1.
         -1   -1    0    0    0  501 -0.00000000000E+00 -0.00000000000E+00 -0.37736381092E+03  0.37736381092E+03  0.00000000000E+00 0.  1.
         25    2    1    2    0    0 -0.33220780348E+02  0.46926233886E+02 -0.51543734267E+02  0.14700184312E+03  0.12508834344E+03 0.  0.
          5    1    3    3  502    0  0.41157317702E+01  0.20782316470E+00 -0.80297788211E+02  0.80512046490E+02  0.41800000000E+01 0. -1.
         -5    1    3    3    0  502 -0.37336512118E+02  0.46718410722E+02  0.28754053944E+02  0.66489796629E+02  0.41800000000E+01 0. -1.
        -11    1    1    2    0    0  0.45244958694E+02 -0.23018412649E+02 -0.25326584180E+03  0.25830319438E+03  0.00000000000E+00 0.  1.
         11    1    1    2    0    0 -0.12024178346E+02 -0.23907821237E+02 -0.14280092014E+02  0.30332916265E+02  0.00000000000E+00 0. -1.
</event>
<event>
 7    1  0.2651429E-009  0.1887412E+03  0.7561462E-02  0.1159602E+00
          1   -1    0    0  501    0  0.00000000000E+00  0.00000000000E+00  0.32587495211E+03  0.32587495211E+03  0.00000000000E+00 0. -1.
         -1   -1    0    0    0  501 -0.00000000000E+00 -0.00000000000E+00 -0.20505001106E+03  0.20505001106E+03  0.00000000000E+00 0.  1.
         25    2    1    2    0    0 -0.61186002365E+01 -0.18147172232E+03 -0.89331737903E+02  0.23790191662E+03  0.12509092399E+03 0.  0.
          5    1    3    3  502    0 -0.15469366571E+02 -0.24333783061E+02  0.28859931825E+02  0.41009783773E+02  0.41800000000E+01 0. -1.
         -5    1    3    3    0  502  0.93507663344E+01 -0.15713793926E+03 -0.11819166973E+03  0.19689213285E+03  0.41800000000E+01 0. -1.
        -11    1    1    2    0    0 -0.25188709085E+02  0.53555779743E+02  0.11886267273E+03  0.13278187971E+03  0.00000000000E+00 0. -1.
         11    1    1    2    0    0  0.31307309321E+02  0.12791594257E+03  0.91294006220E+02  0.16024116685E+03  0.00000000000E+00 0.  1.
</event>
<event>
 7    1  0.2651429E-009  0.1104847E+03  0.7561462E-02  0.1259675E+00
         -1   -1    0    0    0  501 -0.00000000000E+00  0.00000000000E+00  0.35484037388E+03  0.35484037388E+03  0.00000000000E+00 0.  1.
          1   -1    0    0  501    0  0.00000000000E+00 -0.00000000000E+00 -0.34977478666E+02  0.34977478666E+02  0.00000000000E+00 0. -1.
         25    2    1    2    0    0 -0.10705762680E+02 -0.10085254967E+02  0.19569171828E+03  0.23272256323E+03  0.12509283397E+03 0.  0.
          5    1    3    3  502    0  0.31651298918E+02  0.45441215245E+02  0.76847109461E+02  0.94813814387E+02  0.41800000000E+01 0.  1.
         -5    1    3    3    0  502 -0.42357061599E+02 -0.55526470212E+02  0.11884460882E+03  0.13790874884E+03  0.41800000000E+01 0.  1.
        -11    1    1    2    0    0  0.26559837040E+02  0.47731175231E+02  0.80653293803E+02  0.97409670124E+02  0.00000000000E+00 0.  1.
         11    1    1    2    0    0 -0.15854074360E+02 -0.37645920264E+02  0.43517883129E+02  0.59685619192E+02  0.00000000000E+00 0. -1.
</event>
<event>
 7    1  0.2651429E-009  0.1051904E+03  0.7561462E-02  0.1269745E+00
          2   -1    0    0  501    0  0.00000000000E+00  0.00000000000E+00  0.67819462015E+03  0.67819462015E+03  0.00000000000E+00 0. -1.
         -2   -1    0    0    0  501 -0.00000000000E+00 -0.00000000000E+00 -0.21049699029E+02  0.21049699029E+02  0.00000000000E+00 0.  1.
         25    2    1    2    0    0 -0.15365788322E+02  0.46015112233E+02  0.31098804425E+03  0.33869705628E+03  0.12509450131E+03 0.  0.
          5    1    3    3  502    0 -0.55390323924E+02  0.40894185064E+02  0.27794419200E+03  0.28637539808E+03  0.41800000000E+01 0.  1.
         -5    1    3    3    0  502  0.40024535602E+02  0.51209271690E+01  0.33043852248E+02  0.52321658198E+02  0.41800000000E+01 0.  1.
        -11    1    1    2    0    0  0.28242003656E+02 -0.68963676821E+02  0.25787189618E+03  0.26842413143E+03  0.00000000000E+00 0.  1.
         11    1    1    2    0    0 -0.12876215334E+02  0.22948564587E+02  0.88284980690E+02  0.92123131479E+02  0.00000000000E+00 0. -1.
</event>
<event>
 7    1  0.2651429E-009  0.1982103E+03  0.7561462E-02  0.1151258E+00
          1   -1    0    0  501    0  0.00000000000E+00  0.00000000000E+00  0.10242547157E+03  0.10242547157E+03  0.00000000000E+00 0. -1.
         -1   -1    0    0    0  501 -0.00000000000E+00 -0.00000000000E+00 -0.56655739834E+03  0.56655739834E+03  0.00000000000E+00 0.  1.
         25    2    1    2    0    0 -0.55624225121E+01 -0.18840669108E+03 -0.38323924350E+03  0.44502418792E+03  0.12508472444E+03 0.  0.
          5    1    3    3  502    0  0.18889005544E+02 -0.11828092118E+03 -0.11295781853E+03  0.16469399507E+03  0.41800000000E+01 0.  1.
         -5    1    3    3    0  502 -0.24451428056E+02 -0.70125769903E+02 -0.27028142497E+03  0.28033019285E+03  0.41800000000E+01 0.  1.
        -11    1    1    2    0    0  0.37100785801E+02  0.13645394372E+03 -0.29695095459E+02  0.14449202662E+03  0.00000000000E+00 0. -1.
         11    1    1    2    0    0 -0.31538363289E+02  0.51952747367E+02 -0.51197587809E+02  0.79466655368E+02  0.00000000000E+00 0.  1.
</event>
<event>
 7    1  0.2651429E-009  0.1237814E+03  0.7561462E-02  0.1236986E+00
          2   -1    0    0  501    0  0.00000000000E+00  0.00000000000E+00  0.88021110543E+03  0.88021110543E+03  0.00000000000E+00 0.  1.
         -2   -1    0    0    0  501 -0.00000000000E+00 -0.00000000000E+00 -0.18699455860E+02  0.18699455860E+02  0.00000000000E+00 0. -1.
         25    2    1    2    0    0  0.63665627139E+02 -0.23865388102E+02  0.42680971351E+03  0.44992954967E+03  0.12508876567E+03 0.  0.
          5    1    3    3  502    0  0.14122205954E+02  0.46849961050E+02  0.22649953888E+03  0.23176252731E+03  0.41800000000E+01 0.  1.
         -5    1    3    3    0  502  0.49543421184E+02 -0.70715349152E+02  0.20031017463E+03  0.21816702237E+03  0.41800000000E+01 0.  1.
        -11    1    1    2    0    0 -0.23659757561E+01 -0.30187719951E+02  0.10297152798E+03  0.10733141130E+03  0.00000000000E+00 0.  1.
         11    1    1    2    0    0 -0.61299651383E+02  0.54053108052E+02  0.33173040808E+03  0.34164960032E+03  0.00000000000E+00 0. -1.
</event>
<event>
 7    1  0.2651429E-009  0.1185249E+03  0.7561462E-02  0.1245551E+00
         -2   -1    0    0    0  501 -0.00000000000E+00  0.00000000000E+00  0.21833339407E+02  0.21833339407E+02  0.00000000000E+00 0.  1.
          2   -1    0    0  501    0  0.00000000000E+00 -0.00000000000E+00 -0.77177386746E+03  0.77177386746E+03  0.00000000000E+00 0. -1.
         25    2    1    2    0    0  0.37615369384E+01 -0.58557958139E+02 -0.28941129032E+03  0.32070153400E+03  0.12508954923E+03 0.  0.
          5    1    3    3  502    0  0.53943620896E+01 -0.93929158672E+02 -0.15260400126E+03  0.17932439765E+03  0.41800000000E+01 0.  1.
         -5    1    3    3    0  502 -0.16328251511E+01  0.35371200532E+02 -0.13680728905E+03  0.14137713635E+03  0.41800000000E+01 0.  1.
        -11    1    1    2    0    0  0.26639330936E+02  0.69873771368E+02 -0.30550432065E+03  0.31452327071E+03  0.00000000000E+00 0.  1.
         11    1    1    2    0    0 -0.30400867874E+02 -0.11315813229E+02 -0.15502491708E+03  0.15838240215E+03  0.00000000000E+00 0. -1.
</event>
<event>
 7    1  0.2651429E-009  0.8232715E+02  0.7561462E-02  0.1322574E+00
          3   -1    0    0  501    0  0.00000000000E+00  0.00000000000E+00  0.15235216070E+03  0.15235216070E+03  0.00000000000E+00 0. -1.
         -3   -1    0    0    0  501 -0.00000000000E+00 -0.00000000000E+00 -0.92953427617E+02  0.92953427617E+02  0.00000000000E+00 0.  1.
         25    2    1    2    0    0 -0.40280345659E+02 -0.62267811201E+01  0.63852937333E+02  0.14622651343E+03  0.12507484389E+03 0.  0.
          5    1    3    3  502    0  0.20338461820E+02 -0.36043711119E+02 -0.13225542681E+02  0.43648476716E+02  0.41800000000E+01 0. -1.
         -5    1    3    3    0  502 -0.60618807479E+02  0.29816929999E+02  0.77078480014E+02  0.10257803671E+03  0.41800000000E+01 0. -1.
        -11    1    1    2    0    0  0.44662529651E+02 -0.34044957155E+01 -0.41188695337E+02  0.60850971803E+02  0.00000000000E+00 0.  1.
         11    1    1    2    0    0 -0.43821839913E+01  0.96312768356E+01  0.36734491083E+02  0.38228103080E+02  0.00000000000E+00 0. -1.
</event>
<event>
 7    1  0.2651429E-009  0.1692154E+03  0.7561462E-02  0.1178669E+00
         -1   -1    0    0    0  501 -0.00000000000E+00  0.00000000000E+00  0.83611732112E+02  0.83611732112E+02  0.00000000000E+00 0.  1.
          1   -1    0    0  501    0  0.00000000000E+00 -0.00000000000E+00 -0.44688221905E+03  0.44688221905E+03  0.00000000000E+00 0. -1.
         25    2    1    2    0    0  0.31934595040E+02  0.14299864089E+03 -0.27284865684E+03  0.33400982496E+03  0.12509094280E+03 0.  0.
          5    1    3    3  502    0  0.75544808690E+02  0.57062077193E+02 -0.15554557649E+03  0.18214004925E+03  0.41800000000E+01 0. -1.
         -5    1    3    3    0  502 -0.43610213650E+02  0.85936563700E+02 -0.11730308035E+03  0.15186977571E+03  0.41800000000E+01 0. -1.
        -11    1    1    2    0    0 -0.10002896176E+02 -0.77263461672E+02 -0.99741995834E+02  0.12656289414E+03  0.00000000000E+00 0. -1.
         11    1    1    2    0    0 -0.21931698863E+02 -0.65735179222E+02  0.93201657429E+01  0.69921232053E+02  0.00000000000E+00 0.  1.
</event>
<event>
 7    1  0.2651429E-009  0.1128331E+03  0.7561462E-02  0.1255412E+00
          2   -1    0    0  501    0  0.00000000000E+00  0.00000000000E+00  0.19808538185E+03  0.19808538185E+03  0.00000000000E+00 0. -1.
         -2   -1    0    0    0  501 -0.00000000000E+00 -0.00000000000E+00 -0.71382765917E+02  0.71382765917E+02  0.00000000000E+00 0.  1.
         25    2    1    2    0    0  0.46908493085E+02  0.27029579207E+01  0.59414653153E+02  0.14623871590E+03  0.12509175958E+03 0.  0.
          5    1    3    3  502    0 -0.76007527941E+01 -0.47861195526E+02  0.52313916873E+02  0.71433072024E+02  0.41800000000E+01 0. -1.
         -5    1    3    3    0  502  0.54509245879E+02  0.50564153446E+02  0.71007362792E+01  0.74805643876E+02  0.41800000000E+01 0. -1.
        -11    1    1    2    0    0 -0.74677054111E+02 -0.21204201416E+00  0.55084544578E+02  0.92795551746E+02  0.00000000000E+00 0. -1.
         11    1    1    2    0    0  0.27768561026E+02 -0.24909159065E+01  0.12203418207E+02  0.30433880125E+02  0.00000000000E+00 0.  1.
</event>
<event>
 7    1  0.2651429E-009  0.2839521E+03  0.7561462E-02  0.1093550E+00
          1   -1    0    0  501    0  0.00000000000E+00  0.00000000000E+00  0.12074574253E+04  0.12074574253E+04  0.00000000000E+00 0. -1.
         -1   -1    0    0    0  501 -0.00000000000E+00 -0.00000000000E+00 -0.73802592388E+02  0.73802592388E+02  0.00000000000E+00 0.  1.
         25    2    1    2    0    0 -0.26734953892E+03  0.74479752174E+02  0.55597056142E+03  0.63385938368E+03  0.12510572997E+03 0.  0.
          5    1    3    3  502    0 -0.80288243715E+02  0.59789210336E+02  0.10371188642E+03  0.14420325772E+03  0.41800000000E+01 0.  1.
         -5    1    3    3    0  502 -0.18706129521E+03  0.14690541837E+02  0.45225867499E+03  0.48965612596E+03  0.41800000000E+01 0.  1.
        -11    1    1    2    0    0  0.43097696997E+02 -0.26840564241E+02  0.19315438152E+03  0.19971590441E+03  0.00000000000E+00 0. -1.
         11    1    1    2    0    0  0.22425184193E+03 -0.47639187933E+02  0.38452989003E+03  0.44768472965E+03  0.00000000000E+00 0.  1.
</event>
<event>
 7    1  0.2651429E-009  0.1241998E+03  0.7561462E-02  0.1236325E+00
         -1   -1    0    0    0  501 -0.00000000000E+00  0.00000000000E+00  0.47828822706E+02  0.47828822706E+02  0.00000000000E+00 0.  1.
          1   -1    0    0  501    0  0.00000000000E+00 -0.00000000000E+00 -0.37935398381E+03  0.37935398381E+03  0.00000000000E+00 0. -1.
         25    2    1    2    0    0  0.62886774457E+02 -0.47782720437E+02 -0.19945738345E+03  0.24833265821E+03  0.12509167258E+03 0.  0.
          5    1    3    3  502    0  0.62514385807E+02 -0.84038940359E+02 -0.11116117188E+03  0.15279028262E+03  0.41800000000E+01 0.  1.
         -5    1    3    3    0  502  0.37238864930E+00  0.36256219922E+02 -0.88296211568E+02  0.95542375591E+02  0.41800000000E+01 0.  1.
        -11    1    1    2    0    0  0.17601454019E+01 -0.16097423962E+02  0.25828289013E+01  0.16398054006E+02  0.00000000000E+00 0.  1.
         11    1    1    2    0    0 -0.64646919859E+02  0.63880144399E+02 -0.13465060655E+03  0.16245209430E+03  0.00000000000E+00 0. -1.
</event>
<event>
 7    1  0.2651429E-009  0.8538728E+02  0.7561462E-02  0.1314423E+00
         -2   -1    0    0    0  501 -0.00000000000E+00  0.00000000000E+00  0.44600617370E+02  0.44600617370E+02  0.00000000000E+00 0.  1.
          2   -1    0    0  501    0  0.00000000000E+00 -0.00000000000E+00 -0.48834476972E+03  0.48834476972E+03  0.00000000000E+00 0. -1.
         25    2    1    2    0    0 -0.60553759623E+02 -0.13496375763E+02 -0.98520132939E+02  0.17088158695E+03  0.12508153422E+03 0.  0.
          5    1    3    3  502    0 -0.18835689994E+02 -0.71979625525E+01 -0.12110540581E+03  0.12284374465E+03  0.41800000000E+01 0. -1.
         -5    1    3    3    0  502 -0.41718069629E+02 -0.62984132104E+01  0.22585272873E+02  0.48037842305E+02  0.41800000000E+01 0. -1.
        -11    1    1    2    0    0  0.47989772768E+02 -0.33896927271E+02 -0.15951393513E+03  0.16999033934E+03  0.00000000000E+00 0.  1.
         11    1    1    2    0    0  0.12563986855E+02  0.47393303034E+02 -0.18571008428E+03  0.19207346080E+03  0.00000000000E+00 0. -1.
</event>
<event>
 7    1  0.2651429E-009  0.8205239E+02  0.7561462E-02  0.1323326E+00
          1   -1    0    0  501    0  0.00000000000E+00  0.00000000000E+00  0.12418523077E+03  0.12418523077E+03  0.00000000000E+00 0. -1.
         -1   -1    0    0    0  501 -0.00000000000E+00 -0.00000000000E+00 -0.10523407964E+03  0.10523407964E+03  0.00000000000E+00 0.  1.
         25    2    1    2    0    0  0.13871696950E+02  0.20987069195E+02  0.43906926504E+02  0.13493875372E+03  0.12509103889E+03 0.  0.
          5    1    3    3  502    0  0.60848445146E+02  0.33844317274E+02  0.49793618269E+02  0.85702088124E+02  0.41800000000E+01 0.  1.
         -5    1    3    3    0  502 -0.46976748197E+02 -0.12857248079E+02 -0.58866917658E+01  0.49236665598E+02  0.41800000000E+01 0.  1.
        -11    1    1    2    0    0  0.12166708760E+02 -0.13920907012E+02  0.28863539141E+02  0.34277169455E+02  0.00000000000E+00 0. -1.
         11    1    1    2    0    0 -0.26038405710E+02 -0.70661621829E+01 -0.53819314509E+02  0.60203387231E+02  0.00000000000E+00 0.  1.
</event>
<event>
 7    1  0.2651429E-009  0.8621650E+02  0.7561462E-02  0.1312282E+00
          2   -1    0    0  501    0  0.00000000000E+00  0.00000000000E+00  0.33342519066E+03  0.33342519066E+03  0.00000000000E+00 0. -1.
         -2   -1    0    0    0  501 -0.00000000000E+00 -0.00000000000E+00 -0.54781081556E+02  0.54781081556E+02  0.00000000000E+00 0.  1.
         25    2    1    2    0    0  0.71239528692E+02  0.32355008384E+02  0.18202018589E+03  0.23431103323E+03  0.12509354582E+03 0.  0.
          5    1    3    3  502    0  0.15982859811E+02  0.10409674743E+02 -0.17412517843E+02  0.26162593786E+02  0.41800000000E+01 0. -1.
         -5    1    3    3    0  502  0.55256668882E+02  0.21945333641E+02  0.19943270373E+03  0.20814843944E+03  0.41800000000E+01 0. -1.
        -11    1    1    2    0    0 -0.36145201754E+01 -0.25023780739E+02 -0.10191493673E+02  0.27260243980E+02  0.00000000000E+00 0.  1.
         11    1    1    2    0    0 -0.67625008517E+02 -0.73312276444E+01  0.10681541689E+03  0.12663499501E+03  0.00000000000E+00 0. -1.
</event>
<event>
 7    1  0.2651429E-009  0.1694154E+03  0.7561462E-02  0.1178459E+00
          1   -1    0    0  501    0  0.00000000000E+00  0.00000000000E+00  0.12407976109E+03  0.12407976109E+03  0.00000000000E+00 0. -1.
         -1   -1    0    0    0  501 -0.00000000000E+00 -0.00000000000E+00 -0.27416450473E+03  0.27416450473E+03  0.00000000000E+00 0.  1.
         25    2    1    2    0    0 -0.29212419909E+02  0.13115813610E+03 -0.14230688395E+03  0.23228088105E+03  0.12508931345E+03 0.  0.
          5    1    3    3  502    0  0.35266187148E+02  0.10992750573E+03 -0.92182943277E+02  0.14779353133E+03  0.41800000000E+01 0.  1.
         -5    1    3    3    0  502 -0.64478607057E+02  0.21230630367E+02 -0.50123940674E+02  0.84487349719E+02  0.41800000000E+01 0.  1.
        -11    1    1    2    0    0  0.55738697814E+02 -0.77768944719E+02  0.23664865980E+02  0.98563873090E+02  0.00000000000E+00 0.  1.
         11    1    1    2    0    0 -0.26526277905E+02 -0.53389191382E+02 -0.31442725670E+02  0.67399511671E+02  0.00000000000E+00 0. -1.
</event>
<event>
 7    1  0.2651429E-009  0.1015008E+03  0.7561462E-02  0.1277171E+00
          2   -1    0    0  501    0  0.00000000000E+00  0.00000000000E+00  0.31001319896E+03  0.31001319896E+03  0.00000000000E+00 0.  1.
         -2   -1    0    0    0  501 -0.00000000000E+00 -0.00000000000E+00 -0.69488011120E+02  0.69488011120E+02  0.00000000000E+00 0. -1.
         25    2    1    2    0    0 -0.23583407062E+02  0.33475985719E+02  0.13739526652E+02  0.13233834596E+03  0.12509134466E+03 0.  0.
          5    1    3    3  502    0 -0.69621959757E+02  0.15122922959E+02  0.33474232548E+02  0.78828400491E+02  0.41800000000E+01 0. -1.
         -5    1    3    3    0  502  0.46038552695E+02  0.18353062760E+02 -0.19734705896E+02  0.53509945466E+02  0.41800000000E+01 0. -1.
        -11    1    1    2    0    0  0.46683621572E+02 -0.77535553002E+01  0.57919896510E+02  0.74794335043E+02  0.00000000000E+00 0. -1.
         11    1    1    2    0    0 -0.23100214509E+02 -0.25722430419E+02  0.16886576468E+03  0.17236852908E+03  0.00000000000E+00 0.  1.
</event>
<event>
 7    1  0.2651429E-009  0.1843409E+03  0.7561462E-02  0.1163667E+00
         -2   -1    0    0    0  501 -0.00000000000E+00  0.00000000000E+00  0.12658942101E+03  0.12658942101E+03  0.00000000000E+00 0.  1.
          2   -1    0    0  501    0  0.00000000000E+00 -0.00000000000E+00 -0.37788000664E+03  0.37788000664E+03  0.00000000000E+00 0. -1.
         25    2    1    2    0    0  0.85361607258E+02 -0.12832285934E+03 -0.25699097935E+03  0.32472294923E+03  0.12508904854E+03 0.  0.
          5    1    3    3  502    0  0.36826683513E+02  0.17516052424E+02 -0.31049840909E+02  0.51425496902E+02  0.41800000000E+01 0. -1.
         -5    1    3    3    0  502  0.48534923745E+02 -0.14583891177E+03 -0.22594113844E+03  0.27329745233E+03  0.41800000000E+01 0. -1.
        -11    1    1    2    0    0 -0.94888004379E+02  0.78347950615E+02  0.24574916814E+02  0.12548331075E+03  0.00000000000E+00 0.  1.
         11    1    1    2    0    0  0.95263971208E+01  0.49974908726E+02 -0.18874523097E+02  0.54263167677E+02  0.00000000000E+00 0. -1.
</event>
<event>
 7    1  0.2651429E-009  0.1729885E+03  0.7561462E-02  0.1174767E+00
         -2   -1    0    0    0  501 -0.00000000000E+00  0.00000000000E+00  0.56922530662E+02  0.56922530662E+02  0.00000000000E+00 0.  1.
          2   -1    0    0  501    0  0.00000000000E+00 -0.00000000000E+00 -0.66220376545E+03  0.66220376545E+03  0.00000000000E+00 0. -1.
         25    2    1    2    0    0  0.85143111152E+02  0.13680337591E+03 -0.29875674355E+03  0.36175643447E+03  0.12509041939E+03 0.  0.
          5    1    3    3  502    0  0.37772580862E+02  0.90766312208E+02 -0.62895997973E+02  0.11678471757E+03  0.41800000000E+01 0.  1.
         -5    1    3    3    0  502  0.47370530290E+02  0.46037063697E+02 -0.23586074558E+03  0.24497171690E+03  0.41800000000E+01 0.  1.
        -11    1    1    2    0    0 -0.35197406537E+02 -0.12527972484E+03 -0.24389209013E+03  0.27643664466E+03  0.00000000000E+00 0.  1.
         11    1    1    2    0    0 -0.49945704615E+02 -0.11523651068E+02 -0.62632401102E+02  0.80933216983E+02  0.00000000000E+00 0. -1.
</event>
<event>
 7    1  0.2651429E-009  0.1250032E+03  0.7561462E-02  0.1235064E+00
          1   -1    0    0  501    0  0.00000000000E+00  0.00000000000E+00  0.95726946079E+03  0.95726946079E+03  0.00000000000E+00 0. -1.
         -1   -1    0    0    0  501 -0.00000000000E+00 -0.00000000000E+00 -0.17452603202E+02  0.17452603202E+02  0.00000000000E+00 0.  1.
         25    2    1    2    0    0 -0.26102192498E+02 -0.60265826908E+02  0.59794715981E+03  0.61441118491E+03  0.12508798452E+03 0.  0.
          5    1    3    3  502    0 -0.59024018908E+02  0.94667417450E+01  0.33661018470E+03  0.34190253414E+03  0.41800000000E+01 0.  1.
         -5    1    3    3    0  502  0.32921826409E+02 -0.69732568653E+02  0.26133697511E+03  0.27250865077E+03  0.41800000000E+01 0.  1.
        -11    1    1    2    0    0  0.46599835000E+02 -0.26596355858E+01  0.16462502482E+03  0.17111404700E+03  0.00000000000E+00 0. -1.
         11    1    1    2    0    0 -0.20497642502E+02  0.62925462494E+02  0.17724467295E+03  0.18919683208E+03  0.00000000000E+00 0.  1.
</event>
<event>
 7    1  0.2651429E-009  0.2868081E+03  0.7561462E-02  0.1092028E+00
         -2   -1    0    0    0  501 -0.00000000000E+00  0.00000000000E+00  0.96861938725E+02  0.96861938725E+02  0.00000000000E+00 0.  1.
          2   -1    0    0  501    0  0.00000000000E+00 -0.00000000000E+00 -0.94957940304E+03  0.94957940304E+03  0.00000000000E+00 0. -1.
         25    2    1    2    0    0 -0.25040689012E+03  0.47016966384E+01 -0.47757173928E+03  0.55357420009E+03  0.12507562624E+03 0.  0.
          5    1    3    3  502    0 -0.17939553258E+03  0.29932152369E+02 -0.42292189578E+03  0.46039015322E+03  0.41800000000E+01 0. -1.
         -5    1    3    3    0  502 -0.71011357542E+02 -0.25230455731E+02 -0.54649843499E+02  0.93184046868E+02  0.41800000000E+01 0. -1.
        -11    1    1    2    0    0  0.19206272856E+03  0.84337896671E+02 -0.28168928538E+03  0.35121193888E+03  0.00000000000E+00 0. -1.
         11    1    1    2    0    0  0.58344161563E+02 -0.89039593309E+02 -0.93456439657E+02  0.14165520279E+03  0.00000000000E+00 0.  1.
</event>
<event>
 7    1  0.2651429E-009  0.1199510E+03  0.7561462E-02  0.1243178E+00
          1   -1    0    0  501    0  0.00000000000E+00  0.00000000000E+00  0.21591009756E+03  0.21591009756E+03  0.00000000000E+00 0. -1.
         -1   -1    0    0    0  501 -0.00000000000E+00 -0.00000000000E+00 -0.77836856544E+02  0.77836856544E+02  0.00000000000E+00 0.  1.
         25    2    1    2    0    0 -0.18040362713E+02 -0.68088787811E+02  0.92922714802E+02  0.17100690434E+03  0.12508873928E+03 0.  0.
          5    1    3    3  502    0 -0.40904263555E+02  0.14238027566E+02 -0.15737951295E+01  0.43541123517E+02  0.41800000000E+01 0.  1.
         -5    1    3    3    0  502  0.22863900843E+02 -0.82326815377E+02  0.94496509932E+02  0.12746578082E+03  0.41800000000E+01 0.  1.
        -11    1    1    2    0    0 -0.30920049972E+02  0.55402914364E+01  0.80931964041E-01  0.31412590938E+02  0.00000000000E+00 0.  1.
         11    1    1    2    0    0  0.48960412685E+02  0.62548496375E+02  0.45069594246E+02  0.91327458820E+02  0.00000000000E+00 0. -1.
</event>
<event>
 7    1  0.2651429E-009  0.1206109E+03  0.7561462E-02  0.1242093E+00
         -2   -1    0    0    0  501 -0.00000000000E+00  0.00000000000E+00  0.86461579210E+02  0.86461579210E+02  0.00000000000E+00 0.  1.
          2   -1    0    0  501    0  0.00000000000E+00 -0.00000000000E+00 -0.20221021237E+03  0.20221021237E+03  0.00000000000E+00 0. -1.
         25    2    1    2    0    0 -0.74959506614E+02 -0.62511720881E+01 -0.65851712461E+02  0.16013123055E+03  0.12509020018E+03 0.  0.
          5    1    3    3  502    0  0.12052597714E+02  0.43105625609E+02 -0.12395742429E+02  0.46631393944E+02  0.41800000000E+01 0.  1.
         -5    1    3    3    0  502 -0.87012104328E+02 -0.49356797698E+02 -0.53455970032E+02  0.11349983661E+03  0.41800000000E+01 0.  1.
        -11    1    1    2    0    0  0.28463487220E+02 -0.26803061067E+02 -0.58992535878E+02  0.70772123583E+02  0.00000000000E+00 0. -1.
         11    1    1    2    0    0  0.46496019394E+02  0.33054233155E+02  0.90956151787E+01  0.57768437441E+02  0.00000000000E+00 0.  1.
</event>
<event>
 7    1  0.2651429E-009  0.9758030E+02  0.7561462E-02  0.1285468E+00
          1   -1    0    0  501    0  0.00000000000E+00  0.00000000000E+00  0.31156222090E+03  0.31156222090E+03  0.00000000000E+00 0. -1.
         -1   -1    0    0    0  501 -0.00000000000E+00 -0.00000000000E+00 -0.79294975573E+02  0.79294975573E+02  0.00000000000E+00 0.  1.
         25    2    1    2    0    0  0.77420146975E+02  0.72790878073E+01  0.30685961070E+02  0.15044641255E+03  0.12508249504E+03 0.  0.
          5    1    3    3  502    0  0.41616776637E+02  0.79830543151E-01 -0.47958615753E+02  0.63635396561E+02  0.41800000000E+01 0. -1.
         -5    1    3    3    0  502  0.35803370338E+02  0.71992572641E+01  0.78644576822E+02  0.86811015985E+02  0.41800000000E+01 0. -1.
        -11    1    1    2    0    0 -0.95802397236E+02 -0.14368602572E+02  0.19794126579E+03  0.22037536332E+03  0.00000000000E+00 0. -1.
         11    1    1    2    0    0  0.18382250261E+02  0.70895147648E+01  0.36400184618E+01  0.20035420601E+02  0.00000000000E+00 0.  1.
</event>
<event>
 7    1  0.2651429E-009  0.7761724E+02  0.7561462E-02  0.1335953E+00
          1   -1    0    0  501    0  0.00000000000E+00  0.00000000000E+00  0.11231515676E+03  0.11231515676E+03  0.00000000000E+00 0. -1.
         -1   -1    0    0    0  501 -0.00000000000E+00 -0.00000000000E+00 -0.11765153598E+03  0.11765153598E+03  0.00000000000E+00 0.  1.
         25    2    1    2    0    0  0.66127513205E+01  0.17986426019E+02  0.29552032947E+02  0.12994964543E+03  0.12508536163E+03 0.  0.
          5    1    3    3  502    0 -0.38941413437E+01  0.40383056318E+02  0.70778696569E+02  0.81688749914E+02  0.41800000000E+01 0.  1.
         -5    1    3    3    0  502  0.10506892664E+02 -0.22396630299E+02 -0.41226663623E+02  0.48260895512E+02  0.41800000000E+01 0.  1.
        -11    1    1    2    0    0 -0.12464266826E+02 -0.52701400896E+02 -0.35593968771E+02  0.64805294666E+02  0.00000000000E+00 0.  1.
         11    1    1    2    0    0  0.58515155056E+01  0.34714974876E+02  0.70555661011E+00  0.35211752647E+02  0.00000000000E+00 0. -1.
</event>
<event>
 7    1  0.2651429E-009  0.1036172E+03  0.7561462E-02  0.1272868E+00
          3   -1    0    0  501    0  0.00000000000E+00  0.00000000000E+00  0.99983439774E+02  0.99983439774E+02  0.00000000000E+00 0. -1.
         -3   -1    0    0    0  501 -0.00000000000E+00 -0.00000000000E+00 -0.12751023170E+03  0.12751023170E+03  0.00000000000E+00 0.  1.
         25    2    1    2    0    0 -0.11509629050E+02  0.17157378070E+02 -0.99207077926E+01  0.12716809082E+03  0.12508579335E+03 0.  0.
          5    1    3    3  502    0 -0.24057868322E+02  0.67915256797E+02 -0.17253498502E+02  0.74205247419E+02  0.41800000000E+01 0.  1.
         -5    1    3    3    0  502  0.12548239272E+02 -0.50757878727E+02  0.73327907098E+01  0.52962843403E+02  0.41800000000E+01 0.  1.
        -11    1    1    2    0    0 -0.27758359226E+02 -0.30402578537E+02  0.18712409846E+02  0.45221649361E+02  0.00000000000E+00 0. -1.
         11    1    1    2    0    0  0.39267988276E+02  0.13245200467E+02 -0.36318493978E+02  0.55103931289E+02  0.00000000000E+00 0.  1.
</event>
<event>
 7    1  0.2651429E-009  0.7760206E+02  0.7561462E-02  0.1335998E+00
         -2   -1    0    0    0  501 -0.00000000000E+00  0.00000000000E+00  0.14521942796E+03  0.14521942796E+03  0.00000000000E+00 0.  1.
          2   -1    0    0  501    0  0.00000000000E+00 -0.00000000000E+00 -0.85042953100E+02  0.85042953100E+02  0.00000000000E+00 0. -1.
         25    2    1    2    0    0  0.66118901988E+01  0.17834631803E+02  0.13257564152E+02  0.12721676130E+03  0.12508617095E+03 0.  0.
          5    1    3    3  502    0  0.52104043878E+02  0.28630478710E+02  0.41324438035E+02  0.72523908323E+02  0.41800000000E+01 0.  1.
         -5    1    3    3    0  502 -0.45492153679E+02 -0.10795846906E+02 -0.28066873883E+02  0.54692852973E+02  0.41800000000E+01 0.  1.
        -11    1    1    2    0    0  0.19125122304E+02 -0.43744481045E+01  0.65627571183E+02  0.68497329865E+02  0.00000000000E+00 0.  1.
         11    1    1    2    0    0 -0.25737012503E+02 -0.13460183699E+02 -0.18708660478E+02  0.34548289895E+02  0.00000000000E+00 0. -1.
</event>
<event>
 7    1  0.2651429E-009  0.1033533E+03  0.7561462E-02  0.1273398E+00
          2   -1    0    0  501    0  0.00000000000E+00  0.00000000000E+00  0.47678919965E+03  0.47678919965E+03  0.00000000000E+00 0.  1.
         -2   -1    0    0    0  501 -0.00000000000E+00 -0.00000000000E+00 -0.29539990250E+02  0.29539990250E+02  0.00000000000E+00 0. -1.
         25    2    1    2    0    0  0.21306072478E+02 -0.27541829939E+02  0.17488261818E+03  0.21781628967E+03  0.12508998674E+03 0.  0.
          5    1    3    3  502    0  0.68826721229E+02  0.31190891074E+01  0.12254792619E+03  0.14064961033E+03  0.41800000000E+01 0.  1.
         -5    1    3    3    0  502 -0.47520648751E+02 -0.30660919046E+02  0.52334691991E+02  0.77166679339E+02  0.41800000000E+01 0.  1.
        -11    1    1    2    0    0 -0.41508290698E+02 -0.58788355664E+01  0.21542621290E+03  0.21946742835E+03  0.00000000000E+00 0.  1.
         11    1    1    2    0    0  0.20202218220E+02  0.33420665505E+02  0.56940378323E+02  0.69045471882E+02  0.00000000000E+00 0. -1.
</event>
<event>
 7    1  0.2651429E-009  0.5817990E+02  0.7561462E-02  0.1405633E+00
          1   -1    0    0  501    0  0.00000000000E+00  0.00000000000E+00  0.56920532445E+03  0.56920532445E+03  0.00000000000E+00 0. -1.
         -1   -1    0    0    0  501 -0.00000000000E+00 -0.00000000000E+00 -0.23498333880E+02  0.23498333880E+02  0.00000000000E+00 0.  1.
         25    2    1    2    0    0 -0.13944545325E+02 -0.19759027967E+01  0.21166607534E+03  0.24626437391E+03  0.12508101323E+03 0.  0.
          5    1    3    3  502    0 -0.78924979378E+01  0.85925970051E+01 -0.14872911884E+02  0.19359756065E+02  0.41800000000E+01 0.  1.
         -5    1    3    3    0  502 -0.60520473874E+01 -0.10568499802E+02  0.22653898723E+03  0.22690461784E+03  0.41800000000E+01 0.  1.
        -11    1    1    2    0    0 -0.38408374849E+02  0.45333064633E+01  0.16425783971E+03  0.16874949491E+03  0.00000000000E+00 0. -1.
         11    1    1    2    0    0  0.52352920174E+02 -0.25574036665E+01  0.16978307551E+03  0.17768978950E+03  0.00000000000E+00 0.  1.
</event>
<event>
 7    1  0.2651429E-009  0.1186908E+03  0.7561462E-02  0.1245273E+00
         -1   -1    0    0    0  501 -0.00000000000E+00  0.00000000000E+00  0.38097764121E+02  0.38097764121E+02  0.00000000000E+00 0.  1.
          1   -1    0    0  501    0  0.00000000000E+00 -0.00000000000E+00 -0.38945654965E+03  0.38945654965E+03  0.00000000000E+00 0. -1.
         25    2    1    2    0    0 -0.45193150680E+02  0.16513601742E+02 -0.24444719101E+03  0.27877728063E+03  0.12508886080E+03 0.  0.
          5    1    3    3  502    0  0.10901765020E+02  0.61104104465E+02 -0.11038056429E+03  0.12670399140E+03  0.41800000000E+01 0. -1.
         -5    1    3    3    0  502 -0.56094915700E+02 -0.44590502723E+02 -0.13406662672E+03  0.15207328924E+03  0.41800000000E+01 0. -1.
        -11    1    1    2    0    0  0.64745765350E+02  0.14855085316E+02 -0.66025874939E+02  0.93659510206E+02  0.00000000000E+00 0.  1.
         11    1    1    2    0    0 -0.19552614670E+02 -0.31368687059E+02 -0.40885719586E+02  0.55117522933E+02  0.00000000000E+00 0. -1.
</event>
<event>
 7    1  0.2651429E-009  0.1119663E+03  0.7561462E-02  0.1256971E+00
          2   -1    0    0  501    0  0.00000000000E+00  0.00000000000E+00  0.76954160833E+03  0.76954160833E+03  0.00000000000E+00 0.  1.
         -2   -1    0    0    0  501 -0.00000000000E+00 -0.00000000000E+00 -0.19359858772E+02  0.19359858772E+02  0.00000000000E+00 0. -1.
         25    2    1    2    0    0  0.31814081528E+02 -0.35994021893E+02  0.48330422709E+03  0.50153581224E+03  0.12508992621E+03 0.  0.
          5    1    3    3  502    0  0.24673041996E+02 -0.78535631382E+02  0.39058846668E+03  0.39919096570E+03  0.41800000000E+01 0.  1.
         -5    1    3    3    0  502  0.71410395316E+01  0.42541609489E+02  0.92715760419E+02  0.10234484654E+03  0.41800000000E+01 0.  1.
        -11    1    1    2    0    0 -0.60580596379E+02  0.14593172406E+02  0.21810789341E+03  0.22683479121E+03  0.00000000000E+00 0.  1.
         11    1    1    2    0    0  0.28766514851E+02  0.21400849487E+02  0.48769629062E+02  0.60530863651E+02  0.00000000000E+00 0. -1.
</event>
<event>
 7    1  0.2651429E-009  0.1003767E+03  0.7561462E-02  0.1279506E+00
         -1   -1    0    0    0  501 -0.00000000000E+00  0.00000000000E+00  0.17056130519E+03  0.17056130519E+03  0.00000000000E+00 0. -1.
          1   -1    0    0  501    0  0.00000000000E+00 -0.00000000000E+00 -0.11743112104E+03  0.11743112104E+03  0.00000000000E+00 0.  1.
         25    2    1    2    0    0 -0.29558369552E+02  0.62455585071E+02  0.88467676561E+02  0.16807599934E+03  0.12509442210E+03 0.  0.
          5    1    3    3  502    0  0.18111808570E+01  0.55724566463E+02  0.11392616952E+03  0.12690607624E+03  0.41800000000E+01 0.  1.
         -5    1    3    3    0  502 -0.31369550409E+02  0.67310186080E+01 -0.25458492961E+02  0.41169923102E+02  0.41800000000E+01 0.  1.
        -11    1    1    2    0    0  0.44643456303E+02 -0.78599551342E+02 -0.18824181268E+02  0.92332429093E+02  0.00000000000E+00 0.  1.
         11    1    1    2    0    0 -0.15085086751E+02  0.16143966271E+02 -0.16513311144E+02  0.27583997792E+02  0.00000000000E+00 0. -1.
</event>
<event>
 7    1  0.2651429E-009  0.1005856E+03  0.7561462E-02  0.1279069E+00
         -1   -1    0    0    0  501 -0.00000000000E+00  0.00000000000E+00  0.73531247544E+02  0.73531247544E+02  0.00000000000E+00 0.  1.
          1   -1    0    0  501    0  0.00000000000E+00 -0.00000000000E+00 -0.27053339414E+03  0.27053339414E+03  0.00000000000E+00 0. -1.
         25    2    1    2    0    0  0.61986509819E+02  0.65401999097E+02 -0.13293763110E+03  0.20356927329E+03  0.12509311084E+03 0.  0.
          5    1    3    3  502    0  0.17085899733E+02  0.30815333639E+02  0.19777881411E+02  0.40622035277E+02  0.41800000000E+01 0. -1.
         -5    1    3    3    0  502  0.44900610086E+02  0.34586665458E+02 -0.15271551251E+03  0.16294723801E+03  0.41800000000E+01 0. -1.
        -11    1    1    2    0    0 -0.30155362782E+02 -0.70446597348E+02 -0.74244606134E+02  0.10669737824E+03  0.00000000000E+00 0. -1.
         11    1    1    2    0    0 -0.31831147037E+02  0.50445982513E+01  0.10180090641E+02  0.33797990157E+02  0.00000000000E+00 0.  1.
</event>
<event>
 7    1  0.2651429E-009  0.2937815E+03  0.7561462E-02  0.1088391E+00
          2   -1    0    0  501    0  0.00000000000E+00  0.00000000000E+00  0.31041784135E+04  0.31041784135E+04  0.00000000000E+00 0. -1.
         -2   -1    0    0    0  501 -0.00000000000E+00 -0.00000000000E+00 -0.41396071951E+02  0.41396071951E+02  0.00000000000E+00 0.  1.
         25    2    1    2    0    0 -0.23582186834E+03 -0.17076617457E+03  0.23331240802E+04  0.23545462993E+04  0.12508901489E+03 0.  0.
          5    1    3    3  502    0 -0.12884952939E+03 -0.11655559887E+03  0.91534157213E+03  0.93169473269E+03  0.41800000000E+01 0.  1.
         -5    1    3    3    0  502 -0.10697233896E+03 -0.54210575696E+02  0.14177825081E+04  0.14228515666E+04  0.41800000000E+01 0.  1.
        -11    1    1    2    0    0  0.20645702809E+02  0.30792435916E+02  0.37188929602E+02  0.52511290586E+02  0.00000000000E+00 0.  1.
         11    1    1    2    0    0  0.21517616553E+03  0.13997373865E+03  0.69246933173E+03  0.73851689562E+03  0.00000000000E+00 0. -1.
</event>
<event>
 7    1  0.2651429E-009  0.1069900E+03  0.7561462E-02  0.1266248E+00
          2   -1    0    0  501    0  0.00000000000E+00  0.00000000000E+00  0.19320089194E+02  0.19320089194E+02  0.00000000000E+00 0. -1.
         -2   -1    0    0    0  501 -0.00000000000E+00 -0.00000000000E+00 -0.74496554107E+03  0.74496554107E+03  0.00000000000E+00 0.  1.
         25    2    1    2    0    0  0.38829497309E+02  0.12306068382E+02 -0.51171957579E+03  0.52835937881E+03  0.12509012649E+03 0.  0.
          5    1    3    3  502    0 -0.38081094740E+02 -0.14633194864E+02 -0.91200311125E+02  0.99996346522E+02  0.41800000000E+01 0.  1.
         -5    1    3    3    0  502  0.76910592049E+02  0.26939263246E+02 -0.42051926467E+03  0.42836303228E+03  0.41800000000E+01 0.  1.
        -11    1    1    2    0    0  0.20726900098E+02 -0.22892243035E+02 -0.12226603203E+03  0.12610567698E+03  0.00000000000E+00 0.  1.
         11    1    1    2    0    0 -0.59556397407E+02  0.10586174652E+02 -0.91659844063E+02  0.10982057448E+03  0.00000000000E+00 0. -1.
</event>
<event>
 7    1  0.2651429E-009  0.1214455E+03  0.7561462E-02  0.1240731E+00
          3   -1    0    0  501    0  0.00000000000E+00  0.00000000000E+00  0.85119454114E+03  0.85119454114E+03  0.00000000000E+00 0.  1.
         -3   -1    0    0    0  501 -0.00000000000E+00 -0.00000000000E+00 -0.21502954672E+02  0.21502954672E+02  0.00000000000E+00 0. -1.
         25    2    1    2    0    0  0.76243405526E+02  0.62279244949E+01  0.52212423919E+03  0.54232336223E+03  0.12509621952E+03 0.  0.
          5    1    3    3  502    0  0.90861522187E+02 -0.33215219966E+02  0.27360910356E+03  0.29023866214E+03  0.41800000000E+01 0. -1.
         -5    1    3    3    0  502 -0.14618116661E+02  0.39443144461E+02  0.24851513563E+03  0.25208470008E+03  0.41800000000E+01 0. -1.
        -11    1    1    2    0    0 -0.46426709990E+02  0.31197939332E+02  0.78668294728E+02  0.96526946572E+02  0.00000000000E+00 0. -1.
         11    1    1    2    0    0 -0.29816695536E+02 -0.37425863827E+02  0.22889905256E+03  0.23384718702E+03  0.00000000000E+00 0.  1.
</event>
<event>
 6    1  0.3586302E-009  0.1343469E+03  0.7561462E-02  0.1221145E+00
         -1   -1    0    0    0  501 -0.00000000000E+00  0.00000000000E+00  0.95256626569E+02  0.95256626569E+02  0.00000000000E+00 0.  1.
          1   -1    0    0  501    0  0.00000000000E+00 -0.00000000000E+00 -0.30467795727E+03  0.30467795727E+03  0.00000000000E+00 0. -1.
          5    1    1    2  502    0 -0.13704350603E+02  0.15336613441E+02  0.31949726243E+02  0.38226670589E+02  0.41800000000E+01 0. -1.
         -5    1    1    2    0  502 -0.93294707705E+02 -0.69857289857E+02 -0.82936974153E+02  0.14310820212E+03  0.41800000000E+01 0. -1.
        -11    1    1    2    0    0  0.41717857735E+02 -0.58959997128E+01 -0.66231939993E+01  0.42649843674E+02  0.00000000000E+00 0.  1.
         11    1    1    2    0    0  0.65281200573E+02  0.60416676129E+02 -0.15181088879E+03  0.17594986746E+03  0.00000000000E+00 0. -1.
</event>
<event>
 7    1  0.2651429E-009  0.2143943E+03  0.7561462E-02  0.1138133E+00
         -1   -1    0    0    0  501 -0.00000000000E+00  0.00000000000E+00  0.44488274193E+02  0.44488274193E+02  0.00000000000E+00 0.  1.
          1   -1    0    0  501    0  0.00000000000E+00 -0.00000000000E+00 -0.11948414927E+04  0.11948414927E+04  0.00000000000E+00 0. -1.
         25    2    1    2    0    0  0.18202006896E+03  0.82014289537E+02 -0.50303334093E+03  0.55547538970E+03  0.12511081999E+03 0.  0.
          5    1    3    3  502    0  0.69742612503E+02 -0.16799644587E+02 -0.26287482896E+03  0.27251955555E+03  0.41800000000E+01 0.  1.
         -5    1    3    3    0  502  0.11227745646E+03  0.98813934124E+02 -0.24015851197E+03  0.28295583415E+03  0.41800000000E+01 0.  1.
        -11    1    1    2    0    0 -0.12501747482E+03 -0.26622573946E+02 -0.50414747712E+03  0.52009884555E+03  0.00000000000E+00 0.  1.
         11    1    1    2    0    0 -0.57002594138E+02 -0.55391715591E+02 -0.14317240049E+03  0.16375553169E+03  0.00000000000E+00 0. -1.
</event>
<event>
 7    1  0.2651429E-009  0.1131150E+03  0.7561462E-02  0.1254908E+00
          3   -1    0    0  501    0  0.00000000000E+00  0.00000000000E+00  0.66842824782E+03  0.66842824782E+03  0.00000000000E+00 0. -1.
         -3   -1    0    0    0  501 -0.00000000000E+00 -0.00000000000E+00 -0.25583672468E+02  0.25583672468E+02  0.00000000000E+00 0.  1.
         25    2    1    2    0    0 -0.35680465999E+02 -0.34630938525E+01  0.52595966303E+03  0.54181945187E+03  0.12509861155E+03 0.  0.
          5    1    3    3  502    0  0.41933386257E+02 -0.25280071925E+02  0.18263314469E+03  0.18912913276E+03  0.41800000000E+01 0.  1.
         -5    1    3    3    0  502 -0.77613852256E+02  0.21816978072E+02  0.34332651834E+03  0.35269031911E+03  0.41800000000E+01 0.  1.
        -11    1    1    2    0    0 -0.22704806411E+02  0.25325699057E+02  0.30678489158E+02  0.45804682773E+02  0.00000000000E+00 0.  1.
         11    1    1    2    0    0  0.58385272410E+02 -0.21862605204E+02  0.86206423158E+02  0.10638778564E+03  0.00000000000E+00 0. -1.
</event>
<event>
 7    1  0.2651429E-009  0.8157121E+02  0.7561462E-02  0.1324651E+00
         -1   -1    0    0    0  501 -0.00000000000E+00  0.00000000000E+00  0.30750554106E+03  0.30750554106E+03  0.00000000000E+00 0.  1.
          1   -1    0    0  501    0  0.00000000000E+00 -0.00000000000E+00 -0.49338001896E+02  0.49338001896E+02  0.00000000000E+00 0. -1.
         25    2    1    2    0    0 -0.12715887541E+02 -0.72564923854E+01  0.22756612464E+03  0.26009273362E+03  0.12509012158E+03 0.  0.
          5    1    3    3  502    0 -0.47145199174E+02  0.43124042150E+02  0.10218908487E+03  0.12059201584E+03  0.41800000000E+01 0. -1.
         -5    1    3    3    0  502  0.34429311633E+02 -0.50380534535E+02  0.12537703977E+03  0.13950071778E+03  0.41800000000E+01 0. -1.
        -11    1    1    2    0    0  0.23265235044E+02 -0.27263855330E+01 -0.27925252636E+02  0.36448924188E+02  0.00000000000E+00 0. -1.
         11    1    1    2    0    0 -0.10549347503E+02  0.99828779184E+01  0.58526667155E+02  0.60301885149E+02  0.00000000000E+00 0.  1.
</event>
<event>
 7    1  0.2651429E-009  0.1605648E+03  0.7561462E-02  0.1188061E+00
         -1   -1    0    0    0  501 -0.00000000000E+00  0.00000000000E+00  0.83821004647E+02  0.83821004647E+02  0.00000000000E+00 0.  1.
          1   -1    0    0  501    0  0.00000000000E+00 -0.00000000000E+00 -0.34316398186E+03  0.34316398186E+03  0.00000000000E+00 0. -1.
         25    2    1    2    0    0 -0.10727300071E+03  0.71673484637E+02 -0.11935244760E+03  0.21571985555E+03  0.12508183021E+03 0.  0.
          5    1    3    3  502    0 -0.96384754636E+02  0.10412090727E+03 -0.11112905286E+03  0.18027291268E+03  0.41800000000E+01 0.  1.
         -5    1    3    3    0  502 -0.10888246076E+02 -0.32447422630E+02 -0.82233947388E+01  0.35446942872E+02  0.41800000000E+01 0.  1.
        -11    1    1    2    0    0  0.31350956361E+02  0.10274430462E+02 -0.75212731038E+02  0.82130392038E+02  0.00000000000E+00 0. -1.
         11    1    1    2    0    0  0.75922044350E+02 -0.81947915098E+02 -0.64777798574E+02  0.12913473892E+03  0.00000000000E+00 0.  1.
</event>
<event>
 7    1  0.2651429E-009  0.4174837E+03  0.7561462E-02  0.1037888E+00
         -2   -1    0    0    0  501 -0.00000000000E+00  0.00000000000E+00  0.28459837390E+03  0.28459837390E+03  0.00000000000E+00 0. -1.
          2   -1    0    0  501    0  0.00000000000E+00 -0.00000000000E+00 -0.10064444753E+04  0.10064444753E+04  0.00000000000E+00 0.  1.
         25    2    1    2    0    0 -0.12072560125E+03 -0.39365936935E+03  0.27403298677E+02  0.43120771900E+03  0.12508711473E+03 0.  0.
          5    1    3    3  502    0  0.54815155852E+00 -0.21618418040E+02 -0.28377232214E+02  0.35922084806E+02  0.41800000000E+01 0. -1.
         -5    1    3    3    0  502 -0.12127375281E+03 -0.37204095131E+03  0.55780530891E+02  0.39528563419E+03  0.41800000000E+01 0. -1.
        -11    1    1    2    0    0  0.12573985738E+03  0.26991939710E+03 -0.51636307834E+03  0.59606863810E+03  0.00000000000E+00 0. -1.
         11    1    1    2    0    0 -0.50142561260E+01  0.12373997225E+03 -0.23288632177E+03  0.26376649212E+03  0.00000000000E+00 0.  1.
</event>
<event>
 7    1  0.2651429E-009  0.1553209E+03  0.7561462E-02  0.1194083E+00
          2   -1    0    0  501    0  0.00000000000E+00  0.00000000000E+00  0.31469743606E+03  0.31469743606E+03  0.00000000000E+00 0. -1.
         -2   -1    0    0    0  501 -0.00000000000E+00 -0.00000000000E+00 -0.84783570188E+02  0.84783570188E+02  0.00000000000E+00 0.  1.
         25    2    1    2    0    0  0.86699748544E+02  0.79660441802E+02  0.88261190194E+02  0.19312696387E+03  0.12508138989E+03 0.  0.
          5    1    3    3  502    0 -0.15909331749E+02  0.52339995677E+02 -0.19253548842E+00  0.54864300361E+02  0.41800000000E+01 0. -1.
         -5    1    3    3    0  502  0.10260908029E+03  0.27320446124E+02  0.88453725682E+02  0.13826266351E+03  0.41800000000E+01 0. -1.
        -11    1    1    2    0    0 -0.30119600323E+02 -0.87363298522E+02  0.95957241672E+02  0.13321909954E+03  0.00000000000E+00 0. -1.
         11    1    1    2    0    0 -0.56580148221E+02  0.77028567201E+01  0.45695434002E+02  0.73134942831E+02  0.00000000000E+00 0.  1.
</event>
<event>
 7    1  0.2651429E-009  0.1057232E+03  0.7561462E-02  0.1268701E+00
         -2   -1    0    0    0  501 -0.00000000000E+00  0.00000000000E+00  0.22984191868E+02  0.22984191868E+02  0.00000000000E+00 0.  1.
          2   -1    0    0  501    0  0.00000000000E+00 -0.00000000000E+00 -0.61427115926E+03  0.61427115926E+03  0.00000000000E+00 0. -1.
         25    2    1    2    0    0  0.20022006166E+02  0.33379299789E+02 -0.38327707830E+03  0.40504793047E+03  0.12508976315E+03 0.  0.
          5    1    3    3  502    0  0.28131395949E+02 -0.43291149881E+02 -0.18958669884E+03  0.19653520771E+03  0.41800000000E+01 0. -1.
         -5    1    3    3    0  502 -0.81093897835E+01  0.76670449670E+02 -0.19369037946E+03  0.20851272276E+03  0.41800000000E+01 0. -1.
        -11    1    1    2    0    0 -0.98916184787E+01  0.23062295090E+02 -0.11688613528E+02  0.27682797134E+02  0.00000000000E+00 0.  1.
         11    1    1    2    0    0 -0.10130387687E+02 -0.56441594879E+02 -0.19632127556E+03  0.20452462352E+03  0.00000000000E+00 0. -1.
</event>
<event>
 7    1  0.2651429E-009  0.6935288E+02  0.7561462E-02  0.1362308E+00
          2   -1    0    0  501    0  0.00000000000E+00  0.00000000000E+00  0.10177077577E+03  0.10177077577E+03  0.00000000000E+00 0. -1.
         -2   -1    0    0    0  501 -0.00000000000E+00 -0.00000000000E+00 -0.11611845135E+03  0.11611845135E+03  0.00000000000E+00 0.  1.
         25    2    1    2    0    0 -0.24840048769E+00 -0.35522736661E+01 -0.43333301319E+01  0.12522202690E+03  0.12509635455E+03 0.  0.
          5    1    3    3  502    0 -0.42199615258E+02 -0.21584588523E+02  0.39459275594E+02  0.61815926912E+02  0.41800000000E+01 0. -1.
         -5    1    3    3    0  502  0.41951214770E+02  0.18032314857E+02 -0.43792605726E+02  0.63406099991E+02  0.41800000000E+01 0. -1.
        -11    1    1    2    0    0 -0.29124407180E+01 -0.20653414305E+02 -0.45236038004E+02  0.49813100362E+02  0.00000000000E+00 0.  1.
         11    1    1    2    0    0  0.31608412057E+01  0.24205687971E+02  0.35221692561E+02  0.42854099852E+02  0.00000000000E+00 0. -1.
</event>
<event>
 7    1  0.2651429E-009  0.4403419E+02  0.7561462E-02  0.1480463E+00
         -1   -1    0    0    0  501 -0.00000000000E+00  0.00000000000E+00  0.10032924629E+03  0.10032924629E+03  0.00000000000E+00 0.  1.
          1   -1    0    0  501    0  0.00000000000E+00 -0.00000000000E+00 -0.15000739070E+03  0.15000739070E+03  0.00000000000E+00 0. -1.
         25    2    1    2    0    0  0.10167034709E+02 -0.35990640418E+02 -0.67720073691E+02  0.14708647850E+03  0.12509887683E+03 0.  0.
          5    1    3    3  502    0 -0.29941718550E+01 -0.52743794131E+01 -0.10009829648E+03  0.10036894690E+03  0.41800000000E+01 0. -1.
         -5    1    3    3    0  502  0.13161206564E+02 -0.30716261005E+02  0.32378222787E+02  0.46717531605E+02  0.41800000000E+01 0. -1.
        -11    1    1    2    0    0  0.97046890125E+01  0.16787539954E+02  0.54301989879E+02  0.57660286085E+02  0.00000000000E+00 0.  1.
         11    1    1    2    0    0 -0.19871723722E+02  0.19203100464E+02 -0.36260060599E+02  0.45589872403E+02  0.00000000000E+00 0. -1.
</event>
<event>
 7    1  0.2651429E-009  0.1081329E+03  0.7561462E-02  0.1264067E+00
         -2   -1    0    0    0  501 -0.00000000000E+00  0.00000000000E+00  0.13427959744E+03  0.13427959744E+03  0.00000000000E+00 0.  1.
          2   -1    0    0  501    0  0.00000000000E+00 -0.00000000000E+00 -0.11373956780E+03  0.11373956780E+03  0.00000000000E+00 0. -1.
         25    2    1    2    0    0  0.31841705570E+02 -0.43604237965E+02  0.33288965907E+02  0.14025238529E+03  0.12508937823E+03 0.  0.
          5    1    3    3  502    0  0.28926268603E+02  0.40941509384E+02  0.33389133042E+01  0.50413856706E+02  0.41800000000E+01 0.  1.
         -5    1    3    3    0  502  0.29154369675E+01 -0.84545747349E+02  0.29950052603E+02  0.89838528585E+02  0.41800000000E+01 0.  1.
        -11    1    1    2    0    0 -0.48418593266E+02  0.42870653390E+02  0.22771041194E+02  0.68562186466E+02  0.00000000000E+00 0.  1.
         11    1    1    2    0    0  0.16576887696E+02  0.73358457480E+00 -0.35519977458E+02  0.39204593489E+02  0.00000000000E+00 0. -1.
</event>
<event>
 7    1  0.2651429E-009  0.1568140E+03  0.7561462E-02  0.1192341E+00
          2   -1    0    0  501    0  0.00000000000E+00  0.00000000000E+00  0.14370321041E+04  0.14370321041E+04  0.00000000000E+00 0. -1.
         -2   -1    0    0    0  501 -0.00000000000E+00 -0.00000000000E+00 -0.26388569926E+02  0.26388569926E+02  0.00000000000E+00 0.  1.
         25    2    1    2    0    0  0.36708116313E+02 -0.11452049251E+03  0.11383520211E+04  0.11515009328E+04  0.12508655081E+03 0.  0.
          5    1    3    3  502    0 -0.26287057052E+02 -0.10472480181E+03  0.63785621939E+03  0.64694383257E+03  0.41800000000E+01 0.  1.
         -5    1    3    3    0  502  0.62995173365E+02 -0.97956906980E+01  0.50049580171E+03  0.50455710019E+03  0.41800000000E+01 0.  1.
        -11    1    1    2    0    0  0.22064466001E+02  0.48564847824E+02  0.16231439159E+03  0.17085475358E+03  0.00000000000E+00 0. -1.
         11    1    1    2    0    0 -0.58772582314E+02  0.65955644687E+02  0.10997712144E+03  0.14106498764E+03  0.00000000000E+00 0.  1.
</event>
<event>
 6    1  0.2651429E-009  0.1253530E+03  0.7561462E-02  0.1234519E+00
          1   -1    0    0  501    0  0.00000000000E+00  0.00000000000E+00  0.24941113232E+03  0.24941113232E+03  0.00000000000E+00 0. -1.
         -1   -1    0    0    0  501 -0.00000000000E+00 -0.00000000000E+00 -0.10696877008E+03  0.10696877008E+03  0.00000000000E+00 0.  1.
          5    1    1    2  502    0 -0.31599020992E+02  0.51209942778E+01  0.12128179929E+03  0.12550486026E+03  0.41800000000E+01 0. -1.
         -5    1    1    2    0  502  0.17334887273E+02  0.88045683008E+02  0.37560316203E+02  0.97369350241E+02  0.41800000000E+01 0. -1.
        -11    1    1    2    0    0 -0.37040802182E+02 -0.34030588067E+02 -0.22242154899E+02  0.54998321839E+02  0.00000000000E+00 0.  1.
         11    1    1    2    0    0  0.51304935901E+02 -0.59136089219E+02  0.58424016505E+01  0.78507370055E+02  0.00000000000E+00 0. -1.
</event>
<event>
 7    1  0.2651429E-009  0.3149077E+03  0.7561462E-02  0.1078017E+00
         -2   -1    0    0    0  501 -0.00000000000E+00  0.00000000000E+00  0.94609050334E+02  0.94609050334E+02  0.00000000000E+00 0.  1.
          2   -1    0    0  501    0  0.00000000000E+00 -0.00000000000E+00 -0.10947351358E+04  0.10947351358E+04  0.00000000000E+00 0. -1.
         25    2    1    2    0    0  0.29832824723E+03 -0.45272311151E+02 -0.58616937929E+03  0.67103501323E+03  0.12507646667E+03 0.  0.
          5    1    3    3  502    0  0.19274517548E+03  0.29284170697E+02 -0.31252537593E+03  0.36837188862E+03  0.41800000000E+01 0.  1.
         -5    1    3    3    0  502  0.10558307174E+03 -0.74556481849E+02 -0.27364400336E+03  0.30266312461E+03  0.41800000000E+01 0.  1.
        -11    1    1    2    0    0 -0.58833696290E+02  0.28603896090E+02 -0.13677252571E+03  0.15161236915E+03  0.00000000000E+00 0. -1.
         11    1    1    2    0    0 -0.23949455094E+03  0.16668415062E+02 -0.27718418051E+03  0.36669680380E+03  0.00000000000E+00 0.  1.
</event>
<event>
 7    1  0.2651429E-009  0.2478598E+03  0.7561462E-02  0.1114665E+00
         -2   -1    0    0    0  501 -0.00000000000E+00  0.00000000000E+00  0.38383457453E+02  0.38383457453E+02  0.00000000000E+00 0. -1.
          2   -1    0    0  501    0  0.00000000000E+00 -0.00000000000E+00 -0.16308219736E+04  0.16308219736E+04  0.00000000000E+00 0.  1.
         25    2    1    2    0    0  0.13847326445E+03 -0.17671143121E+03 -0.76877370746E+03  0.81059376834E+03  0.12508984412E+03 0.  0.
          5    1    3    3  502    0  0.21019549040E+02  0.17366272866E+02 -0.12501385576E+03  0.12802087879E+03  0.41800000000E+01 0.  1.
         -5    1    3    3    0  502  0.11745371541E+03 -0.19407770408E+03 -0.64375985170E+03  0.68257288955E+03  0.41800000000E+01 0.  1.
        -11    1    1    2    0    0 -0.10605226852E+03  0.63782685382E+02 -0.46544251095E+03  0.48161400064E+03  0.00000000000E+00 0. -1.
         11    1    1    2    0    0 -0.32420995933E+02  0.11292874583E+03 -0.35822229771E+03  0.37699766204E+03  0.00000000000E+00 0.  1.
</event>
<event>
 7    1  0.2651429E-009  0.1273601E+03  0.7561462E-02  0.1231426E+00
          1   -1    0    0  501    0  0.00000000000E+00  0.00000000000E+00  0.51504759350E+02  0.51504759350E+02  0.00000000000E+00 0. -1.
         -1   -1    0    0    0  501 -0.00000000000E+00 -0.00000000000E+00 -0.47916318301E+03  0.47916318301E+03  0.00000000000E+00 0.  1.
         25    2    1    2    0    0  0.10099045159E+03  0.13862476560E+02 -0.31434834124E+03  0.35334592958E+03  0.12508887537E+03 0.  0.
          5    1    3    3  502    0  0.95406754325E+01 -0.42033470002E+02 -0.15738792448E+03  0.16323684713E+03  0.41800000000E+01 0.  1.
         -5    1    3    3    0  502  0.91449776157E+02  0.55895946562E+02 -0.15696041675E+03  0.19010908245E+03  0.41800000000E+01 0.  1.
        -11    1    1    2    0    0 -0.72791315637E+02 -0.19586002588E+02 -0.17637652796E+02  0.77416238127E+02  0.00000000000E+00 0. -1.
         11    1    1    2    0    0 -0.28199135953E+02  0.57235260278E+01 -0.95672429626E+02  0.99905774654E+02  0.00000000000E+00 0.  1.
</event>
<event>
 7    1  0.2651429E-009  0.2206342E+03  0.7561462E-02  0.1133411E+00
          1   -1    0    0  501    0  0.00000000000E+00  0.00000000000E+00  0.98289951129E+02  0.98289951129E+02  0.00000000000E+00 0. -1.
         -1   -1    0    0    0  501 -0.00000000000E+00 -0.00000000000E+00 -0.71038757146E+03  0.71038757146E+03  0.00000000000E+00 0.  1.
         25    2    1    2    0    0 -0.27928245041E+02  0.19209768527E+03 -0.96658068960E+02  0.25031908481E+03  0.12504141061E+03 0.  0.
          5    1    3    3  502    0  0.14896311298E+02 -0.13293848349E+02 -0.34001471349E+01  0.20679939428E+02  0.41800000000E+01 0.  1.
         -5    1    3    3    0  502 -0.42824556338E+02  0.20539153362E+03 -0.93257921825E+02  0.22963914538E+03  0.41800000000E+01 0.  1.
        -11    1    1    2    0    0  0.53883271811E+02 -0.83596915769E+02 -0.29466702922E+03  0.31099921128E+03  0.00000000000E+00 0.  1.
         11    1    1    2    0    0 -0.25955026771E+02 -0.10850076950E+03 -0.22077252215E+03  0.24735922650E+03  0.00000000000E+00 0. -1.
</event>
<event>
 7    1  0.2651429E-009  0.8236260E+02  0.7561462E-02  0.1322477E+00
          1   -1    0    0  501    0  0.00000000000E+00  0.00000000000E+00  0.16345210691E+03  0.16345210691E+03  0.00000000000E+00 0. -1.
         -1   -1    0    0    0  501 -0.00000000000E+00 -0.00000000000E+00 -0.84572970481E+02  0.84572970481E+02  0.00000000000E+00 0.  1.
         25    2    1    2    0    0 -0.28198153825E+02  0.29932774475E+02  0.66536139050E+02  0.14753411771E+03  0.12509257060E+03 0.  0.
          5    1    3    3  502    0  0.14106907399E+02  0.13712299775E+02 -0.32685239478E+02  0.38377457983E+02  0.41800000000E+01 0.  1.
         -5    1    3    3    0  502 -0.42305061225E+02  0.16220474700E+02  0.99221378528E+02  0.10915665972E+03  0.41800000000E+01 0.  1.
        -11    1    1    2    0    0  0.61320971257E+02 -0.18044433802E+02  0.25917146491E+01  0.63973276389E+02  0.00000000000E+00 0.  1.
         11    1    1    2    0    0 -0.33122817432E+02 -0.11888340673E+02  0.97512827325E+01  0.36517683299E+02  0.00000000000E+00 0. -1.
</event>
<event>
 7    1  0.2651429E-009  0.9965368E+02  0.7561462E-02  0.1281026E+00
          2   -1    0    0  501    0  0.00000000000E+00  0.00000000000E+00  0.43128495741E+03  0.43128495741E+03  0.00000000000E+00 0. -1.
         -2   -1    0    0    0  501 -0.00000000000E+00 -0.00000000000E+00 -0.40946903224E+02  0.40946903224E+02  0.00000000000E+00 0.  1.
         25    2    1    2    0    0 -0.54298519982E+02  0.75395982989E+01  0.11526819637E+03  0.17871938173E+03  0.12509470611E+03 0.  0.
          5    1    3    3  502    0  0.21048632122E+02 -0.41357103564E+01 -0.15842478692E+02  0.26992694298E+02  0.41800000000E+01 0.  1.
         -5    1    3    3    0  502 -0.75347152104E+02  0.11675308655E+02  0.13111067507E+03  0.15172668743E+03  0.41800000000E+01 0.  1.
        -11    1    1    2    0    0  0.10379144054E+02 -0.43255518051E+02  0.98223998379E+02  0.10782727081E+03  0.00000000000E+00 0.  1.
         11    1    1    2    0    0  0.43919375928E+02  0.35715919752E+02  0.17684585943E+03  0.18568520809E+03  0.00000000000E+00 0. -1.
</event>
<event>
 7    1  0.2651429E-009  0.1354777E+03  0.7561462E-02  0.1219547E+00
         -2   -1    0    0    0  501 -0.00000000000E+00  0.00000000000E+00  0.25012348614E+03  0.25012348614E+03  0.00000000000E+00 0.  1.
          2   -1    0    0  501    0  0.00000000000E+00 -0.00000000000E+00 -0.10836822261E+03  0.10836822261E+03  0.00000000000E+00 0. -1.
         25    2    1    2    0    0  0.12098753841E+03 -0.93396457458E+01  0.55351902269E+02  0.18286360493E+03  0.12510016583E+03 0.  0.
          5    1    3    3  502    0  0.72598329077E+02  0.17598059144E+02  0.90281234316E+02  0.11725349777E+03  0.41800000000E+01 0. -1.
         -5    1    3    3    0  502  0.48389209329E+02 -0.26937704890E+02 -0.34929332047E+02  0.65610107160E+02  0.41800000000E+01 0. -1.
        -11    1    1    2    0    0 -0.10515466914E+02 -0.23167921707E+02  0.47843795064E+02  0.54188157071E+02  0.00000000000E+00 0. -1.
         11    1    1    2    0    0 -0.11047207149E+03  0.32507567453E+02  0.38559566190E+02  0.12143994675E+03  0.00000000000E+00 0.  1.
</event>
<event>
 7    1  0.2651429E-009  0.1874729E+03  0.7561462E-02  0.1160761E+00
         -2   -1    0    0    0  501 -0.00000000000E+00  0.00000000000E+00  0.24467048561E+02  0.24467048561E+02  0.00000000000E+00 0.  1.
          2   -1    0    0  501    0  0.00000000000E+00 -0.00000000000E+00 -0.22806378997E+04  0.22806378997E+04  0.00000000000E+00 0. -1.
         25    2    1    2    0    0  0.14464406662E+03 -0.87007450874E+02 -0.16370119327E+04  0.16504395653E+04  0.12510191196E+03 0.  0.
          5    1    3    3  502    0  0.38510156420E+01  0.17525627555E+02 -0.46593823134E+03  0.46630235445E+03  0.41800000000E+01 0.  1.
         -5    1    3    3    0  502  0.14079305098E+03 -0.10453307843E+03 -0.11710737014E+04  0.11841372109E+04  0.41800000000E+01 0.  1.
        -11    1    1    2    0    0 -0.59722588850E+02  0.26393202832E+00 -0.68927705519E+02  0.91202444414E+02  0.00000000000E+00 0.  1.
         11    1    1    2    0    0 -0.84921477770E+02  0.86743518846E+02 -0.55023121291E+03  0.56346293854E+03  0.00000000000E+00 0. -1.
</event>
<event>
 7    1  0.2651429E-009  0.1389126E+03  0.7561462E-02  0.1214800E+00
          1   -1    0    0  501    0  0.00000000000E+00  0.00000000000E+00  0.19077215351E+03  0.19077215351E+03  0.00000000000E+00 0.  1.
         -1   -1    0    0    0  501 -0.00000000000E+00 -0.00000000000E+00 -0.15074457905E+03  0.15074457905E+03  0.00000000000E+00 0. -1.
         25    2    1    2    0    0  0.49354386778E+02 -0.11656747042E+03  0.26792474711E+02  0.17996998497E+03  0.12509008008E+03 0.  0.
          5    1    3    3  502    0 -0.58188886980E+01  0.37893380895E+01 -0.33472118494E+02  0.34439420223E+02  0.41800000000E+01 0.  1.
         -5    1    3    3    0  502  0.55173275476E+02 -0.12035680851E+03  0.60264593205E+02  0.14553056474E+03  0.41800000000E+01 0.  1.
        -11    1    1    2    0    0  0.75674225181E+01  0.45866586546E+02 -0.35529465992E+02  0.58509423161E+02  0.00000000000E+00 0. -1.
         11    1    1    2    0    0 -0.56921809296E+02  0.70700883871E+02  0.48764565740E+02  0.10303732443E+03  0.00000000000E+00 0.  1.
</event>
<event>
 7    1  0.2651429E-009  0.1667027E+03  0.7561462E-02  0.1181331E+00
          1   -1    0    0  501    0  0.00000000000E+00  0.00000000000E+00  0.34037402056E+03  0.34037402056E+03  0.00000000000E+00 0. -1.
         -1   -1    0    0    0  501 -0.00000000000E+00 -0.00000000000E+00 -0.97701538120E+02  0.97701538120E+02  0.00000000000E+00 0.  1.
         25    2    1    2    0    0  0.13638588335E+03 -0.60601215032E+02  0.13022123308E+03  0.23426416933E+03  0.12509402482E+03 0.  0.
          5    1    3    3  502    0  0.88941907895E+02  0.18235251736E+02  0.24671321741E+02  0.94177141082E+02  0.41800000000E+01 0. -1.
         -5    1    3    3    0  502  0.47443975460E+02 -0.78836466769E+02  0.10554991134E+03  0.14008702825E+03  0.41800000000E+01 0. -1.
        -11    1    1    2    0    0 -0.37591293511E+02  0.78021408710E+01 -0.81123493250E+01  0.39240144770E+02  0.00000000000E+00 0.  1.
         11    1    1    2    0    0 -0.98794589844E+02  0.52799074161E+02  0.12056359869E+03  0.16457124458E+03  0.00000000000E+00 0. -1.
</event>
<event>
 7    1  0.2651429E-009  0.1588836E+03  0.7561462E-02  0.1189963E+00
          2   -1    0    0  501    0  0.00000000000E+00  0.00000000000E+00  0.19205430480E+04  0.19205430480E+04  0.00000000000E+00 0. -1.
         -2   -1    0    0    0  501 -0.00000000000E+00 -0.00000000000E+00 -0.20236542628E+02  0.20236542628E+02  0.00000000000E+00 0.  1.
         25    2    1    2    0    0  0.32530131438E+02 -0.13351809549E+03  0.14410551902E+04  0.14529878437E+04  0.12509325061E+03 0.  0.
          5    1    3    3  502    0  0.60653789211E+02 -0.11446736028E+03  0.75235196506E+03  0.76343474538E+03  0.41800000000E+01 0. -1.
         -5    1    3    3    0  502 -0.28123657773E+02 -0.19050735216E+02  0.68870322515E+03  0.68955309830E+03  0.41800000000E+01 0. -1.
        -11    1    1    2    0    0  0.18536980475E+02  0.70091410349E+02  0.30348588745E+03  0.31202581517E+03  0.00000000000E+00 0. -1.
         11    1    1    2    0    0 -0.51067111913E+02  0.63426685142E+02  0.15576542771E+03  0.17576593178E+03  0.00000000000E+00 0.  1.
</event>
<event>
 7    1  0.2651429E-009  0.1042335E+03  0.7561462E-02  0.1271637E+00
         -2   -1    0    0    0  501 -0.00000000000E+00  0.00000000000E+00  0.14661280159E+03  0.14661280159E+03  0.00000000000E+00 0.  1.
          2   -1    0    0  501    0  0.00000000000E+00 -0.00000000000E+00 -0.88346224795E+02  0.88346224795E+02  0.00000000000E+00 0. -1.
         25    2    1    2    0    0 -0.12809167002E+02  0.28883970234E+02  0.18261151359E+02  0.13030544246E+03  0.12509068786E+03 0.  0.
          5    1    3    3  502    0  0.31506404536E+02 -0.33409287701E+02 -0.12529112513E+02  0.47783732502E+02  0.41800000000E+01 0. -1.
         -5    1    3    3    0  502 -0.44315571538E+02  0.62293257934E+02  0.30790263872E+02  0.82521709956E+02  0.41800000000E+01 0. -1.
        -11    1    1    2    0    0  0.24113196810E+02  0.22620455742E+02 -0.72488347864E+01  0.33847849033E+02  0.00000000000E+00 0. -1.
         11    1    1    2    0    0 -0.11304029808E+02 -0.51504425976E+02  0.47254260225E+02  0.70805734898E+02  0.00000000000E+00 0.  1.
</event>
<event>
 7    1  0.2651429E-009  0.7454383E+02  0.7561462E-02  0.1345289E+00
          1   -1    0    0  501    0  0.00000000000E+00  0.00000000000E+00  0.12141404760E+04  0.12141404760E+04  0.00000000000E+00 0. -1.
         -1   -1    0    0    0  501 -0.00000000000E+00 -0.00000000000E+00 -0.11950675094E+02  0.11950675094E+02  0.00000000000E+00 0.  1.
         25    2    1    2    0    0  0.36932188775E+01  0.53365210680E+01  0.95216160697E+03  0.96036537869E+03  0.12509123258E+03 0.  0.
          5    1    3    3  502    0  0.33893847054E+02 -0.42445332040E+01  0.88817770373E+03  0.88884414535E+03  0.41800000000E+01 0. -1.
         -5    1    3    3    0  502 -0.30200628176E+02  0.95810542720E+01  0.63983903242E+02  0.71521233331E+02  0.41800000000E+01 0. -1.
        -11    1    1    2    0    0 -0.73714338602E+01  0.38260351788E+02  0.66679494385E+02  0.77229188314E+02  0.00000000000E+00 0. -1.
         11    1    1    2    0    0  0.36782149826E+01 -0.43596872856E+02  0.18334869952E+03  0.18849658407E+03  0.00000000000E+00 0.  1.
</event>
<event>
 7    1  0.2651429E-009  0.1265824E+03  0.7561462E-02  0.1232617E+00
         -2   -1    0    0    0  501 -0.00000000000E+00  0.00000000000E+00  0.19447734849E+02  0.19447734849E+02  0.00000000000E+00 0.  1.
          2   -1    0    0  501    0  0.00000000000E+00 -0.00000000000E+00 -0.10638393418E+04  0.10638393418E+04  0.00000000000E+00 0. -1.
         25    2    1    2    0    0  0.68773174116E+02 -0.65190679406E+02 -0.62970920708E+03  0.64896881242E+03  0.12508900769E+03 0.  0.
          5    1    3    3  502    0  0.10459572679E+03 -0.37306591792E+02 -0.46153505787E+03  0.47472532047E+03  0.41800000000E+01 0. -1.
         -5    1    3    3    0  502 -0.35822552669E+02 -0.27884087614E+02 -0.16817414921E+03  0.17424349194E+03  0.41800000000E+01 0. -1.
        -11    1    1    2    0    0 -0.19756363862E+02  0.85054456298E+01 -0.11816053320E+02  0.24541304661E+02  0.00000000000E+00 0.  1.
         11    1    1    2    0    0 -0.49016810254E+02  0.56685233776E+02 -0.40286634655E+03  0.40977695958E+03  0.00000000000E+00 0. -1.
</event>
<event>
 7    1  0.2651429E-009  0.1287220E+03  0.7561462E-02  0.1229364E+00
         -1   -1    0    0    0  501 -0.00000000000E+00  0.00000000000E+00  0.39360802560E+03  0.39360802560E+03  0.00000000000E+00 0.  1.
          1   -1    0    0  501    0  0.00000000000E+00 -0.00000000000E+00 -0.54542273131E+02  0.54542273131E+02  0.00000000000E+00 0. -1.
         25    2    1    2    0    0  0.57294303768E+02 -0.78751306566E+02  0.20756845538E+03  0.26118295977E+03  0.12508984483E+03 0.  0.
          5    1    3    3  502    0  0.71635920873E+02 -0.97461339132E+02  0.12013029109E+03  0.17052617694E+03  0.41800000000E+01 0. -1.
         -5    1    3    3    0  502 -0.14341617105E+02  0.18710032566E+02  0.87438164290E+02  0.90656782836E+02  0.41800000000E+01 0. -1.
        -11    1    1    2    0    0 -0.43577350459E+02  0.86400536488E+02  0.60210160445E+02  0.11397061726E+03  0.00000000000E+00 0.  1.
         11    1    1    2    0    0 -0.13716953308E+02 -0.76492299222E+01  0.71287136653E+02  0.72996721698E+02  0.00000000000E+00 0. -1.
</event>
<event>
 7    1  0.2651429E-009  0.1157801E+03  0.7561462E-02  0.1250226E+00
          3   -1    0    0  501    0  0.00000000000E+00  0.00000000000E+00  0.12288417770E+03  0.12288417770E+03  0.00000000000E+00 0. -1.
         -3   -1    0    0    0  501 -0.00000000000E+00 -0.00000000000E+00 -0.12429632626E+03  0.12429632626E+03  0.00000000000E+00 0.  1.
         25    2    1    2    0    0 -0.43902689159E+02 -0.19052903780E+02  0.34188768299E+02  0.13822496102E+03  0.12508720444E+03 0.  0.
          5    1    3    3  502    0 -0.58406909469E+02  0.39572436280E+02  0.45469998637E+01  0.70820141165E+02  0.41800000000E+01 0.  1.
         -5    1    3    3    0  502  0.14504220310E+02 -0.58625340059E+02  0.29641768435E+02  0.67404819856E+02  0.41800000000E+01 0.  1.
        -11    1    1    2    0    0  0.69328935637E+02  0.25912799233E+02 -0.14995824413E+02  0.75517211485E+02  0.00000000000E+00 0.  1.
         11    1    1    2    0    0 -0.25426246477E+02 -0.68598954534E+01 -0.20605092442E+02  0.33438331449E+02  0.00000000000E+00 0. -1.
</event>
<event>
 7    1  0.2651429E-009  0.1866143E+03  0.7561462E-02  0.1161551E+00
         -2   -1    0    0    0  501 -0.00000000000E+00  0.00000000000E+00  0.25599936275E+03  0.25599936275E+03  0.00000000000E+00 0. -1.
          2   -1    0    0  501    0  0.00000000000E+00 -0.00000000000E+00 -0.14217677806E+03  0.14217677806E+03  0.00000000000E+00 0.  1.
         25    2    1    2    0    0 -0.14525500757E+03  0.56707126038E+02  0.79949727031E+02  0.21529945671E+03  0.12508869589E+03 0.  0.
          5    1    3    3  502    0 -0.21862062314E+01 -0.27202444500E+02 -0.62845113898E+01  0.28314659946E+02  0.41800000000E+01 0. -1.
         -5    1    3    3    0  502 -0.14306880134E+03  0.83909570538E+02  0.86234238421E+02  0.18698479676E+03  0.41800000000E+01 0. -1.
        -11    1    1    2    0    0  0.14659575771E+03 -0.25893707617E+02  0.28556791908E+02  0.15157932127E+03  0.00000000000E+00 0. -1.
         11    1    1    2    0    0 -0.13407501339E+01 -0.30813418421E+02  0.53160657500E+01  0.31297362841E+02  0.00000000000E+00 0.  1.
</event>
<event>
 7    1  0.2651429E-009  0.1051147E+03  0.7561462E-02  0.1269894E+00
         -1   -1    0    0    0  501 -0.00000000000E+00  0.00000000000E+00  0.24224721748E+03  0.24224721748E+03  0.00000000000E+00 0.  1.
          1   -1    0    0  501    0  0.00000000000E+00 -0.00000000000E+00 -0.64757996942E+02  0.64757996942E+02  0.00000000000E+00 0. -1.
         25    2    1    2    0    0  0.51106872122E+02  0.46613943998E-01  0.14128731637E+03  0.19550395441E+03  0.12509107031E+03 0.  0.
          5    1    3    3  502    0  0.84248268636E+02  0.10174405531E+02  0.13577267053E+03  0.16016547617E+03  0.41800000000E+01 0. -1.
         -5    1    3    3    0  502 -0.33141396514E+02 -0.10127791587E+02  0.55146458457E+01  0.35338478237E+02  0.41800000000E+01 0. -1.
        -11    1    1    2    0    0 -0.45140064865E-01 -0.30768866373E+02  0.41514005142E+02  0.51673376109E+02  0.00000000000E+00 0.  1.
         11    1    1    2    0    0 -0.51061732057E+02  0.30722252429E+02 -0.53121009810E+01  0.59827883899E+02  0.00000000000E+00 0. -1.
</event>
<event>
 7    1  0.2651429E-009  0.1156278E+03  0.7561462E-02  0.1250489E+00
         -1   -1    0    0    0  501 -0.00000000000E+00  0.00000000000E+00  0.19974176896E+02  0.19974176896E+02  0.00000000000E+00 0.  1.
          1   -1    0    0  501    0  0.00000000000E+00 -0.00000000000E+00 -0.76535706313E+03  0.76535706313E+03  0.00000000000E+00 0. -1.
         25    2    1    2    0    0  0.17367093196E+02 -0.56277900062E+02 -0.44903895528E+03  0.46984944827E+03  0.12511475817E+03 0.  0.
          5    1    3    3  502    0 -0.16857084979E+02  0.27496992404E+02 -0.43491830031E+02  0.54307067539E+02  0.41800000000E+01 0.  1.
         -5    1    3    3    0  502  0.34224178175E+02 -0.83774892465E+02 -0.40554712525E+03  0.41554238073E+03  0.41800000000E+01 0.  1.
        -11    1    1    2    0    0 -0.48508685143E+02  0.59573537664E+02 -0.20538921484E+03  0.21928709149E+03  0.00000000000E+00 0. -1.
         11    1    1    2    0    0  0.31141591947E+02 -0.32956376023E+01 -0.90954716113E+02  0.96194700267E+02  0.00000000000E+00 0.  1.
</event>
<event>
 7    1  0.2651429E-009  0.7746229E+02  0.7561462E-02  0.1336411E+00
         -2   -1    0    0    0  501 -0.00000000000E+00  0.00000000000E+00  0.88607068265E+02  0.88607068265E+02  0.00000000000E+00 0.  1.
          2   -1    0    0  501    0  0.00000000000E+00 -0.00000000000E+00 -0.18091313670E+03  0.18091313670E+03  0.00000000000E+00 0. -1.
         25    2    1    2    0    0  0.45035919399E+01 -0.18194258467E+02  0.14781338086E+02  0.12734827727E+03  0.12509109635E+03 0.  0.
          5    1    3    3  502    0  0.52479374595E+01  0.23569962913E+02 -0.46795045176E+02  0.52823599388E+02  0.41800000000E+01 0.  1.
         -5    1    3    3    0  502 -0.74434551961E+00 -0.41764221380E+02  0.61576383263E+02  0.74524677882E+02  0.41800000000E+01 0.  1.
        -11    1    1    2    0    0 -0.42131539775E+02  0.26676296173E+02 -0.36725616909E+02  0.61931109781E+02  0.00000000000E+00 0.  1.
         11    1    1    2    0    0  0.37627947835E+02 -0.84820377060E+01 -0.70361789612E+02  0.80240817913E+02  0.00000000000E+00 0. -1.
</event>
<event>
 7    1  0.2651429E-009  0.1033454E+03  0.7561462E-02  0.1273414E+00
         -2   -1    0    0    0  501 -0.00000000000E+00  0.00000000000E+00  0.63988703797E+02  0.63988703797E+02  0.00000000000E+00 0.  1.
          2   -1    0    0  501    0  0.00000000000E+00 -0.00000000000E+00 -0.20817309423E+03  0.20817309423E+03  0.00000000000E+00 0. -1.
         25    2    1    2    0    0  0.55003993954E+01 -0.29612636808E+02 -0.53066465100E+02  0.13918072030E+03  0.12509220812E+03 0.  0.
          5    1    3    3  502    0 -0.24905736201E+02  0.42664717955E+02 -0.26934495406E+02  0.56422631069E+02  0.41800000000E+01 0.  1.
         -5    1    3    3    0  502  0.30406135596E+02 -0.72277354763E+02 -0.26131969694E+02  0.82758089233E+02  0.41800000000E+01 0.  1.
        -11    1    1    2    0    0 -0.34059983553E+02 -0.42114933944E+01 -0.31018668400E+01  0.34459261950E+02  0.00000000000E+00 0.  1.
         11    1    1    2    0    0  0.28559584157E+02  0.33824130202E+02 -0.88016058496E+02  0.98521815778E+02  0.00000000000E+00 0. -1.
</event>
<event>
 7    1  0.2651429E-009  0.7893216E+02  0.7561462E-02  0.1332109E+00
          2   -1    0    0  501    0  0.00000000000E+00  0.00000000000E+00  0.17041661442E+03  0.17041661442E+03  0.00000000000E+00 0. -1.
         -2   -1    0    0    0  501 -0.00000000000E+00 -0.00000000000E+00 -0.10523274813E+03  0.10523274813E+03  0.00000000000E+00 0.  1.
         25    2    1    2    0    0  0.52351403039E+01  0.49999864865E+02  0.87758953022E+02  0.16086380729E+03  0.12509251569E+03 0.  0.
          5    1    3    3  502    0 -0.38901510274E+02  0.37749630066E+02 -0.76917564869E+01  0.54908993704E+02  0.41800000000E+01 0. -1.
         -5    1    3    3    0  502  0.44136650578E+02  0.12250234799E+02  0.95450709509E+02  0.10595481359E+03  0.41800000000E+01 0. -1.
        -11    1    1    2    0    0 -0.10692783513E+02 -0.43783559900E+01 -0.56501399299E+02  0.57670735587E+02  0.00000000000E+00 0.  1.
         11    1    1    2    0    0  0.54576432088E+01 -0.45621508875E+02  0.33926312563E+02  0.57114819667E+02  0.00000000000E+00 0. -1.
</event>
<event>
 7    1  0.2651429E-009  0.1314429E+03  0.7561462E-02  0.1225330E+00
          2   -1    0    0  501    0  0.00000000000E+00  0.00000000000E+00  0.88583374192E+03  0.88583374192E+03  0.00000000000E+00 0.  1.
         -2   -1    0    0    0  501 -0.00000000000E+00 -0.00000000000E+00 -0.32249465834E+02  0.32249465834E+02  0.00000000000E+00 0. -1.
         25    2    1    2    0    0  0.91689342432E+01 -0.93994734549E+02  0.69917376863E+03  0.71652631985E+03  0.12508768456E+03 0.  0.
          5    1    3    3  502    0  0.12319831808E+02  0.29516895419E+02  0.17730118447E+03  0.18021156396E+03  0.41800000000E+01 0.  1.
         -5    1    3    3    0  502 -0.31508975647E+01 -0.12351162997E+03  0.52187258416E+03  0.53631475589E+03  0.41800000000E+01 0.  1.
        -11    1    1    2    0    0  0.85687034135E+00  0.96635172629E+02  0.16205057959E+03  0.18867824772E+03  0.00000000000E+00 0.  1.
         11    1    1    2    0    0 -0.10025804585E+02 -0.26404380793E+01 -0.76400721316E+01  0.12878640184E+02  0.00000000000E+00 0. -1.
</event>
<event>
 7    1  0.2651429E-009  0.8747982E+02  0.7561462E-02  0.1309072E+00
          1   -1    0    0  501    0  0.00000000000E+00  0.00000000000E+00  0.73945686074E+03  0.73945686074E+03  0.00000000000E+00 0. -1.
         -1   -1    0    0    0  501 -0.00000000000E+00 -0.00000000000E+00 -0.17247491584E+02  0.17247491584E+02  0.00000000000E+00 0.  1.
         25    2    1    2    0    0 -0.32360429424E+01 -0.30734422190E+02  0.36742947804E+03  0.38936771264E+03  0.12509083753E+03 0.  0.
          5    1    3    3  502    0 -0.12614103050E+02  0.24998839800E+02  0.14296347387E+02  0.31716171517E+02  0.41800000000E+01 0. -1.
         -5    1    3    3    0  502  0.93780601080E+01 -0.55733261990E+02  0.35313313066E+03  0.35765154113E+03  0.41800000000E+01 0. -1.
        -11    1    1    2    0    0  0.35188123452E+01 -0.29516554702E+02  0.66708613842E+02  0.73031830064E+02  0.00000000000E+00 0.  1.
         11    1    1    2    0    0 -0.28276940288E+00  0.60250976892E+02  0.28807127727E+03  0.29430480961E+03  0.00000000000E+00 0. -1.
</event>
<event>
 7    1  0.2651429E-009  0.9826138E+02  0.7561462E-02  0.1283995E+00
          2   -1    0    0  501    0  0.00000000000E+00  0.00000000000E+00  0.64648023849E+03  0.64648023849E+03  0.00000000000E+00 0. -1.
         -2   -1    0    0    0  501 -0.00000000000E+00 -0.00000000000E+00 -0.18971536702E+02  0.18971536702E+02  0.00000000000E+00 0.  1.
         25    2    1    2    0    0  0.34003863654E+01  0.24075071189E+02  0.39401225071E+03  0.41410198043E+03  0.12507447703E+03 0.  0.
          5    1    3    3  502    0  0.25478662409E+02  0.70395520236E+02  0.20824102884E+03  0.22132891813E+03  0.41800000000E+01 0. -1.
         -5    1    3    3    0  502 -0.22078276043E+02 -0.46320449046E+02  0.18577122187E+03  0.19277306230E+03  0.41800000000E+01 0. -1.
        -11    1    1    2    0    0 -0.13273668854E+02 -0.45002390033E+02  0.21916655589E+03  0.22413251575E+03  0.00000000000E+00 0. -1.
         11    1    1    2    0    0  0.98732824883E+01  0.20927318844E+02  0.14329895185E+02  0.27217279017E+02  0.00000000000E+00 0.  1.
</event>
<event>
 7    1  0.2651429E-009  0.1004916E+03  0.7561462E-02  0.1279266E+00
          2   -1    0    0  501    0  0.00000000000E+00  0.00000000000E+00  0.49593382326E+03  0.49593382326E+03  0.00000000000E+00 0. -1.
         -2   -1    0    0    0  501 -0.00000000000E+00 -0.00000000000E+00 -0.32653054264E+02  0.32653054264E+02  0.00000000000E+00 0.  1.
         25    2    1    2    0    0 -0.12723461602E+02  0.29402790386E+01  0.39922070913E+03  0.41855701447E+03  0.12506905310E+03 0.  0.
          5    1    3    3  502    0 -0.61081605814E+02 -0.14973744932E+02  0.30115186400E+03  0.30767692991E+03  0.41800000000E+01 0. -1.
         -5    1    3    3    0  502  0.48358144212E+02  0.17914023971E+02  0.98068845131E+02  0.11088008456E+03  0.41800000000E+01 0. -1.
        -11    1    1    2    0    0  0.17521110283E+02 -0.42706462909E+02  0.48782246685E+02  0.67160545497E+02  0.00000000000E+00 0. -1.
         11    1    1    2    0    0 -0.47976486806E+01  0.39766183870E+02  0.15277813177E+02  0.42869317559E+02  0.00000000000E+00 0.  1.
</event>
<event>
 7    1  0.2651429E-009  0.9504194E+02  0.7561462E-02  0.1291082E+00
          2   -1    0    0  501    0  0.00000000000E+00  0.00000000000E+00  0.14271884472E+03  0.14271884472E+03  0.00000000000E+00 0. -1.
         -2   -1    0    0    0  501 -0.00000000000E+00 -0.00000000000E+00 -0.11276889798E+03  0.11276889798E+03  0.00000000000E+00 0.  1.
         25    2    1    2    0    0  0.41873598215E+02  0.42080204340E+02  0.46940255586E+02  0.14620256551E+03  0.12509061013E+03 0.  0.
          5    1    3    3  502    0 -0.18766734868E+02  0.61971283664E+02  0.50389531652E+02  0.82153561314E+02  0.41800000000E+01 0.  1.
         -5    1    3    3    0  502  0.60640333083E+02 -0.19891079324E+02 -0.34492760658E+01  0.64049004195E+02  0.41800000000E+01 0.  1.
        -11    1    1    2    0    0 -0.25408050890E+02 -0.14873555230E+02 -0.53378235266E+02  0.60959229779E+02  0.00000000000E+00 0.  1.
         11    1    1    2    0    0 -0.16465547325E+02 -0.27206649110E+02  0.36387926419E+02  0.48325947415E+02  0.00000000000E+00 0. -1.
</event>
<event>
 7    1  0.2651429E-009  0.1084427E+03  0.7561462E-02  0.1263481E+00
         -2   -1    0    0    0  501 -0.00000000000E+00  0.00000000000E+00  0.41034254563E+02  0.41034254563E+02  0.00000000000E+00 0.  1.
          2   -1    0    0  501    0  0.00000000000E+00 -0.00000000000E+00 -0.37228991172E+03  0.37228991172E+03  0.00000000000E+00 0. -1.
         25    2    1    2    0    0 -0.25198691246E+02  0.19398993917E+02 -0.26602960717E+03  0.29568580559E+03  0.12508816383E+03 0.  0.
          5    1    3    3  502    0 -0.23875909745E+02 -0.52020839701E+02 -0.11203965204E+03  0.12588321118E+03  0.41800000000E+01 0.  1.
         -5    1    3    3    0  502 -0.13227815005E+01  0.71419833618E+02 -0.15398995514E+03  0.16980259441E+03  0.41800000000E+01 0.  1.
        -11    1    1    2    0    0  0.47541099222E+02  0.12349009325E+02 -0.99900428267E+01  0.50124396278E+02  0.00000000000E+00 0.  1.
         11    1    1    2    0    0 -0.22342407976E+02 -0.31748003243E+02 -0.55236007158E+02  0.67513964413E+02  0.00000000000E+00 0. -1.
</event>
<event>
 7    1  0.2651429E-009  0.1444133E+03  0.7561462E-02  0.1207511E+00
         -1   -1    0    0    0  501 -0.00000000000E+00  0.00000000000E+00  0.77128265301E+02  0.77128265301E+02  0.00000000000E+00 0.  1.
          1   -1    0    0  501    0  0.00000000000E+00 -0.00000000000E+00 -0.35837827597E+03  0.35837827597E+03  0.00000000000E+00 0. -1.
         25    2    1    2    0    0 -0.50433510188E+02 -0.11499021000E+03 -0.13738746527E+03  0.22425157851E+03  0.12508863860E+03 0.  0.
          5    1    3    3  502    0 -0.59938377369E+02 -0.75425791522E+02 -0.18060770554E+02  0.98108730199E+02  0.41800000000E+01 0.  1.
         -5    1    3    3    0  502  0.95048671810E+01 -0.39564418477E+02 -0.11932669471E+03  0.12614284831E+03  0.41800000000E+01 0.  1.
        -11    1    1    2    0    0  0.31849760400E+02 -0.30506533195E+01 -0.14437508527E+02  0.35102070818E+02  0.00000000000E+00 0.  1.
         11    1    1    2    0    0  0.18583749787E+02  0.11804086332E+03 -0.12942503688E+03  0.17615289194E+03  0.00000000000E+00 0. -1.
</event>
<event>
 7    1  0.2651429E-009  0.9770868E+02  0.7561462E-02  0.1285189E+00
          2   -1    0    0  501    0  0.00000000000E+00  0.00000000000E+00  0.14283242182E+04  0.14283242182E+04  0.00000000000E+00 0. -1.
         -2   -1    0    0    0  501 -0.00000000000E+00 -0.00000000000E+00 -0.34322493254E+02  0.34322493254E+02  0.00000000000E+00 0.  1.
         25    2    1    2    0    0 -0.69785269734E+02 -0.32322792259E+02  0.13072568004E+04  0.13154782523E+04  0.12509173920E+03 0.  0.
          5    1    3    3  502    0 -0.21912278405E+02 -0.25424926223E+02  0.75099639107E+02  0.82365059415E+02  0.41800000000E+01 0.  1.
         -5    1    3    3    0  502 -0.47872991329E+02 -0.68978660366E+01  0.12321571613E+04  0.12331131929E+04  0.41800000000E+01 0.  1.
        -11    1    1    2    0    0  0.56007787471E+02  0.60031175679E+02  0.81681465918E+02  0.11581224540E+03  0.00000000000E+00 0. -1.
         11    1    1    2    0    0  0.13777482263E+02 -0.27708383420E+02  0.50634586182E+01  0.31356213777E+02  0.00000000000E+00 0.  1.
</event>
<event>
 7    1  0.2651429E-009  0.1242921E+03  0.7561462E-02  0.1236180E+00
          1   -1    0    0  501    0  0.00000000000E+00  0.00000000000E+00  0.12405300856E+03  0.12405300856E+03  0.00000000000E+00 0. -1.
         -1   -1    0    0    0  501 -0.00000000000E+00 -0.00000000000E+00 -0.15622932303E+03  0.15622932303E+03  0.00000000000E+00 0.  1.
         25    2    1    2    0    0 -0.49328177261E+01 -0.81240060278E+02  0.13614131981E+02  0.14987521296E+03  0.12511176917E+03 0.  0.
          5    1    3    3  502    0  0.17072515201E+02  0.28783352263E+02  0.16526274569E+02  0.37557186981E+02  0.41800000000E+01 0.  1.
         -5    1    3    3    0  502 -0.22005332927E+02 -0.11002341254E+03 -0.29121425883E+01  0.11231802598E+03  0.41800000000E+01 0.  1.
        -11    1    1    2    0    0  0.28022179743E+02  0.13683067823E+02  0.16835135545E+02  0.35438548100E+02  0.00000000000E+00 0. -1.
         11    1    1    2    0    0 -0.23089362017E+02  0.67556992455E+02 -0.62625582004E+02  0.94968570534E+02  0.00000000000E+00 0.  1.
</event>
<event>
 7    1  0.2651429E-009  0.1572858E+03  0.7561462E-02  0.1191796E+00
          2   -1    0    0  501    0  0.00000000000E+00  0.00000000000E+00  0.50008387684E+03  0.50008387684E+03  0.00000000000E+00 0.  1.
         -2   -1    0    0    0  501 -0.00000000000E+00 -0.00000000000E+00 -0.57782984552E+02  0.57782984552E+02  0.00000000000E+00 0. -1.
         25    2    1    2    0    0 -0.10549782801E+03  0.75941294867E+02  0.24041768989E+03  0.30057321661E+03  0.12508685362E+03 0.  0.
          5    1    3    3  502    0 -0.12424088357E+03  0.43496840721E+02  0.13493030818E+03  0.18855087581E+03  0.41800000000E+01 0.  1.
         -5    1    3    3    0  502  0.18743055567E+02  0.32444454145E+02  0.10548738171E+03  0.11202234080E+03  0.41800000000E+01 0.  1.
        -11    1    1    2    0    0  0.85298605975E+02 -0.22763700656E+02  0.17129355100E+03  0.19270578316E+03  0.00000000000E+00 0.  1.
         11    1    1    2    0    0  0.20199222032E+02 -0.53177594210E+02  0.30589651392E+02  0.64587861622E+02  0.00000000000E+00 0. -1.
</event>
<event>
 7    1  0.4061716E-009  0.9646397E+02  0.7561462E-02  0.1287912E+00
         -1   -1    0    0    0  501 -0.00000000000E+00  0.00000000000E+00  0.46279506187E+02  0.46279506187E+02  0.00000000000E+00 0.  1.
          1   -1    0    0  501    0  0.00000000000E+00 -0.00000000000E+00 -0.38981686405E+03  0.38981686405E+03  0.00000000000E+00 0. -1.
         25    2    1    2    0    0 -0.61259779932E+02 -0.30516821012E+02 -0.12541501927E+03  0.18989335194E+03  0.12508605459E+03 0.  0.
          5    1    3    3  502    0 -0.57272950833E+02 -0.62802716438E+02 -0.32048967216E+02  0.90933936397E+02  0.41800000000E+01 0.  1.
         -5    1    3    3    0  502 -0.39868290990E+01  0.32285895426E+02 -0.93366052052E+02  0.98959415547E+02  0.41800000000E+01 0.  1.
        -11    1    1    2    0    0  0.41864820219E+02  0.38292552595E+01 -0.22236078927E+02  0.47558065287E+02  0.00000000000E+00 0.  1.
         11    1    1    2    0    0  0.19394959713E+02  0.26687565752E+02 -0.19588625967E+03  0.19864495301E+03  0.00000000000E+00 0. -1.
</event>
<event>
 7    1  0.2651429E-009  0.1136582E+03  0.7561462E-02  0.1253942E+00
         -2   -1    0    0    0  501 -0.00000000000E+00  0.00000000000E+00  0.35130195393E+02  0.35130195393E+02  0.00000000000E+00 0.  1.
          2   -1    0    0  501    0  0.00000000000E+00 -0.00000000000E+00 -0.51090616814E+03  0.51090616814E+03  0.00000000000E+00 0. -1.
         25    2    1    2    0    0  0.31899828910E+02  0.69168505199E+02 -0.30799251557E+03  0.34103312045E+03  0.12506925441E+03 0.  0.
          5    1    3    3  502    0  0.29916469234E+02 -0.10550676643E+02 -0.21957346300E+03  0.22189251894E+03  0.41800000000E+01 0. -1.
         -5    1    3    3    0  502  0.19833596756E+01  0.79719181842E+02 -0.88419052568E+02  0.11914060150E+03  0.41800000000E+01 0. -1.
        -11    1    1    2    0    0  0.23290361555E+02  0.41910911817E+01 -0.19788499317E+02  0.30847866893E+02  0.00000000000E+00 0.  1.
         11    1    1    2    0    0 -0.55190190465E+02 -0.73359596381E+02 -0.14799495786E+03  0.17415537619E+03  0.00000000000E+00 0. -1.
</event>
<event>
 7    1  0.2651429E-009  0.1636556E+03  0.7561462E-02  0.1184630E+00
          2   -1    0    0  501    0  0.00000000000E+00  0.00000000000E+00  0.21277501905E+03  0.21277501905E+03  0.00000000000E+00 0. -1.
         -2   -1    0    0    0  501 -0.00000000000E+00 -0.00000000000E+00 -0.16412604806E+03  0.16412604806E+03  0.00000000000E+00 0.  1.
         25    2    1    2    0    0  0.13182161855E+03  0.35398391157E+02  0.93118110889E+02  0.20723754085E+03  0.12508569282E+03 0.  0.
          5    1    3    3  502    0  0.10559410722E+02 -0.28038366267E+02  0.58737989503E+02  0.66070227399E+02  0.41800000000E+01 0.  1.
         -5    1    3    3    0  502  0.12126220783E+03  0.63436757424E+02  0.34380121387E+02  0.14116731345E+03  0.41800000000E+01 0.  1.
        -11    1    1    2    0    0 -0.41385066844E+02 -0.53777484929E+02 -0.15241821088E+01  0.67875362055E+02  0.00000000000E+00 0. -1.
         11    1    1    2    0    0 -0.90436551708E+02  0.18379093772E+02 -0.42944957798E+02  0.10178816421E+03  0.00000000000E+00 0.  1.
</event>
<event>
 7    1  0.2651429E-009  0.1105581E+03  0.7561462E-02  0.1259540E+00
         -1   -1    0    0    0  501 -0.00000000000E+00  0.00000000000E+00  0.38096733690E+03  0.38096733690E+03  0.00000000000E+00 0.  1.
          1   -1    0    0  501    0  0.00000000000E+00 -0.00000000000E+00 -0.34016160754E+02  0.34016160754E+02  0.00000000000E+00 0. -1.
         25    2    1    2    0    0 -0.13008501158E+02 -0.32390698961E+02  0.22158129290E+03  0.25682848547E+03  0.12507686878E+03 0.  0.
          5    1    3    3  502    0 -0.36450314486E+02  0.38966712131E+02  0.75915617892E+02  0.92885324569E+02  0.41800000000E+01 0. -1.
         -5    1    3    3    0  502  0.23441813328E+02 -0.71357411093E+02  0.14566567501E+03  0.16394316090E+03  0.41800000000E+01 0. -1.
        -11    1    1    2    0    0  0.44769791550E+02  0.39634132861E+02  0.57900420474E+02  0.83232550208E+02  0.00000000000E+00 0.  1.
         11    1    1    2    0    0 -0.31761290392E+02 -0.72434338998E+01  0.67469462765E+02  0.74922461971E+02  0.00000000000E+00 0. -1.
</event>
<event>
 7    1  0.2651429E-009  0.9248477E+02  0.7561462E-02  0.1296944E+00
          1   -1    0    0  501    0  0.00000000000E+00  0.00000000000E+00  0.41229660790E+03  0.41229660790E+03  0.00000000000E+00 0. -1.
         -1   -1    0    0    0  501 -0.00000000000E+00 -0.00000000000E+00 -0.34022503404E+02  0.34022503404E+02  0.00000000000E+00 0.  1.
         25    2    1    2    0    0  0.36606453707E+02  0.33164655984E+02  0.19239886762E+03  0.23474308321E+03  0.12508822483E+03 0.  0.
          5    1    3    3  502    0  0.20370894232E+02 -0.40245763848E+02  0.26322594460E+02  0.52393188666E+02  0.41800000000E+01 0.  1.
         -5    1    3    3    0  502  0.16235559475E+02  0.73410419832E+02  0.16607627316E+03  0.18234989454E+03  0.41800000000E+01 0.  1.
        -11    1    1    2    0    0 -0.12485055270E+02  0.92746031178E+01 -0.35575674290E+01  0.15954659323E+02  0.00000000000E+00 0.  1.
         11    1    1    2    0    0 -0.24121398436E+02 -0.42439259102E+02  0.18943280430E+03  0.19562136877E+03  0.00000000000E+00 0. -1.
</event>
<event>
 7    1  0.2651429E-009  0.1060648E+03  0.7561462E-02  0.1268036E+00
          2   -1    0    0  501    0  0.00000000000E+00  0.00000000000E+00  0.69815370051E+03  0.69815370051E+03  0.00000000000E+00 0. -1.
         -2   -1    0    0    0  501 -0.00000000000E+00 -0.00000000000E+00 -0.18572076618E+02  0.18572076618E+02  0.00000000000E+00 0.  1.
         25    2    1    2    0    0  0.33394721851E+02 -0.34550746237E+00  0.41236063887E+03  0.43220959397E+03  0.12509400387E+03 0.  0.
          5    1    3    3  502    0  0.95771173752E+01  0.58602425258E+02  0.26604280657E+03  0.27262100570E+03  0.41800000000E+01 0.  1.
         -5    1    3    3    0  502  0.23817604476E+02 -0.58947932721E+02  0.14631783230E+03  0.15958858827E+03  0.41800000000E+01 0.  1.
        -11    1    1    2    0    0  0.21336439654E+02  0.21425601712E+02  0.41799156961E+02  0.51589432915E+02  0.00000000000E+00 0.  1.
         11    1    1    2    0    0 -0.54731161505E+02 -0.21080094250E+02  0.22542182806E+03  0.23292675024E+03  0.00000000000E+00 0. -1.
</event>
<event>
 7    1  0.2651429E-009  0.1354213E+03  0.7561462E-02  0.1219626E+00
         -1   -1    0    0    0  501 -0.00000000000E+00  0.00000000000E+00  0.75338949980E+02  0.75338949980E+02  0.00000000000E+00 0.  1.
          1   -1    0    0  501    0  0.00000000000E+00 -0.00000000000E+00 -0.37050416704E+03  0.37050416704E+03  0.00000000000E+00 0. -1.
         25    2    1    2    0    0 -0.10986115024E+03  0.10362512741E+02 -0.24737363904E+03  0.29835729813E+03  0.12508599464E+03 0.  0.
          5    1    3    3  502    0 -0.32396934136E+02 -0.37452968967E+02 -0.17519276530E+03  0.18210508955E+03  0.41800000000E+01 0. -1.
         -5    1    3    3    0  502 -0.77464216103E+02  0.47815481708E+02 -0.72180873740E+02  0.11625220859E+03  0.41800000000E+01 0. -1.
        -11    1    1    2    0    0  0.64526418915E+02 -0.39939764744E+02 -0.93533596737E+00  0.75892808613E+02  0.00000000000E+00 0.  1.
         11    1    1    2    0    0  0.45334731325E+02  0.29577252004E+02 -0.46856242051E+02  0.71593010270E+02  0.00000000000E+00 0. -1.
</event>
<event>
 7    1  0.2651429E-009  0.9770854E+02  0.7561462E-02  0.1285190E+00
         -1   -1    0    0    0  501 -0.00000000000E+00  0.00000000000E+00  0.14905463004E+03  0.14905463004E+03  0.00000000000E+00 0.  1.
          1   -1    0    0  501    0  0.00000000000E+00 -0.00000000000E+00 -0.11582925264E+03  0.11582925264E+03  0.00000000000E+00 0. -1.
         25    2    1    2    0    0  0.57779500553E+02 -0.44024309713E+02  0.13322769347E+02  0.14526249005E+03  0.12508830601E+03 0.  0.
          5    1    3    3  502    0 -0.20741638235E+02 -0.78988417390E+01  0.47206771971E+02  0.52331242842E+02  0.41800000000E+01 0. -1.
         -5    1    3    3    0  502  0.78521138788E+02 -0.36125467974E+02 -0.33884002624E+02  0.92931247203E+02  0.41800000000E+01 0. -1.
        -11    1    1    2    0    0 -0.28416640051E+02 -0.52895089059E+01  0.47758991031E+02  0.55824775508E+02  0.00000000000E+00 0.  1.
         11    1    1    2    0    0 -0.29362860502E+02  0.49313818619E+02 -0.27856382984E+02  0.63796617125E+02  0.00000000000E+00 0. -1.
</event>
<event>
 7    1  0.2651429E-009  0.1211606E+03  0.7561462E-02  0.1241195E+00
          1   -1    0    0  501    0  0.00000000000E+00  0.00000000000E+00  0.86350562107E+03  0.86350562107E+03  0.00000000000E+00 0. -1.
         -1   -1    0    0    0  501 -0.00000000000E+00 -0.00000000000E+00 -0.25529632927E+02  0.25529632927E+02  0.00000000000E+00 0.  1.
         25    2    1    2    0    0  0.56131013318E+02  0.69960236642E+02  0.58735183455E+03  0.60718604899E+03  0.12509034802E+03 0.  0.
          5    1    3    3  502    0  0.17046843878E+01 -0.16580542754E+02  0.81546955489E+01  0.19020825597E+02  0.41800000000E+01 0.  1.
         -5    1    3    3    0  502  0.54426328931E+02  0.86540779397E+02  0.57919713900E+03  0.58816522339E+03  0.41800000000E+01 0.  1.
        -11    1    1    2    0    0 -0.39028459913E+02  0.10616929820E+02  0.12708806711E+03  0.13336909943E+03  0.00000000000E+00 0. -1.
         11    1    1    2    0    0 -0.17102553405E+02 -0.80577166462E+02  0.12353608648E+03  0.14848010557E+03  0.00000000000E+00 0.  1.
</event>
<event>
 7    1  0.2651429E-009  0.8854017E+02  0.7561462E-02  0.1306426E+00
          2   -1    0    0  501    0  0.00000000000E+00  0.00000000000E+00  0.38033026444E+03  0.38033026444E+03  0.00000000000E+00 0. -1.
         -2   -1    0    0    0  501 -0.00000000000E+00 -0.00000000000E+00 -0.37781133401E+02  0.37781133401E+02  0.00000000000E+00 0.  1.
         25    2    1    2    0    0 -0.46947427160E+01 -0.14711670140E+02  0.28011532138E+03  0.30716578192E+03  0.12509096874E+03 0.  0.
          5    1    3    3  502    0  0.36145480407E+02 -0.49228625804E+02  0.84587890497E+02  0.10441521427E+03  0.41800000000E+01 0.  1.
         -5    1    3    3    0  502 -0.40840223123E+02  0.34516955664E+02  0.19552743088E+03  0.20275056765E+03  0.41800000000E+01 0.  1.
        -11    1    1    2    0    0  0.27716772754E+02  0.24706701660E+02 -0.64012064126E+01  0.37677792429E+02  0.00000000000E+00 0.  1.
         11    1    1    2    0    0 -0.23022030038E+02 -0.99950315199E+01  0.68835016067E+02  0.73267823491E+02  0.00000000000E+00 0. -1.
</event>
<event>
 7    1  0.2651429E-009  0.1178297E+03  0.7561462E-02  0.1246721E+00
         -1   -1    0    0    0  501 -0.00000000000E+00  0.00000000000E+00  0.37953671464E+02  0.37953671464E+02  0.00000000000E+00 0.  1.
          1   -1    0    0  501    0  0.00000000000E+00 -0.00000000000E+00 -0.45552052836E+03  0.45552052836E+03  0.00000000000E+00 0. -1.
         25    2    1    2    0    0  0.57711151668E+02  0.88117902049E+01 -0.33532361659E+03  0.36262549596E+03  0.12508835997E+03 0.  0.
          5    1    3    3  502    0 -0.44410701843E+01  0.56478038484E+02 -0.10605518029E+03  0.12031070443E+03  0.41800000000E+01 0.  1.
         -5    1    3    3    0  502  0.62152221852E+02 -0.47666248279E+02 -0.22926843631E+03  0.24231479153E+03  0.41800000000E+01 0.  1.
        -11    1    1    2    0    0 -0.20256652761E+02  0.36429196939E+02 -0.23830192901E+02  0.48013502938E+02  0.00000000000E+00 0.  1.
         11    1    1    2    0    0 -0.37454498908E+02 -0.45240987144E+02 -0.58413047407E+02  0.82835200933E+02  0.00000000000E+00 0. -1.
</event>
<event>
 7    1  0.2651429E-009  0.9337870E+02  0.7561462E-02  0.1294870E+00
          2   -1    0    0  501    0  0.00000000000E+00  0.00000000000E+00  0.59364676180E+03  0.59364676180E+03  0.00000000000E+00 0.  1.
         -2   -1    0    0    0  501 -0.00000000000E+00 -0.00000000000E+00 -0.34222039560E+02  0.34222039560E+02  0.00000000000E+00 0. -1.
         25    2    1    2    0    0 -0.32183460466E+02  0.32900691241E+02  0.48090818763E+03  0.49903914562E+03  0.12509657596E+03 0.  0.
          5    1    3    3  502    0 -0.27478029043E+02 -0.20680289956E+02  0.32841574276E+02  0.47736337037E+02  0.41800000000E+01 0. -1.
         -5    1    3    3    0  502 -0.47054314238E+01  0.53580981197E+02  0.44806661336E+03  0.45130280858E+03  0.41800000000E+01 0. -1.
        -11    1    1    2    0    0  0.57577260845E+02 -0.12565957317E+01  0.28000187833E+02  0.64036946507E+02  0.00000000000E+00 0. -1.
         11    1    1    2    0    0 -0.25393800379E+02 -0.31644095509E+02  0.50516346778E+02  0.64792709235E+02  0.00000000000E+00 0.  1.
</event>
<event>
 7    1  0.2651429E-009  0.1532610E+03  0.7561462E-02  0.1196522E+00
         -2   -1    0    0    0  501 -0.00000000000E+00  0.00000000000E+00  0.15367101422E+02  0.15367101422E+02  0.00000000000E+00 0.  1.
          2   -1    0    0  501    0  0.00000000000E+00 -0.00000000000E+00 -0.16532103029E+04  0.16532103029E+04  0.00000000000E+00 0. -1.
         25    2    1    2    0    0  0.25521111099E+02  0.10751405645E+03 -0.10721332345E+04  0.10850473006E+04  0.12508945804E+03 0.  0.
          5    1    3    3  502    0  0.51563270841E+02 -0.10350160453E+01 -0.24495339290E+03  0.25035870117E+03  0.41800000000E+01 0.  1.
         -5    1    3    3    0  502 -0.26042159743E+02  0.10854907249E+03 -0.82717984161E+03  0.83468859941E+03  0.41800000000E+01 0.  1.
        -11    1    1    2    0    0 -0.15813984432E+02  0.14030037916E+02 -0.79087416724E+02  0.81864177462E+02  0.00000000000E+00 0.  1.
         11    1    1    2    0    0 -0.97071266667E+01 -0.12154409436E+03 -0.48662255026E+03  0.50166592630E+03  0.00000000000E+00 0. -1.
</event>
<event>
 7    1  0.2683911E-009  0.1171239E+03  0.7561462E-02  0.1247919E+00
          2   -1    0    0  501    0  0.00000000000E+00  0.00000000000E+00  0.96593596007E+03  0.96593596007E+03  0.00000000000E+00 0. -1.
         -2   -1    0    0    0  501 -0.00000000000E+00 -0.00000000000E+00 -0.14887738098E+02  0.14887738098E+02  0.00000000000E+00 0.  1.
         25    2    1    2    0    0  0.14607897688E+02 -0.43405022539E+02  0.44179683159E+03  0.46144342224E+03  0.12509278506E+03 0.  0.
          5    1    3    3  502    0  0.42256242767E+01 -0.87295727762E+02  0.27330643522E+03  0.28697086946E+03  0.41800000000E+01 0.  1.
         -5    1    3    3    0  502  0.10382273411E+02  0.43890705223E+02  0.16849039637E+03  0.17447255278E+03  0.41800000000E+01 0.  1.
        -11    1    1    2    0    0 -0.51450675244E+02  0.11506411058E+02  0.29303312418E+03  0.29773810865E+03  0.00000000000E+00 0. -1.
         11    1    1    2    0    0  0.36842777556E+02  0.31898611481E+02  0.21621826621E+03  0.22164216727E+03  0.00000000000E+00 0.  1.
</event>
<event>
 7    1  0.2651429E-009  0.1679424E+03  0.7561462E-02  0.1180011E+00
         -4   -1    0    0    0  501 -0.00000000000E+00  0.00000000000E+00  0.17626883834E+03  0.17626883834E+03  0.00000000000E+00 0.  1.
          4   -1    0    0  501    0  0.00000000000E+00 -0.00000000000E+00 -0.21034187095E+03  0.21034187095E+03  0.00000000000E+00 0. -1.
         25    2    1    2    0    0 -0.81886225776E+02  0.12898963696E+03 -0.55554181665E+02  0.20512815739E+03  0.12509042105E+03 0.  0.
          5    1    3    3  502    0 -0.16005646934E+02  0.11418415984E+03 -0.71349755045E+02  0.13565567824E+03  0.41800000000E+01 0.  1.
         -5    1    3    3    0  502 -0.65880578842E+02  0.14805477117E+02  0.15795573380E+02  0.69472479153E+02  0.41800000000E+01 0.  1.
        -11    1    1    2    0    0  0.45786667616E+02 -0.76357702433E+02  0.59602526307E+02  0.10714186294E+03  0.00000000000E+00 0. -1.
         11    1    1    2    0    0  0.36099558160E+02 -0.52631934526E+02 -0.38121377258E+02  0.74340688962E+02  0.00000000000E+00 0.  1.
</event>
<event>
 7    1  0.2651429E-009  0.1166945E+03  0.7561462E-02  0.1248652E+00
          2   -1    0    0  501    0  0.00000000000E+00  0.00000000000E+00  0.95682308343E+02  0.95682308343E+02  0.00000000000E+00 0.  1.
         -2   -1    0    0    0  501 -0.00000000000E+00 -0.00000000000E+00 -0.20707725524E+03  0.20707725524E+03  0.00000000000E+00 0. -1.
         25    2    1    2    0    0  0.51696531020E+02  0.64895470949E+02 -0.17138430393E+02  0.15108124963E+03  0.12509142546E+03 0.  0.
          5    1    3    3  502    0  0.67925054809E+02  0.86737522704E+02  0.12113488755E+02  0.11091176640E+03  0.41800000000E+01 0. -1.
         -5    1    3    3    0  502 -0.16228523790E+02 -0.21842051755E+02 -0.29251919148E+02  0.40169483232E+02  0.41800000000E+01 0. -1.
        -11    1    1    2    0    0 -0.31765295919E+02 -0.68360441424E+02 -0.10462026923E+03  0.12894799227E+03  0.00000000000E+00 0. -1.
         11    1    1    2    0    0 -0.19931235101E+02  0.34649704748E+01  0.10363752729E+02  0.22730321680E+02  0.00000000000E+00 0.  1.
</event>
<event>
 7    1  0.2651429E-009  0.1222622E+03  0.7561462E-02  0.1239411E+00
         -1   -1    0    0    0  501 -0.00000000000E+00  0.00000000000E+00  0.55636615805E+02  0.55636615805E+02  0.00000000000E+00 0.  1.
          1   -1    0    0  501    0  0.00000000000E+00 -0.00000000000E+00 -0.31000048824E+03  0.31000048824E+03  0.00000000000E+00 0. -1.
         25    2    1    2    0    0 -0.58708991853E+02  0.43877058435E+02 -0.12327511750E+03  0.19030075050E+03  0.12508268891E+03 0.  0.
          5    1    3    3  502    0 -0.96804443898E+02  0.40074645169E+02 -0.76967701275E+02  0.13007143031E+03  0.41800000000E+01 0.  1.
         -5    1    3    3    0  502  0.38095452044E+02  0.38024132660E+01 -0.46307416221E+02  0.60229320187E+02  0.41800000000E+01 0.  1.
        -11    1    1    2    0    0  0.33698594376E+02 -0.61798114643E+02 -0.12574782152E+03  0.14410800413E+03  0.00000000000E+00 0. -1.
         11    1    1    2    0    0  0.25010397477E+02  0.17921056208E+02 -0.53409334168E+01  0.31228349417E+02  0.00000000000E+00 0.  1.
</event>
<event>
 7    1  0.2651429E-009  0.8979078E+02  0.7561462E-02  0.1303359E+00
         -2   -1    0    0    0  501 -0.00000000000E+00  0.00000000000E+00  0.28610138254E+02  0.28610138254E+02  0.00000000000E+00 0.  1.
          2   -1    0    0  501    0  0.00000000000E+00 -0.00000000000E+00 -0.47480071013E+03  0.47480071013E+03  0.00000000000E+00 0. -1.
         25    2    1    2    0    0  0.32616579808E+02  0.10166433356E+02 -0.29276232497E+03  0.32019439820E+03  0.12508987196E+03 0.  0.
          5    1    3    3  502    0  0.37192447938E+02  0.36622980520E+02 -0.28785873603E+03  0.29258271513E+03  0.41800000000E+01 0. -1.
         -5    1    3    3    0  502 -0.45758681302E+01 -0.26456547164E+02 -0.49035889417E+01  0.27611683061E+02  0.41800000000E+01 0. -1.
        -11    1    1    2    0    0  0.57680520936E+00  0.39938290113E+02 -0.57369753781E+02  0.69904852266E+02  0.00000000000E+00 0. -1.
         11    1    1    2    0    0 -0.33193385017E+02 -0.50104723469E+02 -0.96058493118E+02  0.11331159792E+03  0.00000000000E+00 0.  1.
</event>
<event>
 7    1  0.2651429E-009  0.1914387E+03  0.7561462E-02  0.1157170E+00
         -2   -1    0    0    0  501 -0.00000000000E+00  0.00000000000E+00  0.56095071952E+02  0.56095071952E+02  0.00000000000E+00 0.  1.
          2   -1    0    0  501    0  0.00000000000E+00 -0.00000000000E+00 -0.67431531087E+03  0.67431531087E+03  0.00000000000E+00 0. -1.
         25    2    1    2    0    0  0.12835066107E+03 -0.95634863246E+02 -0.29763553673E+03  0.36034663339E+03  0.12507143642E+03 0.  0.
          5    1    3    3  502    0  0.50406527028E+02  0.25051949306E+02 -0.58132257193E+02  0.81026229441E+02  0.41800000000E+01 0. -1.
         -5    1    3    3    0  502  0.77944134045E+02 -0.12068681255E+03 -0.23950327954E+03  0.27932040395E+03  0.41800000000E+01 0. -1.
        -11    1    1    2    0    0 -0.11958034303E+03  0.39569203744E+02 -0.19349046613E+03  0.23087602909E+03  0.00000000000E+00 0.  1.
         11    1    1    2    0    0 -0.87703180410E+01  0.56065659501E+02 -0.12709423606E+03  0.13918772034E+03  0.00000000000E+00 0. -1.
</event>
<event>
 7    1  0.2651429E-009  0.1282349E+03  0.7561462E-02  0.1230099E+00
          1   -1    0    0  501    0  0.00000000000E+00  0.00000000000E+00  0.18722034445E+03  0.18722034445E+03  0.00000000000E+00 0. -1.
         -1   -1    0    0    0  501 -0.00000000000E+00 -0.00000000000E+00 -0.12487252876E+03  0.12487252876E+03  0.00000000000E+00 0.  1.
         25    2    1    2    0    0  0.71718503363E+02  0.61994549555E+02 -0.10095040035E+02  0.15727253118E+03  0.12508345747E+03 0.  0.
          5    1    3    3  502    0  0.92054433203E+02  0.51221970892E+02 -0.45509288617E+02  0.11483151451E+03  0.41800000000E+01 0.  1.
         -5    1    3    3    0  502 -0.20335929840E+02  0.10772578664E+02  0.35414248582E+02  0.42441016672E+02  0.41800000000E+01 0.  1.
        -11    1    1    2    0    0 -0.16453887144E+02 -0.69912641819E+02  0.12494209837E+02  0.72901393456E+02  0.00000000000E+00 0.  1.
         11    1    1    2    0    0 -0.55264616218E+02  0.79180922641E+01  0.59948645886E+02  0.81918948568E+02  0.00000000000E+00 0. -1.
</event>
<event>
 7    1  0.2651429E-009  0.9444692E+02  0.7561462E-02  0.1292427E+00
          2   -1    0    0  501    0  0.00000000000E+00  0.00000000000E+00  0.10989670096E+04  0.10989670096E+04  0.00000000000E+00 0. -1.
         -2   -1    0    0    0  501 -0.00000000000E+00 -0.00000000000E+00 -0.16556632725E+02  0.16556632725E+02  0.00000000000E+00 0.  1.
         25    2    1    2    0    0 -0.19537406663E+02 -0.73065300626E+02  0.70074637225E+03  0.71583347713E+03  0.12510731527E+03 0.  0.
          5    1    3    3  502    0  0.35691360301E+01 -0.43705341079E+02  0.62402610020E+02  0.76383595806E+02  0.41800000000E+01 0.  1.
         -5    1    3    3    0  502 -0.23106542693E+02 -0.29359959547E+02  0.63834376223E+03  0.63944988132E+03  0.41800000000E+01 0.  1.
        -11    1    1    2    0    0  0.41534145430E+02  0.13374704284E+02  0.24614977215E+03  0.24998735624E+03  0.00000000000E+00 0. -1.
         11    1    1    2    0    0 -0.21996738767E+02  0.59690596341E+02  0.13551423250E+03  0.14970280898E+03  0.00000000000E+00 0.  1.
</event>
<event>
 6    1  0.2651429E-009  0.1200950E+03  0.7561462E-02  0.1242940E+00
         -1   -1    0    0    0  501 -0.00000000000E+00  0.00000000000E+00  0.12258064986E+03  0.12258064986E+03  0.00000000000E+00 0.  1.
          1   -1    0    0  501    0  0.00000000000E+00 -0.00000000000E+00 -0.24110927381E+03  0.24110927381E+03  0.00000000000E+00 0. -1.
          5    1    1    2  502    0 -0.22580700963E+02 -0.26716479851E+01  0.21577930308E+02  0.31624440474E+02  0.41800000000E+01 0.  1.
         -5    1    1    2    0  502 -0.92856536026E+02 -0.27911382349E+02 -0.15350782066E+03  0.18161361444E+03  0.41800000000E+01 0.  1.
        -11    1    1    2    0    0  0.80588121368E+02  0.15589018363E+02 -0.34763518560E+02  0.89140142595E+02  0.00000000000E+00 0. -1.
         11    1    1    2    0    0  0.34849115620E+02  0.14994011971E+02  0.48164784964E+02  0.61311726163E+02  0.00000000000E+00 0.  1.
</event>
<event>
 7    1  0.2651429E-009  0.8796011E+02  0.7561462E-02  0.1307868E+00
          1   -1    0    0  501    0  0.00000000000E+00  0.00000000000E+00  0.31559783387E+02  0.31559783387E+02  0.00000000000E+00 0. -1.
         -1   -1    0    0    0  501 -0.00000000000E+00 -0.00000000000E+00 -0.47046261601E+03  0.47046261601E+03  0.00000000000E+00 0.  1.
         25    2    1    2    0    0  0.18765495140E+02  0.51032178089E+02 -0.24790167117E+03  0.28294692291E+03  0.12508915064E+03 0.  0.
          5    1    3    3  502    0  0.27982271204E+02  0.16749583622E+02 -0.40418144727E+00  0.32881481352E+02  0.41800000000E+01 0. -1.
         -5    1    3    3    0  502 -0.92167760634E+01  0.34282594467E+02 -0.24749748972E+03  0.25006544156E+03  0.41800000000E+01 0. -1.
        -11    1    1    2    0    0 -0.56339352751E+02 -0.35803541666E+02 -0.11924891006E+03  0.13666132889E+03  0.00000000000E+00 0. -1.
         11    1    1    2    0    0  0.37573857610E+02 -0.15228636423E+02 -0.71752251395E+02  0.82414147592E+02  0.00000000000E+00 0.  1.
</event>
<event>
 7    1  0.2651429E-009  0.1586748E+03  0.7561462E-02  0.1190201E+00
          2   -1    0    0  501    0  0.00000000000E+00  0.00000000000E+00  0.74742574549E+03  0.74742574549E+03  0.00000000000E+00 0. -1.
         -2   -1    0    0    0  501 -0.00000000000E+00 -0.00000000000E+00 -0.40266020338E+02  0.40266020338E+02  0.00000000000E+00 0.  1.
         25    2    1    2    0    0 -0.11373741128E+03 -0.26530767600E+02  0.53120714958E+03  0.55809361203E+03  0.12508942269E+03 0.  0.
          5    1    3    3  502    0 -0.75724715205E+02  0.46313403322E+02  0.27654169480E+03  0.29046849258E+03  0.41800000000E+01 0.  1.
         -5    1    3    3    0  502 -0.38012696071E+02 -0.72844170922E+02  0.25466545478E+03  0.26762511945E+03  0.41800000000E+01 0.  1.
        -11    1    1    2    0    0  0.12082505867E+03  0.43028943221E+02  0.14315587587E+03  0.19220767298E+03  0.00000000000E+00 0.  1.
         11    1    1    2    0    0 -0.70876473920E+01 -0.16498175621E+02  0.32796699700E+02  0.37390480815E+02  0.00000000000E+00 0. -1.
</event>
<event>
 7    1  0.3104470E-009  0.1077164E+03  0.7561462E-02  0.1264858E+00
          1   -1    0    0  501    0  0.00000000000E+00  0.00000000000E+00  0.37940423865E+03  0.37940423865E+03  0.00000000000E+00 0. -1.
         -1   -1    0    0    0  501 -0.00000000000E+00 -0.00000000000E+00 -0.40003665856E+02  0.40003665856E+02  0.00000000000E+00 0.  1.
         25    2    1    2    0    0  0.53315335851E+02 -0.22318083732E+02  0.17514656713E+03  0.22285564496E+03  0.12509075351E+03 0.  0.
          5    1    3    3  502    0  0.55117079823E+02 -0.70034820761E+02  0.10341859962E+03  0.13658567917E+03  0.41800000000E+01 0.  1.
         -5    1    3    3    0  502 -0.18017439723E+01  0.47716737030E+02  0.71727967509E+02  0.86269965788E+02  0.41800000000E+01 0.  1.
        -11    1    1    2    0    0  0.17750067425E+01  0.23115056996E+02  0.12917026017E+03  0.13123418999E+03  0.00000000000E+00 0. -1.
         11    1    1    2    0    0 -0.55090342593E+02 -0.79697326461E+00  0.35083745501E+02  0.65318069565E+02  0.00000000000E+00 0.  1.
</event>
<event>
 7    1  0.2651429E-009  0.1156615E+03  0.7561462E-02  0.1250431E+00
         -2   -1    0    0    0  501 -0.00000000000E+00  0.00000000000E+00  0.22697010134E+03  0.22697010134E+03  0.00000000000E+00 0. -1.
          2   -1    0    0  501    0  0.00000000000E+00 -0.00000000000E+00 -0.91701043680E+02  0.91701043680E+02  0.00000000000E+00 0.  1.
         25    2    1    2    0    0  0.56357489974E+02 -0.63718520752E+02  0.27311637331E+02  0.15372053704E+03  0.12509141221E+03 0.  0.
          5    1    3    3  502    0  0.57893671112E+02  0.19142502242E+02 -0.11368323797E+02  0.62167706511E+02  0.41800000000E+01 0. -1.
         -5    1    3    3    0  502 -0.15361811383E+01 -0.82861022994E+02  0.38679961128E+02  0.91552830524E+02  0.41800000000E+01 0. -1.
        -11    1    1    2    0    0 -0.42698795469E+02  0.34232590282E+02  0.27027838191E+01  0.54793817281E+02  0.00000000000E+00 0.  1.
         11    1    1    2    0    0 -0.13658694505E+02  0.29485930470E+02  0.10525463651E+03  0.11015679070E+03  0.00000000000E+00 0. -1.
</event>
<event>
 7    1  0.2651429E-009  0.1141874E+03  0.7561462E-02  0.1253006E+00
         -1   -1    0    0    0  501 -0.00000000000E+00  0.00000000000E+00  0.57015274677E+03  0.57015274677E+03  0.00000000000E+00 0.  1.
          1   -1    0    0  501    0  0.00000000000E+00 -0.00000000000E+00 -0.34875205440E+02  0.34875205440E+02  0.00000000000E+00 0. -1.
         25    2    1    2    0    0  0.46285141030E+02  0.36719567123E+02  0.44234155630E+03  0.46346920508E+03  0.12508801193E+03 0.  0.
          5    1    3    3  502    0  0.40180367381E+02 -0.39776239518E+02  0.24988299865E+03  0.25623348057E+03  0.41800000000E+01 0. -1.
         -5    1    3    3    0  502  0.61047736492E+01  0.76495806640E+02  0.19245855766E+03  0.20723572451E+03  0.41800000000E+01 0. -1.
        -11    1    1    2    0    0  0.15959962424E+02  0.83196890122E+01  0.50882154159E+02  0.53971578055E+02  0.00000000000E+00 0.  1.
         11    1    1    2    0    0 -0.62245103455E+02 -0.45039256135E+02  0.42053830871E+02  0.87587169084E+02  0.00000000000E+00 0. -1.
</event>
<event>
 7    1  0.2651429E-009  0.9661389E+02  0.7561462E-02  0.1287582E+00
          2   -1    0    0  501    0  0.00000000000E+00  0.00000000000E+00  0.87593053347E+02  0.87593053347E+02  0.00000000000E+00 0. -1.
         -2   -1    0    0    0  501 -0.00000000000E+00 -0.00000000000E+00 -0.15089689865E+03  0.15089689865E+03  0.00000000000E+00 0.  1.
         25    2    1    2    0    0 -0.78265582294E+01  0.29682681441E+02 -0.50687911662E+02  0.13841699332E+03  0.12509069933E+03 0.  0.
          5    1    3    3  502    0 -0.15278257579E+02  0.68216034202E+02  0.49450067510E+01  0.70205255991E+02  0.41800000000E+01 0.  1.
         -5    1    3    3    0  502  0.74516993497E+01 -0.38533352761E+02 -0.55632918413E+02  0.68211737328E+02  0.41800000000E+01 0.  1.
        -11    1    1    2    0    0 -0.35230568764E+02 -0.13648339141E+02 -0.32663690575E+02  0.49943836644E+02  0.00000000000E+00 0.  1.
         11    1    1    2    0    0  0.43057126994E+02 -0.16034342300E+02  0.20047756933E+02  0.50129122035E+02  0.00000000000E+00 0. -1.
</event>
<event>
 7    1  0.2651429E-009  0.1199954E+03  0.7561462E-02  0.1243105E+00
          3   -1    0    0  501    0  0.00000000000E+00  0.00000000000E+00  0.35198244290E+03  0.35198244290E+03  0.00000000000E+00 0. -1.
         -3   -1    0    0    0  501 -0.00000000000E+00 -0.00000000000E+00 -0.47488423717E+02  0.47488423717E+02  0.00000000000E+00 0.  1.
         25    2    1    2    0    0  0.20086253907E+02  0.66229668087E+02  0.14157462390E+03  0.20119943843E+03  0.12509201958E+03 0.  0.
          5    1    3    3  502    0  0.35492337550E+02  0.91140335965E+02  0.60955223553E+02  0.11532249799E+03  0.41800000000E+01 0. -1.
         -5    1    3    3    0  502 -0.15406083643E+02 -0.24910667878E+02  0.80619400346E+02  0.85876940441E+02  0.41800000000E+01 0. -1.
        -11    1    1    2    0    0 -0.55454483759E+02 -0.43302030654E+02  0.92762294908E+02  0.11642641017E+03  0.00000000000E+00 0.  1.
         11    1    1    2    0    0  0.35368229852E+02 -0.22927637433E+02  0.70157100375E+02  0.81845018017E+02  0.00000000000E+00 0. -1.
</event>
<event>
 7    1  0.2651429E-009  0.1125614E+03  0.7561462E-02  0.1255899E+00
         -2   -1    0    0    0  501 -0.00000000000E+00  0.00000000000E+00  0.63072670268E+02  0.63072670268E+02  0.00000000000E+00 0.  1.
          2   -1    0    0  501    0  0.00000000000E+00 -0.00000000000E+00 -0.22008836765E+03  0.22008836765E+03  0.00000000000E+00 0. -1.
         25    2    1    2    0    0 -0.24140815221E+02  0.38961343850E+02 -0.78556415429E+02  0.15466163931E+03  0.12509335313E+03 0.  0.
          5    1    3    3  502    0  0.44852952805E+02 -0.14834576760E+01 -0.40069354325E+01  0.45249485672E+02  0.41800000000E+01 0.  1.
         -5    1    3    3    0  502 -0.68993768027E+02  0.40444801526E+02 -0.74549479997E+02  0.10941215364E+03  0.41800000000E+01 0.  1.
        -11    1    1    2    0    0 -0.59123388328E+01 -0.61886670622E+02 -0.60132676195E+02  0.86491933135E+02  0.00000000000E+00 0. -1.
         11    1    1    2    0    0  0.30053154054E+02  0.22925326772E+02 -0.18326605753E+02  0.42007465463E+02  0.00000000000E+00 0.  1.
</event>
<event>
 7    1  0.2651429E-009  0.1350381E+03  0.7561462E-02  0.1220166E+00
          2   -1    0    0  501    0  0.00000000000E+00  0.00000000000E+00  0.47653418510E+02  0.47653418510E+02  0.00000000000E+00 0. -1.
         -2   -1    0    0    0  501 -0.00000000000E+00 -0.00000000000E+00 -0.59964464937E+03  0.59964464937E+03  0.00000000000E+00 0.  1.
         25    2    1    2    0    0  0.76631940567E+02 -0.78741090407E+02 -0.16221420300E+03  0.23244978104E+03  0.12508732716E+03 0.  0.
          5    1    3    3  502    0  0.10457321397E+03 -0.52375609609E+02 -0.15316949359E+03  0.19276184200E+03  0.41800000000E+01 0. -1.
         -5    1    3    3    0  502 -0.27941273405E+02 -0.26365480798E+02 -0.90447094105E+01  0.39687939044E+02  0.41800000000E+01 0. -1.
        -11    1    1    2    0    0 -0.45116471853E+02  0.23665306459E+02 -0.30351397239E+03  0.30776009195E+03  0.00000000000E+00 0. -1.
         11    1    1    2    0    0 -0.31515468714E+02  0.55075783949E+02 -0.86263055470E+02  0.10708819489E+03  0.00000000000E+00 0.  1.
</event>
<event>
 7    1  0.2651429E-009  0.1171273E+03  0.7561462E-02  0.1247913E+00
         -2   -1    0    0    0  501 -0.00000000000E+00  0.00000000000E+00  0.43165476292E+03  0.43165476292E+03  0.00000000000E+00 0.  1.
          2   -1    0    0  501    0  0.00000000000E+00 -0.00000000000E+00 -0.39041843316E+02  0.39041843316E+02  0.00000000000E+00 0. -1.
         25    2    1    2    0    0  0.16131208746E+02  0.65382541614E+02  0.24379018598E+03  0.28216282755E+03  0.12508842403E+03 0.  0.
          5    1    3    3  502    0 -0.32964631464E+02 -0.17438079638E+02  0.11722234554E+03  0.12308250990E+03  0.41800000000E+01 0.  1.
         -5    1    3    3    0  502  0.49095840210E+02  0.82820621253E+02  0.12656784044E+03  0.15908031765E+03  0.41800000000E+01 0.  1.
        -11    1    1    2    0    0  0.63728334433E+01  0.15311762613E+02  0.75198250837E+02  0.77005454413E+02  0.00000000000E+00 0.  1.
         11    1    1    2    0    0 -0.22504042189E+02 -0.80694304228E+02  0.73624482791E+02  0.11152832428E+03  0.00000000000E+00 0. -1.
</event>
<event>
 7    1  0.2651429E-009  0.1698391E+03  0.7561462E-02  0.1178016E+00
         -2   -1    0    0    0  501 -0.00000000000E+00  0.00000000000E+00  0.16475909565E+03  0.16475909565E+03  0.00000000000E+00 0.  1.
          2   -1    0    0  501    0  0.00000000000E+00 -0.00000000000E+00 -0.22842907980E+03  0.22842907980E+03  0.00000000000E+00 0. -1.
         25    2    1    2    0    0  0.16020313949E+02  0.14681546561E+03  0.31957413199E+02  0.19616263924E+03  0.12508826233E+03 0.  0.
          5    1    3    3  502    0  0.29524035738E+02  0.16214309774E+03  0.45835809435E+02  0.17111530224E+03  0.41800000000E+01 0. -1.
         -5    1    3    3    0  502 -0.13503721790E+02 -0.15327632131E+02 -0.13878396237E+02  0.25047337005E+02  0.41800000000E+01 0. -1.
        -11    1    1    2    0    0  0.12305569767E+02 -0.86008298621E+02 -0.88360413587E+01  0.87332297038E+02  0.00000000000E+00 0.  1.
         11    1    1    2    0    0 -0.28325883716E+02 -0.60807166992E+02 -0.86791355984E+02  0.10969323917E+03  0.00000000000E+00 0. -1.
</event>
<event>
 7    1  0.2651429E-009  0.2321218E+03  0.7561462E-02  0.1125155E+00
          1   -1    0    0  501    0  0.00000000000E+00  0.00000000000E+00  0.24360573952E+04  0.24360573952E+04  0.00000000000E+00 0. -1.
         -1   -1    0    0    0  501 -0.00000000000E+00 -0.00000000000E+00 -0.47284253547E+02  0.47284253547E+02  0.00000000000E+00 0.  1.
         25    2    1    2    0    0 -0.38588492146E+02  0.21799305573E+03  0.20692246807E+04  0.20847897662E+04  0.12509015048E+03 0.  0.
          5    1    3    3  502    0 -0.28418172759E+02  0.49556367777E+02  0.10600227663E+04  0.10615691987E+04  0.41800000000E+01 0. -1.
         -5    1    3    3    0  502 -0.10170319386E+02  0.16843668795E+03  0.10092019144E+04  0.10232205675E+04  0.41800000000E+01 0. -1.
        -11    1    1    2    0    0  0.64736013540E+02 -0.18544283535E+03  0.26173572711E+03  0.32723903721E+03  0.00000000000E+00 0. -1.
         11    1    1    2    0    0 -0.26147521394E+02 -0.32550220378E+02  0.57812733825E+02  0.71312845365E+02  0.00000000000E+00 0.  1.
</event>
<event>
 7    1  0.2651429E-009  0.9702492E+02  0.7561462E-02  0.1286679E+00
         -1   -1    0    0    0  501 -0.00000000000E+00  0.00000000000E+00  0.10544947826E+02  0.10544947826E+02  0.00000000000E+00 0.  1.
          1   -1    0    0  501    0  0.00000000000E+00 -0.00000000000E+00 -0.13459934056E+04  0.13459934056E+04  0.00000000000E+00 0. -1.
         25    2    1    2    0    0  0.10808572346E+02 -0.46281518610E+02 -0.81283521557E+03  0.82377575264E+03  0.12508636520E+03 0.  0.
          5    1    3    3  502    0 -0.39076695546E+01 -0.65735459407E+02 -0.20333486043E+03  0.21377314698E+03  0.41800000000E+01 0.  1.
         -5    1    3    3    0  502  0.14716241900E+02  0.19453940797E+02 -0.60950035514E+03  0.61000260565E+03  0.41800000000E+01 0.  1.
        -11    1    1    2    0    0 -0.47461382570E+02  0.44043139294E+01 -0.25677654470E+03  0.26116311899E+03  0.00000000000E+00 0.  1.
         11    1    1    2    0    0  0.36652810225E+02  0.41877204680E+02 -0.26583669749E+03  0.27159948178E+03  0.00000000000E+00 0. -1.
</event>
<event>
 7    1  0.2651429E-009  0.1926481E+03  0.7561462E-02  0.1156094E+00
          4   -1    0    0  501    0  0.00000000000E+00  0.00000000000E+00  0.47434469991E+03  0.47434469991E+03  0.00000000000E+00 0. -1.
         -4   -1    0    0    0  501 -0.00000000000E+00 -0.00000000000E+00 -0.87543939219E+02  0.87543939219E+02  0.00000000000E+00 0.  1.
         25    2    1    2    0    0  0.16463397720E+03  0.83842078792E+01  0.26940002601E+03  0.33970412890E+03  0.12509148568E+03 0.  0.
          5    1    3    3  502    0  0.12449443089E+03 -0.47064540119E+02  0.21161732694E+03  0.25002659802E+03  0.41800000000E+01 0.  1.
         -5    1    3    3    0  502  0.40139546312E+02  0.55448747999E+02  0.57782699071E+02  0.89677530880E+02  0.41800000000E+01 0.  1.
        -11    1    1    2    0    0 -0.14038269274E+03  0.24697133367E+02  0.11102004737E+03  0.18067290814E+03  0.00000000000E+00 0. -1.
         11    1    1    2    0    0 -0.24251284457E+02 -0.33081341246E+02  0.63806873048E+01  0.41511602076E+02  0.00000000000E+00 0.  1.
</event>
<event>
 7    1  0.2651429E-009  0.8816926E+02  0.7561462E-02  0.1307347E+00
         -2   -1    0    0    0  501 -0.00000000000E+00  0.00000000000E+00  0.69884188857E+02  0.69884188857E+02  0.00000000000E+00 0.  1.
          2   -1    0    0  501    0  0.00000000000E+00 -0.00000000000E+00 -0.26375635696E+03  0.26375635696E+03  0.00000000000E+00 0. -1.
         25    2    1    2    0    0 -0.12229506597E+02 -0.94319498156E+00 -0.20775044405E+03  0.24281380636E+03  0.12509135505E+03 0.  0.
          5    1    3    3  502    0  0.42533491703E+02  0.32851820156E+02 -0.55013744635E+02  0.77021584655E+02  0.41800000000E+01 0. -1.
         -5    1    3    3    0  502 -0.54762998300E+02 -0.33795015137E+02 -0.15273669941E+03  0.16579222171E+03  0.41800000000E+01 0. -1.
        -11    1    1    2    0    0  0.28425538608E+02 -0.17515951028E+02  0.41894049515E+02  0.53571738541E+02  0.00000000000E+00 0.  1.
         11    1    1    2    0    0 -0.16196032011E+02  0.18459146009E+02 -0.28015773569E+02  0.37255000912E+02  0.00000000000E+00 0. -1.
</event>
<event>
 7    1  0.2651429E-009  0.9325744E+02  0.7561462E-02  0.1295150E+00
          1   -1    0    0  501    0  0.00000000000E+00  0.00000000000E+00  0.64222056156E+03  0.64222056156E+03  0.00000000000E+00 0. -1.
         -1   -1    0    0    0  501 -0.00000000000E+00 -0.00000000000E+00 -0.18267899193E+02  0.18267899193E+02  0.00000000000E+00 0.  1.
         25    2    1    2    0    0  0.36747946630E+01  0.61336440584E+01  0.34476277104E+03  0.36682618689E+03  0.12509579284E+03 0.  0.
          5    1    3    3  502    0 -0.42463630262E+02  0.20236573030E+02  0.28959026447E+03  0.29341552866E+03  0.41800000000E+01 0. -1.
         -5    1    3    3    0  502  0.46138424925E+02 -0.14102928972E+02  0.55172506572E+02  0.73410658229E+02  0.41800000000E+01 0. -1.
        -11    1    1    2    0    0 -0.93529022628E+01 -0.47853777262E+02  0.14036025795E+03  0.14858823234E+03  0.00000000000E+00 0.  1.
         11    1    1    2    0    0  0.56781075998E+01  0.41720133203E+02  0.13882963338E+03  0.14507404152E+03  0.00000000000E+00 0. -1.
</event>
<event>
 7    1  0.2978557E-009  0.1388552E+03  0.7561462E-02  0.1214878E+00
         -3   -1    0    0    0  501 -0.00000000000E+00  0.00000000000E+00  0.25743588842E+03  0.25743588842E+03  0.00000000000E+00 0.  1.
          3   -1    0    0  501    0  0.00000000000E+00 -0.00000000000E+00 -0.84322523391E+02  0.84322523391E+02  0.00000000000E+00 0. -1.
         25    2    1    2    0    0 -0.69082169508E+02  0.57506238353E+02  0.14198551893E+03  0.20949263811E+03  0.12509182324E+03 0.  0.
          5    1    3    3  502    0 -0.10582129392E+03  0.43735316218E+02  0.10574473931E+03  0.15591775532E+03  0.41800000000E+01 0.  1.
         -5    1    3    3    0  502  0.36739124409E+02  0.13770922135E+02  0.36240779619E+02  0.53574882792E+02  0.41800000000E+01 0.  1.
        -11    1    1    2    0    0  0.72644224086E+02 -0.69317023805E+01  0.38865699841E+00  0.72975220762E+02  0.00000000000E+00 0. -1.
         11    1    1    2    0    0 -0.35620545775E+01 -0.50574535973E+02  0.30739189103E+02  0.59290552944E+02  0.00000000000E+00 0.  1.
</event>
<event>
 7    1  0.2651429E-009  0.9796190E+02  0.7561462E-02  0.1284641E+00
          1   -1    0    0  501    0  0.00000000000E+00  0.00000000000E+00  0.22056180525E+03  0.22056180525E+03  0.00000000000E+00 0. -1.
         -1   -1    0    0    0  501 -0.00000000000E+00 -0.00000000000E+00 -0.21975056481E+03  0.21975056481E+03  0.00000000000E+00 0.  1.
         25    2    1    2    0    0  0.23606957046E+02  0.21198296896E+02  0.18884354910E+03  0.22872658956E+03  0.12508921027E+03 0.  0.
          5    1    3    3  502    0 -0.35315928339E+02  0.24347225613E+02  0.15886493833E+02  0.45933160960E+02  0.41800000000E+01 0.  1.
         -5    1    3    3    0  502  0.58922885386E+02 -0.31489287165E+01  0.17295705527E+03  0.18279342860E+03  0.41800000000E+01 0.  1.
        -11    1    1    2    0    0 -0.27284244795E+02  0.31026322332E+02 -0.11105860958E+03  0.11849505244E+03  0.00000000000E+00 0.  1.
         11    1    1    2    0    0  0.36772877488E+01 -0.52224619228E+02 -0.76973699080E+02  0.93090728049E+02  0.00000000000E+00 0. -1.
</event>
<event>
 7    1  0.2651429E-009  0.8697141E+02  0.7561462E-02  0.1310356E+00
         -2   -1    0    0    0  501 -0.00000000000E+00  0.00000000000E+00  0.21519749129E+02  0.21519749129E+02  0.00000000000E+00 0.  1.
          2   -1    0    0  501    0  0.00000000000E+00 -0.00000000000E+00 -0.85935099762E+03  0.85935099762E+03  0.00000000000E+00 0. -1.
         25    2    1    2    0    0 -0.11684873445E+02  0.50924598417E+02 -0.66635118529E+03  0.68000069144E+03  0.12508871744E+03 0.  0.
          5    1    3    3  502    0  0.24049981476E+02  0.47115713968E+01 -0.22622473521E+02  0.33613229869E+02  0.41800000000E+01 0. -1.
         -5    1    3    3    0  502 -0.35734854920E+02  0.46213027020E+02 -0.64372871176E+03  0.64638746157E+03  0.41800000000E+01 0. -1.
        -11    1    1    2    0    0 -0.22411152262E+02  0.68454407547E+01 -0.90268895347E+01  0.25111840624E+02  0.00000000000E+00 0.  1.
         11    1    1    2    0    0  0.34096025707E+02 -0.57770039172E+02 -0.16245317367E+03  0.17575821469E+03  0.00000000000E+00 0. -1.
</event>
<event>
 7    1  0.2651429E-009  0.1422144E+03  0.7561462E-02  0.1210380E+00
          3   -1    0    0  501    0  0.00000000000E+00  0.00000000000E+00  0.69548048749E+03  0.69548048749E+03  0.00000000000E+00 0. -1.
         -3   -1    0    0    0  501 -0.00000000000E+00 -0.00000000000E+00 -0.33415638598E+02  0.33415638598E+02  0.00000000000E+00 0.  1.
         25    2    1    2    0    0 -0.79233601683E+02 -0.49860380793E+02  0.23326785727E+03  0.28078284502E+03  0.12514428319E+03 0.  0.
          5    1    3    3  502    0  0.14118842580E+02  0.29253078304E+02  0.63771186812E+02  0.71689057557E+02  0.41800000000E+01 0. -1.
         -5    1    3    3    0  502 -0.93352444262E+02 -0.79113459097E+02  0.16949667046E+03  0.20909378747E+03  0.41800000000E+01 0. -1.
        -11    1    1    2    0    0  0.78294285805E+02 -0.10701669299E+01  0.23333263992E+03  0.24612042032E+03  0.00000000000E+00 0.  1.
         11    1    1    2    0    0  0.93931587809E+00  0.50930547723E+02  0.19546435171E+03  0.20199286075E+03  0.00000000000E+00 0. -1.
</event>
<event>
 7    1  0.2651429E-009  0.1321290E+03  0.7561462E-02  0.1224331E+00
          2   -1    0    0  501    0  0.00000000000E+00  0.00000000000E+00  0.28605934998E+03  0.28605934998E+03  0.00000000000E+00 0. -1.
         -2   -1    0    0    0  501 -0.00000000000E+00 -0.00000000000E+00 -0.10820054365E+03  0.10820054365E+03  0.00000000000E+00 0.  1.
         25    2    1    2    0    0  0.54235478387E+02 -0.69046362051E+02  0.21328301247E+03  0.26238483444E+03  0.12508905110E+03 0.  0.
          5    1    3    3  502    0 -0.38335113665E+02 -0.27511780884E+02  0.97372738165E+02  0.10828389338E+03  0.41800000000E+01 0. -1.
         -5    1    3    3    0  502  0.92570592051E+02 -0.41534581167E+02  0.11591027431E+03  0.15410094106E+03  0.41800000000E+01 0. -1.
        -11    1    1    2    0    0  0.93611723209E+01  0.47163889607E+02 -0.42595999477E+02  0.64237708564E+02  0.00000000000E+00 0.  1.
         11    1    1    2    0    0 -0.63596650708E+02  0.21882472444E+02  0.71717933333E+01  0.67637350636E+02  0.00000000000E+00 0. -1.
</event>
<event>
 7    1  0.2651429E-009  0.1168836E+03  0.7561462E-02  0.1248328E+00
          1   -1    0    0  501    0  0.00000000000E+00  0.00000000000E+00  0.15988286454E+03  0.15988286454E+03  0.00000000000E+00 0. -1.
         -1   -1    0    0    0  501 -0.00000000000E+00 -0.00000000000E+00 -0.15334983603E+03  0.15334983603E+03  0.00000000000E+00 0.  1.
         25    2    1    2    0    0  0.20380390832E+02  0.78706528699E+02  0.80527394867E+02  0.16953997382E+03  0.12509621660E+03 0.  0.
          5    1    3    3  502    0  0.53452495952E+02  0.30752708914E+01 -0.62584764243E+00  0.53707454788E+02  0.41800000000E+01 0.  1.
         -5    1    3    3    0  502 -0.33072105120E+02  0.75631257807E+02  0.81153242509E+02  0.11583251903E+03  0.41800000000E+01 0.  1.
        -11    1    1    2    0    0  0.18315094821E+02 -0.20205683402E+02 -0.68037798425E+02  0.73299756852E+02  0.00000000000E+00 0.  1.
         11    1    1    2    0    0 -0.38695485653E+02 -0.58500845297E+02 -0.59565679270E+01  0.70392969904E+02  0.00000000000E+00 0. -1.
</event>
<event>
 7    1  0.2651429E-009  0.1663510E+03  0.7561462E-02  0.1181707E+00
          2   -1    0    0  501    0  0.00000000000E+00  0.00000000000E+00  0.17220873279E+04  0.17220873279E+04  0.00000000000E+00 0. -1.
         -2   -1    0    0    0  501 -0.00000000000E+00 -0.00000000000E+00 -0.28279244342E+02  0.28279244342E+02  0.00000000000E+00 0.  1.
         25    2    1    2    0    0 -0.14881099903E+02  0.13528898770E+03  0.14147811143E+04  0.14268068342E+04  0.12509030002E+03 0.  0.
          5    1    3    3  502    0  0.42308506711E+02  0.91068112038E+02  0.55862224950E+03  0.56759113877E+03  0.41800000000E+01 0. -1.
         -5    1    3    3    0  502 -0.57189606614E+02  0.44220875661E+02  0.85615886484E+03  0.85921569539E+03  0.41800000000E+01 0. -1.
        -11    1    1    2    0    0  0.35496910250E+02 -0.13455367807E+03  0.21336792260E+03  0.25473632115E+03  0.00000000000E+00 0.  1.
         11    1    1    2    0    0 -0.20615810347E+02 -0.73530962544E+00  0.65659046656E+02  0.68823416976E+02  0.00000000000E+00 0. -1.
</event>
<event>
 7    1  0.5734553E-009  0.1128137E+03  0.7561462E-02  0.1255446E+00
         -1   -1    0    0    0  501 -0.00000000000E+00  0.00000000000E+00  0.11551498620E+03  0.11551498620E+03  0.00000000000E+00 0.  1.
          1   -1    0    0  501    0  0.00000000000E+00 -0.00000000000E+00 -0.26849288514E+03  0.26849288514E+03  0.00000000000E+00 0. -1.
         25    2    1    2    0    0 -0.91889592624E+01 -0.80936375635E+02  0.40861746460E+02  0.15476329841E+03  0.12508741878E+03 0.  0.
          5    1    3    3  502    0  0.28358233437E+02 -0.60692399191E+02 -0.28746233020E+02  0.73017635103E+02  0.41800000000E+01 0. -1.
         -5    1    3    3    0  502 -0.37547192699E+02 -0.20243976445E+02  0.69607979480E+02  0.81745663305E+02  0.41800000000E+01 0. -1.
        -11    1    1    2    0    0  0.44926288570E+02  0.32488341802E+02 -0.13085477962E+03  0.14211557658E+03  0.00000000000E+00 0. -1.
         11    1    1    2    0    0 -0.35737329307E+02  0.48448033833E+02 -0.62984865772E+02  0.87128996348E+02  0.00000000000E+00 0.  1.
</event>
<event>
 7    1  0.2651429E-009  0.1052691E+03  0.7561462E-02  0.1269590E+00
          2   -1    0    0  501    0  0.00000000000E+00  0.00000000000E+00  0.66658427377E+03  0.66658427377E+03  0.00000000000E+00 0. -1.
         -2   -1    0    0    0  501 -0.00000000000E+00 -0.00000000000E+00 -0.26877862008E+02  0.26877862008E+02  0.00000000000E+00 0.  1.
         25    2    1    2    0    0  0.40162348370E+02 -0.56495798625E+02  0.46634357122E+03  0.48778033674E+03  0.12509412858E+03 0.  0.
          5    1    3    3  502    0  0.21914173482E+02  0.15088338919E+02  0.34220653933E+03  0.34326473301E+03  0.41800000000E+01 0.  1.
         -5    1    3    3    0  502  0.18248174888E+02 -0.71584137543E+02  0.12413703189E+03  0.14451560373E+03  0.41800000000E+01 0.  1.
        -11    1    1    2    0    0 -0.60367081094E+02  0.13138729852E+02  0.83365870207E+02  0.10376260896E+03  0.00000000000E+00 0.  1.
         11    1    1    2    0    0  0.20204732725E+02  0.43357068772E+02  0.89996970333E+02  0.10191919008E+03  0.00000000000E+00 0. -1.
</event>
<event>
 7    1  0.2651429E-009  0.1269845E+03  0.7561462E-02  0.1232000E+00
          2   -1    0    0  501    0  0.00000000000E+00  0.00000000000E+00  0.19007303396E+04  0.19007303396E+04  0.00000000000E+00 0.  1.
         -2   -1    0    0    0  501 -0.00000000000E+00 -0.00000000000E+00 -0.11442159649E+02  0.11442159649E+02  0.00000000000E+00 0. -1.
         25    2    1    2    0    0  0.58883864228E+02  0.34396168033E+02  0.14904329139E+04  0.14972270402E+04  0.12509249768E+03 0.  0.
          5    1    3    3  502    0  0.96003735520E+02  0.41044906715E+02  0.10779515766E+04  0.10830043746E+04  0.41800000000E+01 0.  1.
         -5    1    3    3    0  502 -0.37119871291E+02 -0.66487386815E+01  0.41248133736E+03  0.41422266553E+03  0.41800000000E+01 0.  1.
        -11    1    1    2    0    0 -0.52881354336E+02  0.20200591495E+02  0.24866091430E+03  0.25502304177E+03  0.00000000000E+00 0.  1.
         11    1    1    2    0    0 -0.60025098925E+01 -0.54596759529E+02  0.15019435167E+03  0.15992241728E+03  0.00000000000E+00 0. -1.
</event>
<event>
 7    1  0.2651429E-009  0.1138023E+03  0.7561462E-02  0.1253686E+00
         -2   -1    0    0    0  501 -0.00000000000E+00  0.00000000000E+00  0.45475474360E+02  0.45475474360E+02  0.00000000000E+00 0.  1.
          2   -1    0    0  501    0  0.00000000000E+00 -0.00000000000E+00 -0.41417335139E+03  0.41417335139E+03  0.00000000000E+00 0. -1.
         25    2    1    2    0    0 -0.15058825798E+02  0.48871848562E+02 -0.31275122283E+03  0.34070004555E+03  0.12509183763E+03 0.  0.
          5    1    3    3  502    0 -0.62515725057E+02  0.42172698146E+02 -0.25275098029E+03  0.26379401583E+03  0.41800000000E+01 0.  1.
         -5    1    3    3    0  502  0.47456899259E+02  0.66991504159E+01 -0.60000242535E+02  0.76906029723E+02  0.41800000000E+01 0.  1.
        -11    1    1    2    0    0 -0.30454069888E+02 -0.49883426054E+02 -0.39516748894E+02  0.70550549330E+02  0.00000000000E+00 0.  1.
         11    1    1    2    0    0  0.45512895686E+02  0.10115774918E+01 -0.16429905307E+02  0.48398230868E+02  0.00000000000E+00 0. -1.
</event>
<event>
 7    1  0.2651429E-009  0.1312870E+03  0.7561462E-02  0.1225558E+00
         -2   -1    0    0    0  501 -0.00000000000E+00  0.00000000000E+00  0.44896089843E+02  0.44896089843E+02  0.00000000000E+00 0.  1.
          2   -1    0    0  501    0  0.00000000000E+00 -0.00000000000E+00 -0.40656406501E+03  0.40656406501E+03  0.00000000000E+00 0. -1.
         25    2    1    2    0    0 -0.65314637904E+02 -0.42370324464E+02 -0.16982177854E+03  0.22482943837E+03  0.12509034164E+03 0.  0.
          5    1    3    3  502    0  0.26217277657E+02 -0.45616279723E+02 -0.84241991103E+02  0.99410140773E+02  0.41800000000E+01 0.  1.
         -5    1    3    3    0  502 -0.91531915561E+02  0.32459552589E+01 -0.85579787436E+02  0.12541929760E+03  0.41800000000E+01 0.  1.
        -11    1    1    2    0    0 -0.11786937498E+02  0.39210250789E+02 -0.89794945283E+02  0.98688944978E+02  0.00000000000E+00 0. -1.
         11    1    1    2    0    0  0.77101575401E+02  0.31600736750E+01 -0.10205125135E+03  0.12794177151E+03  0.00000000000E+00 0.  1.
</event>
<event>
 7    1  0.2651429E-009  0.1814260E+03  0.7561462E-02  0.1166430E+00
         -1   -1    0    0    0  501 -0.00000000000E+00  0.00000000000E+00  0.39138803677E+02  0.39138803677E+02  0.00000000000E+00 0.  1.
          1   -1    0    0  501    0  0.00000000000E+00 -0.00000000000E+00 -0.86764472710E+03  0.86764472710E+03  0.00000000000E+00 0. -1.
         25    2    1    2    0    0  0.14530782822E+03 -0.29586346658E+02 -0.44088553396E+03  0.48168299106E+03  0.12509489584E+03 0.  0.
          5    1    3    3  502    0  0.66665172289E+02 -0.72596502366E+02 -0.28778315144E+03  0.30422214253E+03  0.41800000000E+01 0.  1.
         -5    1    3    3    0  502  0.78642655933E+02  0.43010155708E+02 -0.15310238252E+03  0.17746084852E+03  0.41800000000E+01 0.  1.
        -11    1    1    2    0    0 -0.29316130398E+02  0.48768027593E+02 -0.12114710714E+03  0.13384460237E+03  0.00000000000E+00 0.  1.
         11    1    1    2    0    0 -0.11599169782E+03 -0.19181680935E+02 -0.26647328232E+03  0.29125593735E+03  0.00000000000E+00 0. -1.
</event>
<event>
 7    1  0.2651429E-009  0.1737431E+03  0.7561462E-02  0.1174000E+00
         -1   -1    0    0    0  501 -0.00000000000E+00  0.00000000000E+00  0.11044066092E+03  0.11044066092E+03  0.00000000000E+00 0.  1.
          1   -1    0    0  501    0  0.00000000000E+00 -0.00000000000E+00 -0.28202183279E+03  0.28202183279E+03  0.00000000000E+00 0. -1.
         25    2    1    2    0    0 -0.12974952515E+03  0.50275484096E+02 -0.87756367573E+02  0.20668282619E+03  0.12511613412E+03 0.  0.
          5    1    3    3  502    0 -0.14119150724E+03  0.73265602007E+02 -0.64204925612E+02  0.17158856321E+03  0.41800000000E+01 0.  1.
         -5    1    3    3    0  502  0.11441982087E+02 -0.22990117911E+02 -0.23551441961E+02  0.35094262980E+02  0.41800000000E+01 0.  1.
        -11    1    1    2    0    0  0.58275429121E+02  0.20482270429E+02 -0.13981902766E+02  0.63332792818E+02  0.00000000000E+00 0.  1.
         11    1    1    2    0    0  0.71474096028E+02 -0.70757754525E+02 -0.69842901526E+02  0.12244687469E+03  0.00000000000E+00 0. -1.
</event>
<event>
 7    1  0.2651429E-009  0.9202357E+02  0.7561462E-02  0.1298024E+00
         -2   -1    0    0    0  501 -0.00000000000E+00  0.00000000000E+00  0.13935182493E+03  0.13935182493E+03  0.00000000000E+00 0.  1.
          2   -1    0    0  501    0  0.00000000000E+00 -0.00000000000E+00 -0.12808119655E+03  0.12808119655E+03  0.00000000000E+00 0. -1.
         25    2    1    2    0    0  0.46859058367E+02  0.26391303440E+02 -0.50942801728E+02  0.14536464472E+03  0.12507373281E+03 0.  0.
          5    1    3    3  502    0 -0.34533185738E+02  0.11844153403E+02  0.14833765147E+02  0.39627488887E+02  0.41800000000E+01 0. -1.
         -5    1    3    3    0  502  0.81392244105E+02  0.14547150037E+02 -0.65776566875E+02  0.10573715584E+03  0.41800000000E+01 0. -1.
        -11    1    1    2    0    0  0.14864378420E+01 -0.14698846750E+02  0.70159690052E+02  0.71698310311E+02  0.00000000000E+00 0.  1.
         11    1    1    2    0    0 -0.48345496209E+02 -0.11692456690E+02 -0.79462599476E+01  0.50370066451E+02  0.00000000000E+00 0. -1.
</event>
<event>
 7    1  0.2651429E-009  0.1057581E+03  0.7561462E-02  0.1268633E+00
          4   -1    0    0  501    0  0.00000000000E+00  0.00000000000E+00  0.51285444838E+02  0.51285444838E+02  0.00000000000E+00 0. -1.
         -4   -1    0    0    0  501 -0.00000000000E+00 -0.00000000000E+00 -0.34079011609E+03  0.34079011609E+03  0.00000000000E+00 0.  1.
         25    2    1    2    0    0  0.35939893065E+02  0.17101109148E+02 -0.25605858414E+03  0.28774613755E+03  0.12509083627E+03 0.  0.
          5    1    3    3  502    0  0.79527867747E+02  0.22561729644E+02 -0.19965145161E+03  0.21612933147E+03  0.41800000000E+01 0.  1.
         -5    1    3    3    0  502 -0.43587974682E+02 -0.54606204959E+01 -0.56407132526E+02  0.71616806079E+02  0.41800000000E+01 0.  1.
        -11    1    1    2    0    0  0.71948345782E+01 -0.36585251302E+02  0.11539233051E+02  0.39030759112E+02  0.00000000000E+00 0.  1.
         11    1    1    2    0    0 -0.43134727643E+02  0.19484142153E+02 -0.44985320168E+02  0.65298664266E+02  0.00000000000E+00 0. -1.
</event>
<event>
 7    1  0.2651429E-009  0.1298010E+03  0.7561462E-02  0.1227751E+00
         -1   -1    0    0    0  501 -0.00000000000E+00  0.00000000000E+00  0.33164286799E+02  0.33164286799E+02  0.00000000000E+00 0.  1.
          1   -1    0    0  501    0  0.00000000000E+00 -0.00000000000E+00 -0.55380609905E+03  0.55380609905E+03  0.00000000000E+00 0. -1.
         25    2    1    2    0    0  0.79732329066E+02 -0.13303032488E+02 -0.29023314162E+03  0.32621556095E+03  0.12508837174E+03 0.  0.
          5    1    3    3  502    0 -0.26715771787E+02  0.22415509162E+02 -0.90018990914E+02  0.96628560159E+02  0.41800000000E+01 0.  1.
         -5    1    3    3    0  502  0.10644810085E+03 -0.35718541650E+02 -0.20021415070E+03  0.22958700080E+03  0.41800000000E+01 0.  1.
        -11    1    1    2    0    0 -0.60299434171E+02  0.44793087634E+02 -0.99217773128E+02  0.12444520467E+03  0.00000000000E+00 0.  1.
         11    1    1    2    0    0 -0.19432894894E+02 -0.31490055146E+02 -0.13119089751E+03  0.13630962022E+03  0.00000000000E+00 0. -1.
</event>
<event>
 7    1  0.2651429E-009  0.1093185E+03  0.7561462E-02  0.1261837E+00
         -1   -1    0    0    0  501 -0.00000000000E+00  0.00000000000E+00  0.87967266434E+02  0.87967266434E+02  0.00000000000E+00 0.  1.
          1   -1    0    0  501    0  0.00000000000E+00 -0.00000000000E+00 -0.14831345311E+03  0.14831345311E+03  0.00000000000E+00 0. -1.
         25    2    1    2    0    0  0.21938242458E+02 -0.20508749903E+02 -0.13538751789E+02  0.12935238757E+03  0.12508735774E+03 0.  0.
          5    1    3    3  502    0 -0.85648717925E-01  0.52104174163E+02 -0.66943108354E+00  0.52275929823E+02  0.41800000000E+01 0.  1.
         -5    1    3    3    0  502  0.22023891175E+02 -0.72612924066E+02 -0.12869320706E+02  0.77076457751E+02  0.41800000000E+01 0.  1.
        -11    1    1    2    0    0 -0.45137447423E+02 -0.15337759579E+02 -0.63256977283E+01  0.48090024751E+02  0.00000000000E+00 0.  1.
         11    1    1    2    0    0  0.23199204966E+02  0.35846509482E+02 -0.40481737155E+02  0.58838307217E+02  0.00000000000E+00 0. -1.
</event>
<event>
 7    1  0.2651429E-009  0.1204071E+03  0.7561462E-02  0.1242427E+00
          2   -1    0    0  501    0  0.00000000000E+00  0.00000000000E+00  0.49393318340E+02  0.49393318340E+02  0.00000000000E+00 0. -1.
         -2   -1    0    0    0  501 -0.00000000000E+00 -0.00000000000E+00 -0.29467352916E+03  0.29467352916E+03  0.00000000000E+00 0.  1.
         25    2    1    2    0    0  0.36664394223E+02 -0.37861408035E+02 -0.13791519725E+03  0.19350908705E+03  0.12508957236E+03 0.  0.
          5    1    3    3  502    0  0.19065852248E+02  0.45753241222E+02 -0.43252688025E+02  0.65917624545E+02  0.41800000000E+01 0.  1.
         -5    1    3    3    0  502  0.17598541976E+02 -0.83614649257E+02 -0.94662509228E+02  0.12759146250E+03  0.41800000000E+01 0.  1.
        -11    1    1    2    0    0  0.24486930894E+02 -0.11387839692E+02 -0.28927972424E+02  0.39574237403E+02  0.00000000000E+00 0.  1.
         11    1    1    2    0    0 -0.61151325117E+02  0.49249247727E+02 -0.78437041141E+02  0.11098352305E+03  0.00000000000E+00 0. -1.
</event>
<event>
 7    1  0.2651429E-009  0.1298338E+03  0.7561462E-02  0.1227703E+00
         -2   -1    0    0    0  501 -0.00000000000E+00  0.00000000000E+00  0.24199261504E+02  0.24199261504E+02  0.00000000000E+00 0.  1.
          2   -1    0    0  501    0  0.00000000000E+00 -0.00000000000E+00 -0.76175212452E+03  0.76175212452E+03  0.00000000000E+00 0. -1.
         25    2    1    2    0    0  0.74896504634E+02 -0.25814158807E+02 -0.36436691547E+03  0.39330139429E+03  0.12508749121E+03 0.  0.
          5    1    3    3  502    0 -0.91951248719E+01  0.39054024213E+02 -0.12630663896E+03  0.13259187975E+03  0.41800000000E+01 0.  1.
         -5    1    3    3    0  502  0.84091629506E+02 -0.64868183020E+02 -0.23806027651E+03  0.26070951454E+03  0.41800000000E+01 0.  1.
        -11    1    1    2    0    0 -0.45171338220E+02 -0.26864254660E+02 -0.24938733044E+03  0.25486502027E+03  0.00000000000E+00 0. -1.
         11    1    1    2    0    0 -0.29725166414E+02  0.52678413467E+02 -0.12379861711E+03  0.13778497146E+03  0.00000000000E+00 0.  1.
</event>
<event>
 7    1  0.2651429E-009  0.1423240E+03  0.7561462E-02  0.1210236E+00
         -4   -1    0    0    0  501 -0.00000000000E+00  0.00000000000E+00  0.62812926857E+03  0.62812926857E+03  0.00000000000E+00 0.  1.
          4   -1    0    0  501    0  0.00000000000E+00 -0.00000000000E+00 -0.44628920298E+02  0.44628920298E+02  0.00000000000E+00 0. -1.
         25    2    1    2    0    0 -0.45341671663E+02  0.80315855551E+02  0.48717655953E+03  0.51135180689E+03  0.12503266137E+03 0.  0.
          5    1    3    3  502    0 -0.67664012690E+02 -0.40046855212E+01  0.22366893752E+03  0.23375141097E+03  0.41800000000E+01 0.  1.
         -5    1    3    3    0  502  0.22322341027E+02  0.84320541072E+02  0.26350762201E+03  0.27760039592E+03  0.41800000000E+01 0.  1.
        -11    1    1    2    0    0  0.69042424077E+02 -0.80047432792E+02  0.76155418662E+02  0.13028467143E+03  0.00000000000E+00 0.  1.
         11    1    1    2    0    0 -0.23700752414E+02 -0.26842275872E+00  0.20168370080E+02  0.31121710548E+02  0.00000000000E+00 0. -1.
</event>
<event>
 7    1  0.2651429E-009  0.1452923E+03  0.7561462E-02  0.1206380E+00
         -2   -1    0    0    0  501 -0.00000000000E+00  0.00000000000E+00  0.68278485089E+02  0.68278485089E+02  0.00000000000E+00 0. -1.
          2   -1    0    0  501    0  0.00000000000E+00 -0.00000000000E+00 -0.10344138082E+04  0.10344138082E+04  0.00000000000E+00 0.  1.
         25    2    1    2    0    0 -0.93543965007E+02  0.96985474047E+02 -0.91194900902E+03  0.93030049664E+03  0.12510540930E+03 0.  0.
          5    1    3    3  502    0 -0.22243800639E+02  0.33579610205E+02 -0.56371566999E+02  0.69408953704E+02  0.41800000000E+01 0. -1.
         -5    1    3    3    0  502 -0.71300164368E+02  0.63405863842E+02 -0.85557744202E+03  0.86089154293E+03  0.41800000000E+01 0. -1.
        -11    1    1    2    0    0  0.28343910000E+02 -0.83262276173E+02 -0.58485668907E+02  0.10562460573E+03  0.00000000000E+00 0.  1.
         11    1    1    2    0    0  0.65200055007E+02 -0.13723197875E+02  0.42993548060E+01  0.66767190929E+02  0.00000000000E+00 0. -1.
</event>
<event>
 7    1  0.2651429E-009  0.1016354E+03  0.7561462E-02  0.1276894E+00
          2   -1    0    0  501    0  0.00000000000E+00  0.00000000000E+00  0.86721885004E+02  0.86721885004E+02  0.00000000000E+00 0. -1.
         -2   -1    0    0    0  501 -0.00000000000E+00 -0.00000000000E+00 -0.26837354277E+03  0.26837354277E+03  0.00000000000E+00 0.  1.
         25    2    1    2    0    0 -0.29211647097E+02  0.47734330118E+01  0.24440311700E+02  0.13083796312E+03  0.12508052514E+03 0.  0.
          5    1    3    3  502    0  0.33162844515E+02 -0.29945059988E+02  0.37088850120E+02  0.58219722408E+02  0.41800000000E+01 0. -1.
         -5    1    3    3    0  502 -0.62374491612E+02  0.34718493000E+02 -0.12648538420E+02  0.72618240712E+02  0.41800000000E+01 0. -1.
        -11    1    1    2    0    0 -0.12921938287E+02 -0.33489971275E+02 -0.10623362499E+03  0.11213446278E+03  0.00000000000E+00 0.  1.
         11    1    1    2    0    0  0.42133585383E+02  0.28716538263E+02 -0.99858344479E+02  0.11212300187E+03  0.00000000000E+00 0. -1.
</event>
<event>
 7    1  0.2651429E-009  0.8573488E+02  0.7561462E-02  0.1313522E+00
         -2   -1    0    0    0  501 -0.00000000000E+00  0.00000000000E+00  0.55691113074E+02  0.55691113074E+02  0.00000000000E+00 0.  1.
          2   -1    0    0  501    0  0.00000000000E+00 -0.00000000000E+00 -0.33357914998E+03  0.33357914998E+03  0.00000000000E+00 0. -1.
         25    2    1    2    0    0 -0.62603803353E+02  0.21415509325E+02 -0.82622482659E+02  0.16386600683E+03  0.12509090023E+03 0.  0.
          5    1    3    3  502    0  0.60560286843E+01  0.18720739737E+02  0.27455219083E+02  0.34035320398E+02  0.41800000000E+01 0. -1.
         -5    1    3    3    0  502 -0.68659832037E+02  0.26947695873E+01 -0.11007770174E+03  0.12983068643E+03  0.41800000000E+01 0. -1.
        -11    1    1    2    0    0  0.50720486921E+02  0.74821796083E+01 -0.18581852801E+03  0.19276170822E+03  0.00000000000E+00 0. -1.
         11    1    1    2    0    0  0.11883316432E+02 -0.28897688933E+02 -0.94470262319E+01  0.32642547997E+02  0.00000000000E+00 0.  1.
</event>
<event>
 7    1  0.2651429E-009  0.1240958E+03  0.7561462E-02  0.1236489E+00
         -2   -1    0    0    0  501 -0.00000000000E+00  0.00000000000E+00  0.85328790784E+02  0.85328790784E+02  0.00000000000E+00 0. -1.
          2   -1    0    0  501    0  0.00000000000E+00 -0.00000000000E+00 -0.32774671689E+03  0.32774671689E+03  0.00000000000E+00 0.  1.
         25    2    1    2    0    0 -0.13201944902E+02 -0.84616046689E+02 -0.24535074164E+03  0.28840900888E+03  0.12509437745E+03 0.  0.
          5    1    3    3  502    0 -0.25137871931E+02 -0.10130715257E+03 -0.11095941027E+03  0.15239591496E+03  0.41800000000E+01 0.  1.
         -5    1    3    3    0  502  0.11935927029E+02  0.16691105885E+02 -0.13439133137E+03  0.13601309392E+03  0.41800000000E+01 0.  1.
        -11    1    1    2    0    0  0.40082547247E+02  0.70528341254E+01  0.11064754755E+02  0.42175607414E+02  0.00000000000E+00 0. -1.
         11    1    1    2    0    0 -0.26880602344E+02  0.77563212564E+02 -0.81319392153E+01  0.82490891382E+02  0.00000000000E+00 0.  1.
</event>
<event>
 7    1  0.2651429E-009  0.1039062E+03  0.7561462E-02  0.1272290E+00
          2   -1    0    0  501    0  0.00000000000E+00  0.00000000000E+00  0.25092231795E+02  0.25092231795E+02  0.00000000000E+00 0. -1.
         -2   -1    0    0    0  501 -0.00000000000E+00 -0.00000000000E+00 -0.62366964756E+03  0.62366964756E+03  0.00000000000E+00 0.  1.
         25    2    1    2    0    0 -0.56540762433E+02  0.61258403336E+00 -0.40467636362E+03  0.42732645422E+03  0.12509079154E+03 0.  0.
          5    1    3    3  502    0 -0.52566800764E+02 -0.41936062133E+02 -0.35642326550E+03  0.36273532836E+03  0.41800000000E+01 0.  1.
         -5    1    3    3    0  502 -0.39739616697E+01  0.42548646167E+02 -0.48253098124E+02  0.64591125865E+02  0.41800000000E+01 0.  1.
        -11    1    1    2    0    0  0.34443315282E+02 -0.39724401104E+02 -0.14864289604E+03  0.15766762685E+03  0.00000000000E+00 0. -1.
         11    1    1    2    0    0  0.22097447151E+02  0.39111817071E+02 -0.45258156102E+02  0.63767798291E+02  0.00000000000E+00 0.  1.
</event>
<event>
 7    1  0.2651429E-009  0.1005310E+03  0.7561462E-02  0.1279183E+00
         -2   -1    0    0    0  501 -0.00000000000E+00  0.00000000000E+00  0.36129790687E+02  0.36129790687E+02  0.00000000000E+00 0.  1.
          2   -1    0    0  501    0  0.00000000000E+00 -0.00000000000E+00 -0.34227830796E+03  0.34227830796E+03  0.00000000000E+00 0. -1.
         25    2    1    2    0    0  0.28531160743E+02 -0.13370604523E+02 -0.18073143463E+03  0.22204360513E+03  0.12508681352E+03 0.  0.
          5    1    3    3  502    0  0.23982449797E+02  0.54929508485E+02 -0.92383994439E+02  0.11020292024E+03  0.41800000000E+01 0.  1.
         -5    1    3    3    0  502  0.45487109460E+01 -0.68300113008E+02 -0.88347440190E+02  0.11184068489E+03  0.41800000000E+01 0.  1.
        -11    1    1    2    0    0 -0.48625692452E+02  0.67235038471E+00 -0.12324805292E+03  0.13249525489E+03  0.00000000000E+00 0. -1.
         11    1    1    2    0    0  0.20094531709E+02  0.12698254138E+02 -0.21690297294E+01  0.23869238629E+02  0.00000000000E+00 0.  1.
</event>
<event>
 7    1  0.2651429E-009  0.1170682E+03  0.7561462E-02  0.1248013E+00
          2   -1    0    0  501    0  0.00000000000E+00  0.00000000000E+00  0.51440378539E+03  0.51440378539E+03  0.00000000000E+00 0. -1.
         -2   -1    0    0    0  501 -0.00000000000E+00 -0.00000000000E+00 -0.38655994517E+02  0.38655994517E+02  0.00000000000E+00 0.  1.
         25    2    1    2    0    0 -0.85995215604E+02  0.19092431608E+02  0.29289044666E+03  0.33044154542E+03  0.12508838132E+03 0.  0.
          5    1    3    3  502    0 -0.10900513864E+03  0.29045039034E+02  0.16417120327E+03  0.19923702198E+03  0.41800000000E+01 0.  1.
         -5    1    3    3    0  502  0.23009923034E+02 -0.99526074258E+01  0.12871924339E+03  0.13120452344E+03  0.41800000000E+01 0.  1.
        -11    1    1    2    0    0  0.30636720332E+02  0.11333205477E+02  0.39708602376E+01  0.32906198658E+02  0.00000000000E+00 0.  1.
         11    1    1    2    0    0  0.55358495272E+02 -0.30425637085E+02  0.17888648397E+03  0.18971203583E+03  0.00000000000E+00 0. -1.
</event>
<event>
 7    1  0.2651429E-009  0.2850548E+03  0.7561462E-02  0.1092960E+00
          2   -1    0    0  501    0  0.00000000000E+00  0.00000000000E+00  0.72834698436E+03  0.72834698436E+03  0.00000000000E+00 0. -1.
         -2   -1    0    0    0  501 -0.00000000000E+00 -0.00000000000E+00 -0.14024682743E+03  0.14024682743E+03  0.00000000000E+00 0.  1.
         25    2    1    2    0    0  0.22838075386E+03  0.16360290840E+03  0.44234259228E+03  0.53873868949E+03  0.12509486895E+03 0.  0.
          5    1    3    3  502    0  0.20020602922E+03  0.16409402272E+03  0.43953219770E+03  0.51011305379E+03  0.41800000000E+01 0. -1.
         -5    1    3    3    0  502  0.28174724642E+02 -0.49111431800E+00  0.28103945826E+01  0.28625635707E+02  0.41800000000E+01 0. -1.
        -11    1    1    2    0    0 -0.15891550621E+03 -0.13119710697E+03  0.59568339349E+02  0.21451155223E+03  0.00000000000E+00 0.  1.
         11    1    1    2    0    0 -0.69465247654E+02 -0.32405801437E+02  0.86189225296E+02  0.11534357007E+03  0.00000000000E+00 0. -1.
</event>
<event>
 7    1  0.2651429E-009  0.1369976E+03  0.7561462E-02  0.1217427E+00
         -2   -1    0    0    0  501 -0.00000000000E+00  0.00000000000E+00  0.14486781321E+03  0.14486781321E+03  0.00000000000E+00 0.  1.
          2   -1    0    0  501    0  0.00000000000E+00 -0.00000000000E+00 -0.17141440282E+03  0.17141440282E+03  0.00000000000E+00 0. -1.
         25    2    1    2    0    0 -0.80294887551E+02 -0.42395698204E+02 -0.81679194596E+02  0.17482569580E+03  0.12509144211E+03 0.  0.
          5    1    3    3  502    0  0.30967410441E+02  0.15927929228E+01 -0.33331297553E+02  0.45716138237E+02  0.41800000000E+01 0.  1.
         -5    1    3    3    0  502 -0.11126229799E+03 -0.43988491127E+02 -0.48347897043E+02  0.12910955756E+03  0.41800000000E+01 0.  1.
        -11    1    1    2    0    0  0.86833298297E+02  0.59110349498E+02  0.27630912566E+02  0.10861640042E+03  0.00000000000E+00 0. -1.
         11    1    1    2    0    0 -0.65384107465E+01 -0.16714651294E+02  0.27501692417E+02  0.32840119804E+02  0.00000000000E+00 0.  1.
</event>
<event>
 7    1  0.2651429E-009  0.9751380E+02  0.7561462E-02  0.1285613E+00
         -1   -1    0    0    0  501 -0.00000000000E+00  0.00000000000E+00  0.11433708348E+03  0.11433708348E+03  0.00000000000E+00 0.  1.
          1   -1    0    0  501    0  0.00000000000E+00 -0.00000000000E+00 -0.34038721965E+03  0.34038721965E+03  0.00000000000E+00 0. -1.
         25    2    1    2    0    0 -0.27709515254E+02 -0.41963682206E+02  0.62174692010E+02  0.14846538609E+03  0.12509001032E+03 0.  0.
          5    1    3    3  502    0 -0.48468933203E+02 -0.60176183587E+02 -0.31235129796E+01  0.77444427109E+02  0.41800000000E+01 0. -1.
         -5    1    3    3    0  502  0.20759417949E+02  0.18212501380E+02  0.65298204990E+02  0.71020958984E+02  0.41800000000E+01 0. -1.
        -11    1    1    2    0    0  0.52307748248E+02  0.17850629208E+02 -0.94339176896E+02  0.10933721136E+03  0.00000000000E+00 0.  1.
         11    1    1    2    0    0 -0.24598232994E+02  0.24113052998E+02 -0.19388565129E+03  0.19692170568E+03  0.00000000000E+00 0. -1.
</event>
<event>
 7    1  0.2651429E-009  0.1068676E+03  0.7561462E-02  0.1266483E+00
         -1   -1    0    0    0  501 -0.00000000000E+00  0.00000000000E+00  0.67503894198E+02  0.67503894198E+02  0.00000000000E+00 0.  1.
          1   -1    0    0  501    0  0.00000000000E+00 -0.00000000000E+00 -0.27688827402E+03  0.27688827402E+03  0.00000000000E+00 0. -1.
         25    2    1    2    0    0  0.59809171380E+02 -0.14045240473E+02 -0.43062724812E+02  0.14586447426E+03  0.12509053051E+03 0.  0.
          5    1    3    3  502    0 -0.16829354454E+02  0.37248084984E+02  0.56708675795E+01  0.41476235912E+02  0.41800000000E+01 0.  1.
         -5    1    3    3    0  502  0.76638525833E+02 -0.51293325457E+02 -0.48733592392E+02  0.10438823835E+03  0.41800000000E+01 0.  1.
        -11    1    1    2    0    0 -0.40831300873E+02  0.33751779458E+02 -0.32967018730E+02  0.62395529259E+02  0.00000000000E+00 0.  1.
         11    1    1    2    0    0 -0.18977870506E+02 -0.19706538985E+02 -0.13335463628E+03  0.13613216470E+03  0.00000000000E+00 0. -1.
</event>
<event>
 7    1  0.2651429E-009  0.1396538E+03  0.7561462E-02  0.1213796E+00
          2   -1    0    0  501    0  0.00000000000E+00  0.00000000000E+00  0.20091530689E+03  0.20091530689E+03  0.00000000000E+00 0. -1.
         -2   -1    0    0    0  501 -0.00000000000E+00 -0.00000000000E+00 -0.15938417888E+03  0.15938417888E+03  0.00000000000E+00 0.  1.
         25    2    1    2    0    0  0.11787099112E+02  0.87702601045E+02 -0.77706617146E+02  0.17180204052E+03  0.12508773258E+03 0.  0.
          5    1    3    3  502    0 -0.15647983662E+02  0.10264346088E+03 -0.19669157256E+02  0.10575862896E+03  0.41800000000E+01 0. -1.
         -5    1    3    3    0  502  0.27435082774E+02 -0.14940859831E+02 -0.58037459890E+02  0.66043411555E+02  0.41800000000E+01 0. -1.
        -11    1    1    2    0    0 -0.31873064379E+02  0.17780808544E+02  0.45069743615E+02  0.57994233980E+02  0.00000000000E+00 0. -1.
         11    1    1    2    0    0  0.20085965267E+02 -0.10548340959E+03  0.74168001542E+02  0.13050321127E+03  0.00000000000E+00 0.  1.
</event>
<event>
 6    1  0.2651429E-009  0.1711617E+03  0.7561462E-02  0.1176642E+00
         -1   -1    0    0    0  501 -0.00000000000E+00  0.00000000000E+00  0.23685763513E+02  0.23685763513E+02  0.00000000000E+00 0.  1.
          1   -1    0    0  501    0  0.00000000000E+00 -0.00000000000E+00 -0.13374714632E+04  0.13374714632E+04  0.00000000000E+00 0. -1.
          5    1    1    2  502    0  0.62474919892E+02  0.60149697353E+01 -0.19445408606E+03  0.20437504608E+03  0.41800000000E+01 0.  1.
         -5    1    1    2    0  502  0.20314431953E+02 -0.11301452431E+03 -0.63174279046E+03  0.64210698839E+03  0.41800000000E+01 0.  1.
        -11    1    1    2    0    0 -0.98381293363E+02  0.60548144119E+02 -0.32919444078E+03  0.34887524486E+03  0.00000000000E+00 0.  1.
         11    1    1    2    0    0  0.15591941518E+02  0.46451410460E+02 -0.15839438235E+03  0.16579994733E+03  0.00000000000E+00 0. -1.
</event>
<event>
 7    1  0.2651429E-009  0.9943789E+02  0.7561462E-02  0.1281482E+00
         -1   -1    0    0    0  501 -0.00000000000E+00  0.00000000000E+00  0.54902988912E+02  0.54902988912E+02  0.00000000000E+00 0.  1.
          1   -1    0    0  501    0  0.00000000000E+00 -0.00000000000E+00 -0.24360461176E+03  0.24360461176E+03  0.00000000000E+00 0. -1.
         25    2    1    2    0    0  0.78288468614E+01  0.40976937366E+02 -0.10837696403E+03  0.17068234864E+03  0.12508596071E+03 0.  0.
          5    1    3    3  502    0 -0.23828738883E+02  0.58294692177E+02 -0.11736624800E+03  0.13326060372E+03  0.41800000000E+01 0. -1.
         -5    1    3    3    0  502  0.31657585745E+02 -0.17317754811E+02  0.89892839711E+01  0.37421744924E+02  0.41800000000E+01 0. -1.
        -11    1    1    2    0    0  0.21203250526E+01 -0.69342329405E+02 -0.56174010828E+02  0.89265748852E+02  0.00000000000E+00 0.  1.
         11    1    1    2    0    0 -0.99491719139E+01  0.28365392038E+02 -0.24150647994E+02  0.38559503184E+02  0.00000000000E+00 0. -1.
</event>
<event>
 7    1  0.2651429E-009  0.1093243E+03  0.7561462E-02  0.1261826E+00
         -1   -1    0    0    0  501 -0.00000000000E+00  0.00000000000E+00  0.26787782735E+02  0.26787782735E+02  0.00000000000E+00 0.  1.
          1   -1    0    0  501    0  0.00000000000E+00 -0.00000000000E+00 -0.61532042623E+03  0.61532042623E+03  0.00000000000E+00 0. -1.
         25    2    1    2    0    0 -0.58754396442E+02 -0.64749513122E+01 -0.41589429139E+03  0.43830329332E+03  0.12509081193E+03 0.  0.
          5    1    3    3  502    0 -0.31127652770E+01  0.50102422708E+02 -0.24092760912E+03  0.24613721235E+03  0.41800000000E+01 0.  1.
         -5    1    3    3    0  502 -0.55641631165E+02 -0.56577374020E+02 -0.17496668227E+03  0.19216608097E+03  0.41800000000E+01 0.  1.
        -11    1    1    2    0    0  0.21487886554E+02 -0.29844108338E+02 -0.13409967443E+03  0.13905079200E+03  0.00000000000E+00 0. -1.
         11    1    1    2    0    0  0.37266509888E+02  0.36319059650E+02 -0.38538677671E+02  0.64754123650E+02  0.00000000000E+00 0.  1.
</event>
<event>
 7    1  0.2651429E-009  0.1521847E+03  0.7561462E-02  0.1197814E+00
         -1   -1    0    0    0  501 -0.00000000000E+00  0.00000000000E+00  0.29156812422E+02  0.29156812422E+02  0.00000000000E+00 0.  1.
          1   -1    0    0  501    0  0.00000000000E+00 -0.00000000000E+00 -0.13405915399E+04  0.13405915399E+04  0.00000000000E+00 0. -1.
         25    2    1    2    0    0 -0.84568663910E+02 -0.80928507391E+02 -0.10915408700E+04  0.11049027408E+04  0.12508922246E+03 0.  0.
          5    1    3    3  502    0  0.95036424106E+01 -0.71866561922E+02 -0.59656892530E+03  0.60097177719E+03  0.41800000000E+01 0.  1.
         -5    1    3    3    0  502 -0.94072306321E+02 -0.90619454691E+01 -0.49497194466E+03  0.50393096359E+03  0.41800000000E+01 0.  1.
        -11    1    1    2    0    0 -0.18682542068E+01  0.42535737536E+02 -0.28141310263E+02  0.51036385891E+02  0.00000000000E+00 0.  1.
         11    1    1    2    0    0  0.86436918117E+02  0.38392769856E+02 -0.19175254721E+03  0.21380922560E+03  0.00000000000E+00 0. -1.
</event>
<event>
 7    1  0.3313102E-009  0.1563923E+03  0.7561462E-02  0.1192831E+00
          2   -1    0    0  501    0  0.00000000000E+00  0.00000000000E+00  0.43508471061E+03  0.43508471061E+03  0.00000000000E+00 0. -1.
         -2   -1    0    0    0  501 -0.00000000000E+00 -0.00000000000E+00 -0.62805029326E+02  0.62805029326E+02  0.00000000000E+00 0.  1.
         25    2    1    2    0    0 -0.85316145320E+02 -0.87309222758E+02  0.23322579129E+03  0.29145124644E+03  0.12509122389E+03 0.  0.
          5    1    3    3  502    0 -0.33933062989E+02  0.29581948203E+02  0.43631198720E+02  0.62830711639E+02  0.41800000000E+01 0.  1.
         -5    1    3    3    0  502 -0.51383082331E+02 -0.11689117096E+03  0.18959459257E+03  0.22862053480E+03  0.41800000000E+01 0.  1.
        -11    1    1    2    0    0  0.42758060811E+02  0.87358314754E+02  0.53792185691E+02  0.11114551796E+03  0.00000000000E+00 0.  1.
         11    1    1    2    0    0  0.42558084509E+02 -0.49091995851E-01  0.85261704298E+02  0.95292975538E+02  0.00000000000E+00 0. -1.
</event>
<event>
 7    1  0.2651429E-009  0.1376683E+03  0.7561462E-02  0.1216501E+00
         -2   -1    0    0    0  501 -0.00000000000E+00  0.00000000000E+00  0.43301020163E+02  0.43301020163E+02  0.00000000000E+00 0.  1.
          2   -1    0    0  501    0  0.00000000000E+00 -0.00000000000E+00 -0.54553991288E+03  0.54553991288E+03  0.00000000000E+00 0. -1.
         25    2    1    2    0    0  0.51701457661E+02 -0.94563544163E+02 -0.27895798420E+03  0.32416035188E+03  0.12508825752E+03 0.  0.
          5    1    3    3  502    0  0.87672114597E+02 -0.89141408268E+02 -0.24030127268E+03  0.27091468103E+03  0.41800000000E+01 0.  1.
         -5    1    3    3    0  502 -0.35970656935E+02 -0.54221358943E+01 -0.38656711526E+02  0.53245670847E+02  0.41800000000E+01 0.  1.
        -11    1    1    2    0    0 -0.82984624489E+01  0.52591709966E+02 -0.18657010037E+03  0.19401843930E+03  0.00000000000E+00 0.  1.
         11    1    1    2    0    0 -0.43402995213E+02  0.41971834197E+02 -0.36710808149E+02  0.70662141874E+02  0.00000000000E+00 0. -1.
</event>
<event>
 7    1  0.2651429E-009  0.9034552E+02  0.7561462E-02  0.1302017E+00
         -1   -1    0    0    0  501 -0.00000000000E+00  0.00000000000E+00  0.39518532001E+02  0.39518532001E+02  0.00000000000E+00 0.  1.
          1   -1    0    0  501    0  0.00000000000E+00 -0.00000000000E+00 -0.43955304048E+03  0.43955304048E+03  0.00000000000E+00 0. -1.
         25    2    1    2    0    0  0.12017699625E+02  0.74799493957E+02 -0.20652099936E+03  0.25302722123E+03  0.12502984486E+03 0.  0.
          5    1    3    3  502    0 -0.26186694014E+02  0.43280526294E+02 -0.19567807386E+03  0.20215421808E+03  0.41800000000E+01 0. -1.
         -5    1    3    3    0  502  0.38204393639E+02  0.31518967662E+02 -0.10842925506E+02  0.50873003148E+02  0.41800000000E+01 0. -1.
        -11    1    1    2    0    0  0.40230282252E+01 -0.53056830268E+02 -0.31585853077E+02  0.61877929092E+02  0.00000000000E+00 0. -1.
         11    1    1    2    0    0 -0.16040727850E+02 -0.21742663689E+02 -0.16192765604E+03  0.16416642216E+03  0.00000000000E+00 0.  1.
</event>
<event>
 7    1  0.2651429E-009  0.2139699E+03  0.7561462E-02  0.1138460E+00
         -1   -1    0    0    0  501 -0.00000000000E+00  0.00000000000E+00  0.66318309316E+03  0.66318309316E+03  0.00000000000E+00 0.  1.
          1   -1    0    0  501    0  0.00000000000E+00 -0.00000000000E+00 -0.76146088466E+02  0.76146088466E+02  0.00000000000E+00 0. -1.
         25    2    1    2    0    0  0.51681031747E+02  0.18853934324E+03  0.27462919437E+03  0.35956334829E+03  0.12508634634E+03 0.  0.
          5    1    3    3  502    0  0.44775602464E+00 -0.16142050012E+02  0.55112917432E+01  0.17567384573E+02  0.41800000000E+01 0. -1.
         -5    1    3    3    0  502  0.51233275722E+02  0.20468139325E+03  0.26911790263E+03  0.34199596371E+03  0.41800000000E+01 0. -1.
        -11    1    1    2    0    0 -0.74150296899E+01 -0.10853365524E+03  0.96985466825E+02  0.14574195608E+03  0.00000000000E+00 0.  1.
         11    1    1    2    0    0 -0.44266002057E+02 -0.80005687991E+02  0.21542234350E+03  0.23402387726E+03  0.00000000000E+00 0. -1.
</event>
<event>
 7    1  0.2792267E-009  0.1544003E+03  0.7561462E-02  0.1195168E+00
          2   -1    0    0  501    0  0.00000000000E+00  0.00000000000E+00  0.52463726842E+03  0.52463726842E+03  0.00000000000E+00 0.  1.
         -2   -1    0    0    0  501 -0.00000000000E+00 -0.00000000000E+00 -0.56570594379E+02  0.56570594379E+02  0.00000000000E+00 0. -1.
         25    2    1    2    0    0 -0.79803332260E+02  0.10205050629E+03  0.19589019086E+03  0.26608674393E+03  0.12508521394E+03 0.  0.
          5    1    3    3  502    0 -0.10166008937E+03  0.34300591754E+02  0.13361708976E+03  0.17141267002E+03  0.41800000000E+01 0.  1.
         -5    1    3    3    0  502  0.21856757111E+02  0.67749914541E+02  0.62273101099E+02  0.94674073918E+02  0.41800000000E+01 0.  1.
        -11    1    1    2    0    0  0.40153501759E+02 -0.61134100074E+02  0.23730443420E+03  0.24832051141E+03  0.00000000000E+00 0.  1.
         11    1    1    2    0    0  0.39649830500E+02 -0.40916406220E+02  0.34872048983E+02  0.66800607460E+02  0.00000000000E+00 0. -1.
</event>
<event>
 7    1  0.2651429E-009  0.4170238E+03  0.7561462E-02  0.1038039E+00
         -2   -1    0    0    0  501 -0.00000000000E+00  0.00000000000E+00  0.10851849003E+03  0.10851849003E+03  0.00000000000E+00 0.  1.
          2   -1    0    0  501    0  0.00000000000E+00 -0.00000000000E+00 -0.17792502916E+04  0.17792502916E+04  0.00000000000E+00 0. -1.
         25    2    1    2    0    0 -0.52894046898E+02 -0.40335766915E+03 -0.57570840088E+03  0.71594873981E+03  0.12508895123E+03 0.  0.
          5    1    3    3  502    0 -0.25481942345E+02 -0.38324351537E+03 -0.55788987963E+03  0.67733559751E+03  0.41800000000E+01 0.  1.
         -5    1    3    3    0  502 -0.27412104554E+02 -0.20114153782E+02 -0.17818521254E+02  0.38613142298E+02  0.41800000000E+01 0.  1.
        -11    1    1    2    0    0  0.12565984311E+02  0.34214661922E+03 -0.86063449573E+03  0.92623644294E+03  0.00000000000E+00 0.  1.
         11    1    1    2    0    0  0.40328062587E+02  0.61211049935E+02 -0.23438890492E+03  0.24558359884E+03  0.00000000000E+00 0. -1.
</event>
<event>
 7    1  0.2651429E-009  0.1144408E+03  0.7561462E-02  0.1252560E+00
          1   -1    0    0  501    0  0.00000000000E+00  0.00000000000E+00  0.45966587075E+03  0.45966587075E+03  0.00000000000E+00 0. -1.
         -1   -1    0    0    0  501 -0.00000000000E+00 -0.00000000000E+00 -0.53965331506E+02  0.53965331506E+02  0.00000000000E+00 0.  1.
         25    2    1    2    0    0  0.90700301398E+02 -0.34306161064E+02  0.31609765480E+03  0.35350873465E+03  0.12508893133E+03 0.  0.
          5    1    3    3  502    0  0.60032280928E+02 -0.71761628497E+00  0.29858815393E+03  0.30459275729E+03  0.41800000000E+01 0.  1.
         -5    1    3    3    0  502  0.30668020470E+02 -0.33588544779E+02  0.17509500869E+02  0.48915977356E+02  0.41800000000E+01 0.  1.
        -11    1    1    2    0    0 -0.59368020155E+02 -0.18013510582E+02  0.15116506342E+02  0.63855752635E+02  0.00000000000E+00 0.  1.
         11    1    1    2    0    0 -0.31332281243E+02  0.52319671647E+02  0.74486378100E+02  0.96266714973E+02  0.00000000000E+00 0. -1.
</event>
<event>
 7    1  0.2651429E-009  0.1322248E+03  0.7561462E-02  0.1224191E+00
         -1   -1    0    0    0  501 -0.00000000000E+00  0.00000000000E+00  0.48995818931E+02  0.48995818931E+02  0.00000000000E+00 0.  1.
          1   -1    0    0  501    0  0.00000000000E+00 -0.00000000000E+00 -0.39007309437E+03  0.39007309437E+03  0.00000000000E+00 0. -1.
         25    2    1    2    0    0  0.57003303434E+02  0.52964718466E+02 -0.13641227500E+03  0.20077666123E+03  0.12509324889E+03 0.  0.
          5    1    3    3  502    0  0.81972301952E+02  0.76356847672E+02 -0.11254412924E+03  0.15885049544E+03  0.41800000000E+01 0.  1.
         -5    1    3    3    0  502 -0.24968998518E+02 -0.23392129206E+02 -0.23868145761E+02  0.41926165790E+02  0.41800000000E+01 0.  1.
        -11    1    1    2    0    0 -0.65216463273E+02 -0.71999861614E+02 -0.18829198626E+03  0.21187505574E+03  0.00000000000E+00 0. -1.
         11    1    1    2    0    0  0.82131598382E+01  0.19035143148E+02 -0.16373014185E+02  0.26417196345E+02  0.00000000000E+00 0.  1.
</event>
<event>
 7    1  0.2816946E-009  0.8145743E+02  0.7561462E-02  0.1324966E+00
         -2   -1    0    0    0  501 -0.00000000000E+00  0.00000000000E+00  0.28884995204E+03  0.28884995204E+03  0.00000000000E+00 0.  1.
          2   -1    0    0  501    0  0.00000000000E+00 -0.00000000000E+00 -0.55807071000E+02  0.55807071000E+02  0.00000000000E+00 0. -1.
         25    2    1    2    0    0  0.36782381225E+02 -0.30039358761E+02  0.19168913338E+03  0.23376815215E+03  0.12509004141E+03 0.  0.
          5    1    3    3  502    0 -0.33279475145E+02 -0.24996445080E+02  0.14092114693E+03  0.14699859790E+03  0.41800000000E+01 0. -1.
         -5    1    3    3    0  502  0.70061856370E+02 -0.50429136809E+01  0.50767986451E+02  0.86769554249E+02  0.41800000000E+01 0. -1.
        -11    1    1    2    0    0 -0.23518058303E+02  0.77189506916E+01 -0.27680481384E+02  0.37133412391E+02  0.00000000000E+00 0. -1.
         11    1    1    2    0    0 -0.13264322922E+02  0.22320408069E+02  0.69034229048E+02  0.73755458504E+02  0.00000000000E+00 0.  1.
</event>
<event>
 7    1  0.2651429E-009  0.1422744E+03  0.7561462E-02  0.1210301E+00
          2   -1    0    0  501    0  0.00000000000E+00  0.00000000000E+00  0.58739365915E+03  0.58739365915E+03  0.00000000000E+00 0. -1.
         -2   -1    0    0    0  501 -0.00000000000E+00 -0.00000000000E+00 -0.46191242191E+02  0.46191242191E+02  0.00000000000E+00 0.  1.
         25    2    1    2    0    0  0.82995363352E+02 -0.63292457719E+02  0.41362457020E+03  0.44455279853E+03  0.12509092717E+03 0.  0.
          5    1    3    3  502    0  0.59665545158E+02 -0.97065782375E+02  0.23463623554E+03  0.26087042533E+03  0.41800000000E+01 0.  1.
         -5    1    3    3    0  502  0.23329818194E+02  0.33773324655E+02  0.17898833467E+03  0.18368237319E+03  0.41800000000E+01 0.  1.
        -11    1    1    2    0    0 -0.25212252807E+02 -0.16958782544E+02  0.65680356398E+02  0.72368274911E+02  0.00000000000E+00 0. -1.
         11    1    1    2    0    0 -0.57783110545E+02  0.80251240264E+02  0.61897490353E+02  0.11666382790E+03  0.00000000000E+00 0.  1.
</event>
<event>
 7    1  0.2651429E-009  0.1192566E+03  0.7561462E-02  0.1244329E+00
         -1   -1    0    0    0  501 -0.00000000000E+00  0.00000000000E+00  0.14667530348E+02  0.14667530348E+02  0.00000000000E+00 0.  1.
          1   -1    0    0  501    0  0.00000000000E+00 -0.00000000000E+00 -0.11289005810E+04  0.11289005810E+04  0.00000000000E+00 0. -1.
         25    2    1    2    0    0  0.59662723433E+02 -0.39908452362E+02 -0.60704837282E+03  0.62394509779E+03  0.12508969970E+03 0.  0.
          5    1    3    3  502    0  0.40727403421E+02  0.32311167170E+02 -0.40789260446E+03  0.41121354804E+03  0.41800000000E+01 0. -1.
         -5    1    3    3    0  502  0.18935320012E+02 -0.72219619532E+02 -0.19915576836E+03  0.21273154975E+03  0.41800000000E+01 0. -1.
        -11    1    1    2    0    0 -0.60673672059E+02 -0.10145281227E+02 -0.31998574833E+03  0.32584520918E+03  0.00000000000E+00 0. -1.
         11    1    1    2    0    0  0.10109486265E+01  0.50053733589E+02 -0.18719892950E+03  0.19377780438E+03  0.00000000000E+00 0.  1.
</event>
<event>
 7    1  0.2651429E-009  0.1711346E+03  0.7561462E-02  0.1176670E+00
         -1   -1    0    0    0  501 -0.00000000000E+00  0.00000000000E+00  0.54252768420E+03  0.54252768420E+03  0.00000000000E+00 0.  1.
          1   -1    0    0  501    0  0.00000000000E+00 -0.00000000000E+00 -0.12951995885E+03  0.12951995885E+03  0.00000000000E+00 0. -1.
         25    2    1    2    0    0  0.13090189892E+03 -0.64795429184E+02  0.45562031060E+03  0.49454061132E+03  0.12508714574E+03 0.  0.
          5    1    3    3  502    0  0.55323526607E+02 -0.95578286232E+02  0.25507252063E+03  0.27798446823E+03  0.41800000000E+01 0.  1.
         -5    1    3    3    0  502  0.75578372317E+02  0.30782857048E+02  0.20054778997E+03  0.21655614309E+03  0.41800000000E+01 0.  1.
        -11    1    1    2    0    0 -0.76449118991E+02  0.18712645161E+02 -0.65705161877E+02  0.10252706560E+03  0.00000000000E+00 0. -1.
         11    1    1    2    0    0 -0.54452779933E+02  0.46082784023E+02  0.23092576621E+02  0.74979966129E+02  0.00000000000E+00 0.  1.
</event>
<event>
 7    1  0.2651429E-009  0.1025402E+03  0.7561462E-02  0.1275043E+00
         -2   -1    0    0    0  501 -0.00000000000E+00  0.00000000000E+00  0.43925549085E+02  0.43925549085E+02  0.00000000000E+00 0.  1.
          2   -1    0    0  501    0  0.00000000000E+00 -0.00000000000E+00 -0.26910302243E+03  0.26910302243E+03  0.00000000000E+00 0. -1.
         25    2    1    2    0    0 -0.93823424530E+00 -0.74201259695E+01 -0.12809904858E+03  0.17919582817E+03  0.12508333236E+03 0.  0.
          5    1    3    3  502    0 -0.48489235447E+02  0.32827322116E+02 -0.85100943219E+02  0.10338511483E+03  0.41800000000E+01 0. -1.
         -5    1    3    3    0  502  0.47551001202E+02 -0.40247448085E+02 -0.42998105361E+02  0.75810713342E+02  0.41800000000E+01 0. -1.
        -11    1    1    2    0    0 -0.36356481563E+02 -0.16189479551E+02 -0.18908346227E+02  0.44061531485E+02  0.00000000000E+00 0.  1.
         11    1    1    2    0    0  0.37294715808E+02  0.23609605521E+02 -0.78170078539E+02  0.89771211861E+02  0.00000000000E+00 0. -1.
</event>
<event>
 7    1  0.2651429E-009  0.7874039E+02  0.7561462E-02  0.1332665E+00
          1   -1    0    0  501    0  0.00000000000E+00  0.00000000000E+00  0.12083227624E+03  0.12083227624E+03  0.00000000000E+00 0. -1.
         -1   -1    0    0    0  501 -0.00000000000E+00 -0.00000000000E+00 -0.11565837396E+03  0.11565837396E+03  0.00000000000E+00 0.  1.
         25    2    1    2    0    0  0.44226355013E+02  0.10302539549E+02 -0.12786867185E+02  0.13365799200E+03  0.12505535596E+03 0.  0.
          5    1    3    3  502    0 -0.42482408710E+01 -0.28877418651E+02 -0.52088091930E+02  0.59854779085E+02  0.41800000000E+01 0.  1.
         -5    1    3    3    0  502  0.48474595884E+02  0.39179958200E+02  0.39301224745E+02  0.73803212918E+02  0.41800000000E+01 0.  1.
        -11    1    1    2    0    0 -0.53032620434E+02 -0.15562113889E+02 -0.23547362247E+02  0.60075922694E+02  0.00000000000E+00 0.  1.
         11    1    1    2    0    0  0.88062654206E+01  0.52595743404E+01  0.41508131715E+02  0.42756735509E+02  0.00000000000E+00 0. -1.
</event>
<event>
 7    1  0.2696996E-009  0.9246668E+02  0.7561462E-02  0.1296986E+00
          1   -1    0    0  501    0  0.00000000000E+00  0.00000000000E+00  0.23546488870E+03  0.23546488870E+03  0.00000000000E+00 0. -1.
         -1   -1    0    0    0  501 -0.00000000000E+00 -0.00000000000E+00 -0.66754850971E+02  0.66754850971E+02  0.00000000000E+00 0.  1.
         25    2    1    2    0    0  0.60693112170E+01 -0.45524703661E+02  0.14710767022E+03  0.19848880921E+03  0.12509118899E+03 0.  0.
          5    1    3    3  502    0 -0.10278426224E+02 -0.67544384287E+02  0.24375333302E+02  0.72660299807E+02  0.41800000000E+01 0. -1.
         -5    1    3    3    0  502  0.16347737441E+02  0.22019680627E+02  0.12273233692E+03  0.12582850941E+03  0.41800000000E+01 0. -1.
        -11    1    1    2    0    0  0.26742098741E+02  0.48923495427E+02  0.37419243825E+02  0.67147956471E+02  0.00000000000E+00 0. -1.
         11    1    1    2    0    0 -0.32811409958E+02 -0.33987917659E+01 -0.15816876320E+02  0.36582973982E+02  0.00000000000E+00 0.  1.
</event>
<event>
 7    1  0.2651429E-009  0.9210577E+02  0.7561462E-02  0.1297831E+00
          2   -1    0    0  501    0  0.00000000000E+00  0.00000000000E+00  0.52144320001E+02  0.52144320001E+02  0.00000000000E+00 0. -1.
         -2   -1    0    0    0  501 -0.00000000000E+00 -0.00000000000E+00 -0.31335361716E+03  0.31335361716E+03  0.00000000000E+00 0.  1.
         25    2    1    2    0    0 -0.15695259062E+02 -0.39864122269E+02 -0.21545236050E+03  0.25278694366E+03  0.12508409108E+03 0.  0.
          5    1    3    3  502    0 -0.36614138283E+02 -0.75023451719E+02 -0.18011702945E+03  0.19856668937E+03  0.41800000000E+01 0. -1.
         -5    1    3    3    0  502  0.20918879221E+02  0.35159329450E+02 -0.35335331043E+02  0.54220254289E+02  0.41800000000E+01 0. -1.
        -11    1    1    2    0    0 -0.13584342133E+02  0.63409228876E+01  0.24981534786E+02  0.29134493895E+02  0.00000000000E+00 0. -1.
         11    1    1    2    0    0  0.29279601195E+02  0.33523199382E+02 -0.70738471447E+02  0.83576499601E+02  0.00000000000E+00 0.  1.
</event>
<event>
 7    1  0.2651429E-009  0.3128881E+03  0.7561462E-02  0.1078970E+00
         -2   -1    0    0    0  501 -0.00000000000E+00  0.00000000000E+00  0.25586902900E+03  0.25586902900E+03  0.00000000000E+00 0.  1.
          2   -1    0    0  501    0  0.00000000000E+00 -0.00000000000E+00 -0.41899606798E+03  0.41899606798E+03  0.00000000000E+00 0. -1.
         25    2    1    2    0    0  0.28484271949E+03  0.10765532976E+03 -0.59219430961E+02  0.33448493855E+03  0.12509271859E+03 0.  0.
          5    1    3    3  502    0  0.18250295462E+03  0.11274012251E+03 -0.81545268579E+02  0.22953162504E+03  0.41800000000E+01 0. -1.
         -5    1    3    3    0  502  0.10233976487E+03 -0.50847927530E+01  0.22325837618E+02  0.10495331351E+03  0.41800000000E+01 0. -1.
        -11    1    1    2    0    0 -0.80025627837E+02 -0.55270345132E+02  0.14085296451E+02  0.98271601889E+02  0.00000000000E+00 0.  1.
         11    1    1    2    0    0 -0.20481709165E+03 -0.52384984627E+02 -0.11799290447E+03  0.24210855654E+03  0.00000000000E+00 0. -1.
</event>
<event>
 7    1  0.2651429E-009  0.1604313E+03  0.7561462E-02  0.1188211E+00
         -2   -1    0    0    0  501 -0.00000000000E+00  0.00000000000E+00  0.44415404369E+03  0.44415404369E+03  0.00000000000E+00 0.  1.
          2   -1    0    0  501    0  0.00000000000E+00 -0.00000000000E+00 -0.69587178214E+02  0.69587178214E+02  0.00000000000E+00 0. -1.
         25    2    1    2    0    0  0.10567017291E+03 -0.87318911543E+02  0.17302509522E+03  0.25373329790E+03  0.12510845346E+03 0.  0.
          5    1    3    3  502    0 -0.24900817669E+02 -0.23618321892E+02  0.11480420857E+02  0.36430046838E+02  0.41800000000E+01 0. -1.
         -5    1    3    3    0  502  0.13057099058E+03 -0.63700589651E+02  0.16154467437E+03  0.21730325106E+03  0.41800000000E+01 0. -1.
        -11    1    1    2    0    0 -0.85288305013E+02  0.51203850401E+02  0.19377414375E+03  0.21781723544E+03  0.00000000000E+00 0.  1.
         11    1    1    2    0    0 -0.20381867899E+02  0.36115061142E+02  0.77676264980E+01  0.42190688567E+02  0.00000000000E+00 0. -1.
</event>
<event>
 7    1  0.2651429E-009  0.1302042E+03  0.7561462E-02  0.1227153E+00
         -2   -1    0    0    0  501 -0.00000000000E+00  0.00000000000E+00  0.10096924311E+03  0.10096924311E+03  0.00000000000E+00 0.  1.
          2   -1    0    0  501    0  0.00000000000E+00 -0.00000000000E+00 -0.17372506699E+03  0.17372506699E+03  0.00000000000E+00 0. -1.
         25    2    1    2    0    0 -0.16115940292E+01 -0.75544078736E+02 -0.57790324240E+02  0.15715195648E+03  0.12509001072E+03 0.  0.
          5    1    3    3  502    0  0.21740357646E+02 -0.10465060166E+03 -0.32187923164E+02  0.11170463901E+03  0.41800000000E+01 0.  1.
         -5    1    3    3    0  502 -0.23351951676E+02  0.29106522928E+02 -0.25602401075E+02  0.45447317466E+02  0.41800000000E+01 0.  1.
        -11    1    1    2    0    0  0.43239045422E+02  0.23383460630E+02 -0.32537405536E-01  0.49156915472E+02  0.00000000000E+00 0. -1.
         11    1    1    2    0    0 -0.41627451393E+02  0.52160618106E+02 -0.14932962233E+02  0.68385438156E+02  0.00000000000E+00 0.  1.
</event>
<event>
 7    1  0.2651429E-009  0.1074864E+03  0.7561462E-02  0.1265297E+00
          1   -1    0    0  501    0  0.00000000000E+00  0.00000000000E+00  0.54455306270E+03  0.54455306270E+03  0.00000000000E+00 0. -1.
         -1   -1    0    0    0  501 -0.00000000000E+00 -0.00000000000E+00 -0.41150442379E+02  0.41150442379E+02  0.00000000000E+00 0.  1.
         25    2    1    2    0    0 -0.87389195145E+02 -0.28852808630E+02  0.26702748994E+03  0.30890181730E+03  0.12508915362E+03 0.  0.
          5    1    3    3  502    0 -0.46625745691E+02 -0.46370974560E+02  0.25409361962E+03  0.26249812832E+03  0.41800000000E+01 0.  1.
         -5    1    3    3    0  502 -0.40763449454E+02  0.17518165930E+02  0.12933870320E+02  0.46403688974E+02  0.41800000000E+01 0.  1.
        -11    1    1    2    0    0  0.58727586133E+02 -0.64081277119E+01  0.31503413777E+02  0.66951165437E+02  0.00000000000E+00 0.  1.
         11    1    1    2    0    0  0.28661609012E+02  0.35260936342E+02  0.20487171660E+03  0.20985052234E+03  0.00000000000E+00 0. -1.
</event>
<event>
 7    1  0.2651429E-009  0.2108256E+03  0.7561462E-02  0.1140914E+00
          1   -1    0    0  501    0  0.00000000000E+00  0.00000000000E+00  0.35044786005E+03  0.35044786005E+03  0.00000000000E+00 0. -1.
         -1   -1    0    0    0  501 -0.00000000000E+00 -0.00000000000E+00 -0.24072446186E+03  0.24072446186E+03  0.00000000000E+00 0.  1.
         25    2    1    2    0    0  0.17261079910E+02  0.19158977634E+03  0.24759814718E+03  0.33758132991E+03  0.12510685248E+03 0.  0.
          5    1    3    3  502    0 -0.48411943455E+01  0.20352635106E+03  0.21365729759E+03  0.29514966704E+03  0.41800000000E+01 0. -1.
         -5    1    3    3    0  502  0.22102274256E+02 -0.11936574719E+02  0.33940849589E+02  0.42431662873E+02  0.41800000000E+01 0. -1.
        -11    1    1    2    0    0 -0.75038939333E+01 -0.43019463698E+02 -0.85052847525E+02  0.95608417794E+02  0.00000000000E+00 0.  1.
         11    1    1    2    0    0 -0.97571859769E+01 -0.14857031264E+03 -0.52821901469E+02  0.15798257420E+03  0.00000000000E+00 0. -1.
</event>
<event>
 7    1  0.2651429E-009  0.9789682E+02  0.7561462E-02  0.1284782E+00
         -2   -1    0    0    0  501 -0.00000000000E+00  0.00000000000E+00  0.35422598802E+03  0.35422598802E+03  0.00000000000E+00 0.  1.
          2   -1    0    0  501    0  0.00000000000E+00 -0.00000000000E+00 -0.49356404228E+02  0.49356404228E+02  0.00000000000E+00 0. -1.
         25    2    1    2    0    0  0.10877660848E+01 -0.26397775881E+02  0.27561603201E+03  0.30382975731E+03  0.12510115315E+03 0.  0.
          5    1    3    3  502    0  0.28645681861E+02 -0.70002297737E+02  0.17473925391E+03  0.19045255586E+03  0.41800000000E+01 0.  1.
         -5    1    3    3    0  502 -0.27557915776E+02  0.43604521856E+02  0.10087677810E+03  0.11337720144E+03  0.41800000000E+01 0.  1.
        -11    1    1    2    0    0  0.30572599110E+02  0.77267637063E+01  0.48815931559E+02  0.58115246431E+02  0.00000000000E+00 0.  1.
         11    1    1    2    0    0 -0.31660365194E+02  0.18671012175E+02 -0.19562379771E+02  0.41637388513E+02  0.00000000000E+00 0. -1.
</event>
<event>
 7    1  0.2651429E-009  0.1068728E+03  0.7561462E-02  0.1266473E+00
          2   -1    0    0  501    0  0.00000000000E+00  0.00000000000E+00  0.18895161340E+03  0.18895161340E+03  0.00000000000E+00 0. -1.
         -2   -1    0    0    0  501 -0.00000000000E+00 -0.00000000000E+00 -0.81162951738E+02  0.81162951738E+02  0.00000000000E+00 0.  1.
         25    2    1    2    0    0 -0.20082266800E+02  0.43841606904E+02  0.98904707962E+02  0.16659940504E+03  0.12509131292E+03 0.  0.
          5    1    3    3  502    0  0.34605436024E+02  0.45108415485E+02  0.42121856946E+01  0.57162227548E+02  0.41800000000E+01 0. -1.
         -5    1    3    3    0  502 -0.54687702824E+02 -0.12668085806E+01  0.94692522267E+02  0.10943717749E+03  0.41800000000E+01 0. -1.
        -11    1    1    2    0    0  0.18916129262E+02  0.25929535850E+02 -0.46581734082E+01  0.32432381275E+02  0.00000000000E+00 0.  1.
         11    1    1    2    0    0  0.11661375374E+01 -0.69771142754E+02  0.13542127105E+02  0.71082778818E+02  0.00000000000E+00 0. -1.
</event>
<event>
 7    1  0.2651429E-009  0.2034015E+03  0.7561462E-02  0.1146900E+00
         -2   -1    0    0    0  501 -0.00000000000E+00  0.00000000000E+00  0.13323930059E+03  0.13323930059E+03  0.00000000000E+00 0.  1.
          2   -1    0    0  501    0  0.00000000000E+00 -0.00000000000E+00 -0.60701558673E+03  0.60701558673E+03  0.00000000000E+00 0. -1.
         25    2    1    2    0    0  0.15255778549E+03  0.12664564178E+03 -0.19043521512E+02  0.23520809418E+03  0.12508874994E+03 0.  0.
          5    1    3    3  502    0  0.98011135410E+02  0.44778260587E+02 -0.65674028740E+02  0.12626094304E+03  0.41800000000E+01 0.  1.
         -5    1    3    3    0  502  0.54546650076E+02  0.81867381197E+02  0.46630507228E+02  0.10894715115E+03  0.41800000000E+01 0.  1.
        -11    1    1    2    0    0 -0.56906364310E+02 -0.29215895675E+02 -0.61306804693E+02  0.88602636308E+02  0.00000000000E+00 0.  1.
         11    1    1    2    0    0 -0.95651421177E+02 -0.97429746109E+02 -0.39342595994E+03  0.41644415683E+03  0.00000000000E+00 0. -1.
</event>
<event>
 7    1  0.2651429E-009  0.1019044E+03  0.7561462E-02  0.1276341E+00
          1   -1    0    0  501    0  0.00000000000E+00  0.00000000000E+00  0.76466335239E+02  0.76466335239E+02  0.00000000000E+00 0. -1.
         -1   -1    0    0    0  501 -0.00000000000E+00 -0.00000000000E+00 -0.21101949774E+03  0.21101949774E+03  0.00000000000E+00 0.  1.
         25    2    1    2    0    0  0.12135475874E+02 -0.30073181883E+02 -0.82442774914E+01  0.12947863071E+03  0.12508030083E+03 0.  0.
          5    1    3    3  502    0 -0.45976705912E+02 -0.17566914333E+02  0.30823828281E+02  0.58224004978E+02  0.41800000000E+01 0. -1.
         -5    1    3    3    0  502  0.58112181786E+02 -0.12506267550E+02 -0.39068105773E+02  0.71254625735E+02  0.41800000000E+01 0. -1.
        -11    1    1    2    0    0  0.10824285945E+02 -0.29262771286E+02 -0.38042631728E+02  0.49200780262E+02  0.00000000000E+00 0.  1.
         11    1    1    2    0    0 -0.22959761819E+02  0.59335953169E+02 -0.88266253279E+02  0.10880642200E+03  0.00000000000E+00 0. -1.
</event>
<event>
 7    1  0.2651429E-009  0.9682716E+02  0.7561462E-02  0.1287113E+00
         -2   -1    0    0    0  501 -0.00000000000E+00  0.00000000000E+00  0.92008797610E+02  0.92008797610E+02  0.00000000000E+00 0.  1.
          2   -1    0    0  501    0  0.00000000000E+00 -0.00000000000E+00 -0.17911662687E+03  0.17911662687E+03  0.00000000000E+00 0. -1.
         25    2    1    2    0    0 -0.19441479226E+02 -0.58186873761E+02 -0.76929884680E+02  0.15915953074E+03  0.12509942317E+03 0.  0.
          5    1    3    3  502    0  0.97511906435E+01 -0.78791359788E+02 -0.61233373272E+01  0.79737894105E+02  0.41800000000E+01 0.  1.
         -5    1    3    3    0  502 -0.29192669870E+02  0.20604486027E+02 -0.70806547353E+02  0.79421636640E+02  0.41800000000E+01 0.  1.
        -11    1    1    2    0    0  0.21868357988E+02  0.20246834290E+01 -0.41981038409E+02  0.47378602870E+02  0.00000000000E+00 0. -1.
         11    1    1    2    0    0 -0.24268787616E+01  0.56162190332E+02  0.31803093833E+02  0.64587290861E+02  0.00000000000E+00 0.  1.
</event>
<event>
 7    1  0.2651429E-009  0.7754491E+02  0.7561462E-02  0.1336167E+00
         -2   -1    0    0    0  501 -0.00000000000E+00  0.00000000000E+00  0.19758138762E+03  0.19758138762E+03  0.00000000000E+00 0.  1.
          2   -1    0    0  501    0  0.00000000000E+00 -0.00000000000E+00 -0.84962089817E+02  0.84962089817E+02  0.00000000000E+00 0. -1.
         25    2    1    2    0    0  0.56363163574E+02  0.25385541213E+02  0.19378041888E+02  0.14086855850E+03  0.12508880988E+03 0.  0.
          5    1    3    3  502    0 -0.45672781835E+00  0.19357263719E+02  0.64797341883E+02  0.67757510094E+02  0.41800000000E+01 0. -1.
         -5    1    3    3    0  502  0.56819891393E+02  0.60282774936E+01 -0.45419299995E+02  0.73111048409E+02  0.41800000000E+01 0. -1.
        -11    1    1    2    0    0 -0.44755779631E+01 -0.25714448181E+02  0.85272817069E+02  0.89178007234E+02  0.00000000000E+00 0.  1.
         11    1    1    2    0    0 -0.51887585611E+02  0.32890696817E+00  0.79684388462E+01  0.52496911700E+02  0.00000000000E+00 0. -1.
</event>
<event>
 7    1  0.2651429E-009  0.1084451E+03  0.7561462E-02  0.1263477E+00
          2   -1    0    0  501    0  0.00000000000E+00  0.00000000000E+00  0.20578888748E+03  0.20578888748E+03  0.00000000000E+00 0. -1.
         -2   -1    0    0    0  501 -0.00000000000E+00 -0.00000000000E+00 -0.84047035528E+02  0.84047035528E+02  0.00000000000E+00 0.  1.
         25    2    1    2    0    0 -0.15376330478E+02 -0.16540264112E+01  0.14723990942E+03  0.19381940537E+03  0.12508878298E+03 0.  0.
          5    1    3    3  502    0  0.42230528963E+02 -0.38106193587E+02  0.77287143334E+02  0.96053498067E+02  0.41800000000E+01 0. -1.
         -5    1    3    3    0  502 -0.57606859441E+02  0.36452167176E+02  0.69952766090E+02  0.97765907300E+02  0.41800000000E+01 0. -1.
        -11    1    1    2    0    0 -0.25182801738E+02 -0.30675770352E+02 -0.18110672543E+02  0.43625369339E+02  0.00000000000E+00 0.  1.
         11    1    1    2    0    0  0.40559132215E+02  0.32329796763E+02 -0.73873849256E+01  0.52391148306E+02  0.00000000000E+00 0. -1.
</event>
<event>
 7    1  0.2651429E-009  0.1147876E+03  0.7561462E-02  0.1251952E+00
         -2   -1    0    0    0  501 -0.00000000000E+00  0.00000000000E+00  0.18384591012E+03  0.18384591012E+03  0.00000000000E+00 0. -1.
          2   -1    0    0  501    0  0.00000000000E+00 -0.00000000000E+00 -0.83419356612E+02  0.83419356612E+02  0.00000000000E+00 0.  1.
         25    2    1    2    0    0 -0.19423517475E+02  0.44085093852E+02  0.13340475195E+02  0.13470777267E+03  0.12508975661E+03 0.  0.
          5    1    3    3  502    0 -0.69853292033E+02  0.15322466620E+02 -0.93333667847E+01  0.72241570627E+02  0.41800000000E+01 0.  1.
         -5    1    3    3    0  502  0.50429774558E+02  0.28762627232E+02  0.22673841980E+02  0.62466202041E+02  0.41800000000E+01 0.  1.
        -11    1    1    2    0    0  0.42044601097E+02  0.81346856675E+01  0.41612721286E+02  0.59712144202E+02  0.00000000000E+00 0.  1.
         11    1    1    2    0    0 -0.22621083623E+02 -0.52219779519E+02  0.45473357030E+02  0.72845349865E+02  0.00000000000E+00 0. -1.
</event>
<event>
 7    1  0.2651429E-009  0.1018670E+03  0.7561462E-02  0.1276418E+00
         -1   -1    0    0    0  501 -0.00000000000E+00  0.00000000000E+00  0.88125879073E+03  0.88125879073E+03  0.00000000000E+00 0.  1.
          1   -1    0    0  501    0  0.00000000000E+00 -0.00000000000E+00 -0.16708400403E+02  0.16708400403E+02  0.00000000000E+00 0. -1.
         25    2    1    2    0    0  0.51667861433E+02 -0.68851360190E+01  0.54270512058E+03  0.55936866135E+03  0.12508988122E+03 0.  0.
          5    1    3    3  502    0 -0.11305119185E+02  0.47275322208E+02  0.14269937952E+03  0.15080897561E+03  0.41800000000E+01 0.  1.
         -5    1    3    3    0  502  0.62972980617E+02 -0.54160458227E+02  0.40000574107E+03  0.40855968574E+03  0.41800000000E+01 0.  1.
        -11    1    1    2    0    0 -0.53814472634E+02  0.20805562980E+02  0.31906771528E+03  0.32424231039E+03  0.00000000000E+00 0.  1.
         11    1    1    2    0    0  0.21466112010E+01 -0.13920426961E+02  0.27775544604E+01  0.14356219391E+02  0.00000000000E+00 0. -1.
</event>
<event>
 7    1  0.2651429E-009  0.9602480E+02  0.7561462E-02  0.1288885E+00
          2   -1    0    0  501    0  0.00000000000E+00  0.00000000000E+00  0.32560407979E+03  0.32560407979E+03  0.00000000000E+00 0. -1.
         -2   -1    0    0    0  501 -0.00000000000E+00 -0.00000000000E+00 -0.46820392109E+02  0.46820392109E+02  0.00000000000E+00 0.  1.
         25    2    1    2    0    0 -0.63336883996E+01  0.53693008308E+02  0.19825765649E+03  0.24057594997E+03  0.12509050561E+03 0.  0.
          5    1    3    3  502    0  0.30279590591E+02 -0.26054633405E+02  0.27909855954E+02  0.48909405922E+02  0.41800000000E+01 0. -1.
         -5    1    3    3    0  502 -0.36613278991E+02  0.79747641713E+02  0.17034780054E+03  0.19166654404E+03  0.41800000000E+01 0. -1.
        -11    1    1    2    0    0  0.16350061031E+02 -0.51151661710E+02  0.97884123671E+02  0.11164729579E+03  0.00000000000E+00 0. -1.
         11    1    1    2    0    0 -0.10016372631E+02 -0.25413465979E+01 -0.17358092478E+02  0.20201226143E+02  0.00000000000E+00 0.  1.
</event>
<event>
 7    1  0.2651429E-009  0.1883547E+03  0.7561462E-02  0.1159954E+00
         -2   -1    0    0    0  501 -0.00000000000E+00  0.00000000000E+00  0.13405435355E+03  0.13405435355E+03  0.00000000000E+00 0. -1.
          2   -1    0    0  501    0  0.00000000000E+00 -0.00000000000E+00 -0.29364351972E+03  0.29364351972E+03  0.00000000000E+00 0.  1.
         25    2    1    2    0    0 -0.16139947593E+03  0.48717040925E+01 -0.45632301164E+02  0.20929342304E+03  0.12509158919E+03 0.  0.
          5    1    3    3  502    0 -0.28188122657E+02 -0.40619781881E+02 -0.47164769108E+02  0.68458197347E+02  0.41800000000E+01 0. -1.
         -5    1    3    3    0  502 -0.13321135328E+03  0.45491485973E+02  0.15324679435E+01  0.14083522569E+03  0.41800000000E+01 0. -1.
        -11    1    1    2    0    0  0.13963238239E+03 -0.39723752175E+02 -0.86620441099E+02  0.16905111510E+03  0.00000000000E+00 0.  1.
         11    1    1    2    0    0  0.21767093540E+02  0.34852048082E+02 -0.27336423907E+02  0.49353335132E+02  0.00000000000E+00 0. -1.
</event>
<event>
 7    1  0.2651429E-009  0.1553393E+03  0.7561462E-02  0.1194061E+00
          1   -1    0    0  501    0  0.00000000000E+00  0.00000000000E+00  0.13288436575E+03  0.13288436575E+03  0.00000000000E+00 0. -1.
         -1   -1    0    0    0  501 -0.00000000000E+00 -0.00000000000E+00 -0.22925760686E+03  0.22925760686E+03  0.00000000000E+00 0.  1.
         25    2    1    2    0    0  0.74153307419E+02 -0.11174411814E+03 -0.20067776069E+02  0.18448907897E+03  0.12509214077E+03 0.  0.
          5    1    3    3  502    0 -0.14789487605E+02  0.13115067197E+02 -0.23632091703E+02  0.31091511534E+02  0.41800000000E+01 0. -1.
         -5    1    3    3    0  502  0.88942795024E+02 -0.12485918534E+03  0.35643156342E+01  0.15339756744E+03  0.41800000000E+01 0. -1.
        -11    1    1    2    0    0 -0.52149724487E+02  0.98454041362E+02 -0.16591883009E+02  0.11264138940E+03  0.00000000000E+00 0.  1.
         11    1    1    2    0    0 -0.22003582932E+02  0.13290076780E+02 -0.59713582037E+02  0.65011504231E+02  0.00000000000E+00 0. -1.
</event>
<event>
 7    1  0.2651429E-009  0.1012204E+03  0.7561462E-02  0.1277750E+00
          4   -1    0    0  501    0  0.00000000000E+00  0.00000000000E+00  0.21037100274E+02  0.21037100274E+02  0.00000000000E+00 0. -1.
         -4   -1    0    0    0  501 -0.00000000000E+00 -0.00000000000E+00 -0.56610559318E+03  0.56610559318E+03  0.00000000000E+00 0.  1.
         25    2    1    2    0    0  0.77982475461E+01 -0.12189828473E+02 -0.32330391085E+03  0.34696058612E+03  0.12508726940E+03 0.  0.
          5    1    3    3  502    0  0.62943897961E+02 -0.25633775780E+02 -0.15510089496E+03  0.16938944704E+03  0.41800000000E+01 0.  1.
         -5    1    3    3    0  502 -0.55145650415E+02  0.13443947307E+02 -0.16820301589E+03  0.17757113908E+03  0.41800000000E+01 0.  1.
        -11    1    1    2    0    0 -0.36643072001E+02  0.26513450659E+02 -0.59427841520E+02  0.74681631874E+02  0.00000000000E+00 0. -1.
         11    1    1    2    0    0  0.28844824455E+02 -0.14323622186E+02 -0.16233674053E+03  0.16550047546E+03  0.00000000000E+00 0.  1.
</event>
<event>
 7    1  0.2651429E-009  0.1078444E+03  0.7561462E-02  0.1264615E+00
          1   -1    0    0  501    0  0.00000000000E+00  0.00000000000E+00  0.37095529504E+03  0.37095529504E+03  0.00000000000E+00 0. -1.
         -1   -1    0    0    0  501 -0.00000000000E+00 -0.00000000000E+00 -0.38901703879E+02  0.38901703879E+02  0.00000000000E+00 0.  1.
         25    2    1    2    0    0 -0.17598442788E+02  0.70109926804E+01  0.10611993023E+03  0.16512880512E+03  0.12508886234E+03 0.  0.
          5    1    3    3  502    0  0.37577494496E+02 -0.35577918903E+02  0.23594822623E+02  0.57026699542E+02  0.41800000000E+01 0.  1.
         -5    1    3    3    0  502 -0.55175937284E+02  0.42588911583E+02  0.82525107611E+02  0.10810210558E+03  0.41800000000E+01 0.  1.
        -11    1    1    2    0    0 -0.29747354501E+02 -0.29177620114E+02  0.94457851576E+02  0.10324012950E+03  0.00000000000E+00 0.  1.
         11    1    1    2    0    0  0.47345797289E+02  0.22166627434E+02  0.13147580935E+03  0.14148806429E+03  0.00000000000E+00 0. -1.
</event>
<event>
 7    1  0.2651429E-009  0.1893464E+03  0.7561462E-02  0.1159052E+00
         -2   -1    0    0    0  501 -0.00000000000E+00  0.00000000000E+00  0.20815902007E+02  0.20815902007E+02  0.00000000000E+00 0.  1.
          2   -1    0    0  501    0  0.00000000000E+00 -0.00000000000E+00 -0.19755451762E+04  0.19755451762E+04  0.00000000000E+00 0. -1.
         25    2    1    2    0    0  0.14118220840E+03  0.91915874685E+02 -0.89372427012E+03  0.91802555748E+03  0.12508760605E+03 0.  0.
          5    1    3    3  502    0  0.17089805465E+02 -0.18270501644E+02 -0.31340650157E+03  0.31443120123E+03  0.41800000000E+01 0. -1.
         -5    1    3    3    0  502  0.12409240294E+03  0.11018637633E+03 -0.58031776855E+03  0.60359435625E+03  0.41800000000E+01 0. -1.
        -11    1    1    2    0    0 -0.12446281246E+01  0.12601889394E+02 -0.28850657797E+02  0.31507414537E+02  0.00000000000E+00 0.  1.
         11    1    1    2    0    0 -0.13993758028E+03 -0.10451776408E+03 -0.10321543462E+04  0.10468281062E+04  0.00000000000E+00 0. -1.
</event>
<event>
 7    1  0.2651429E-009  0.1005415E+03  0.7561462E-02  0.1279161E+00
         -2   -1    0    0    0  501 -0.00000000000E+00  0.00000000000E+00  0.23054703450E+02  0.23054703450E+02  0.00000000000E+00 0.  1.
          2   -1    0    0  501    0  0.00000000000E+00 -0.00000000000E+00 -0.11079837385E+04  0.11079837385E+04  0.00000000000E+00 0. -1.
         25    2    1    2    0    0  0.29996874998E+02  0.69165108891E+02 -0.89909901984E+03  0.91088442113E+03  0.12509099243E+03 0.  0.
          5    1    3    3  502    0 -0.49722134127E-01  0.74467514334E+02 -0.84763435554E+03  0.85090944657E+03  0.41800000000E+01 0. -1.
         -5    1    3    3    0  502  0.30046597132E+02 -0.53024054439E+01 -0.51464664296E+02  0.59974974562E+02  0.41800000000E+01 0. -1.
        -11    1    1    2    0    0 -0.48041946685E+02 -0.52035356889E+02 -0.62868026244E+02  0.94700030262E+02  0.00000000000E+00 0.  1.
         11    1    1    2    0    0  0.18045071687E+02 -0.17129752001E+02 -0.12296198899E+03  0.12545399057E+03  0.00000000000E+00 0. -1.
</event>
<event>
 7    1  0.2651429E-009  0.1163887E+03  0.7561462E-02  0.1249176E+00
          2   -1    0    0  501    0  0.00000000000E+00  0.00000000000E+00  0.44152992079E+03  0.44152992079E+03  0.00000000000E+00 0. -1.
         -2   -1    0    0    0  501 -0.00000000000E+00 -0.00000000000E+00 -0.37968618748E+02  0.37968618748E+02  0.00000000000E+00 0.  1.
         25    2    1    2    0    0 -0.44481862365E+01  0.45499910094E+02  0.32196545953E+03  0.34842341564E+03  0.12508833380E+03 0.  0.
          5    1    3    3  502    0  0.12321787824E+02  0.86806567531E+02  0.22870523091E+03  0.24497094046E+03  0.41800000000E+01 0. -1.
         -5    1    3    3    0  502 -0.16769974060E+02 -0.41306657438E+02  0.93260228617E+02  0.10345247518E+03  0.41800000000E+01 0. -1.
        -11    1    1    2    0    0 -0.18419399518E+02 -0.66605667281E+02  0.68532169686E+02  0.97325471868E+02  0.00000000000E+00 0. -1.
         11    1    1    2    0    0  0.22867585754E+02  0.21105757188E+02  0.13063672824E+02  0.33749652033E+02  0.00000000000E+00 0.  1.
</event>
<event>
 7    1  0.2835859E-009  0.1111086E+03  0.7561462E-02  0.1258531E+00
         -3   -1    0    0    0  501 -0.00000000000E+00  0.00000000000E+00  0.63678694884E+02  0.63678694884E+02  0.00000000000E+00 0.  1.
          3   -1    0    0  501    0  0.00000000000E+00 -0.00000000000E+00 -0.28762491024E+03  0.28762491024E+03  0.00000000000E+00 0. -1.
         25    2    1    2    0    0 -0.37319649467E+02  0.26615831068E+02 -0.37233544211E+02  0.13832444200E+03  0.12508459434E+03 0.  0.
          5    1    3    3  502    0 -0.37962340966E+02  0.73157845858E+02 -0.39589207342E+02  0.91531346981E+02  0.41800000000E+01 0. -1.
         -5    1    3    3    0  502  0.64269149907E+00 -0.46542014790E+02  0.23556631308E+01  0.46793095023E+02  0.41800000000E+01 0. -1.
        -11    1    1    2    0    0  0.50120798364E+02 -0.47114852287E+02 -0.17056328357E+03  0.18391230909E+03  0.00000000000E+00 0.  1.
         11    1    1    2    0    0 -0.12801148897E+02  0.20499021219E+02 -0.16149387581E+02  0.29066854031E+02  0.00000000000E+00 0. -1.
</event>
<event>
 7    1  0.2651429E-009  0.1108940E+03  0.7561462E-02  0.1258923E+00
         -2   -1    0    0    0  501 -0.00000000000E+00  0.00000000000E+00  0.18061560139E+03  0.18061560139E+03  0.00000000000E+00 0. -1.
          2   -1    0    0  501    0  0.00000000000E+00 -0.00000000000E+00 -0.11915037005E+03  0.11915037005E+03  0.00000000000E+00 0.  1.
         25    2    1    2    0    0 -0.77045342200E+02  0.40753342659E+02 -0.47612614751E+01  0.15253152388E+03  0.12508547667E+03 0.  0.
          5    1    3    3  502    0 -0.30969668520E+02  0.29659592835E+02 -0.63627949811E+02  0.76842697848E+02  0.41800000000E+01 0.  1.
         -5    1    3    3    0  502 -0.46075673680E+02  0.11093749824E+02  0.58866688336E+02  0.75688826031E+02  0.41800000000E+01 0.  1.
        -11    1    1    2    0    0  0.97546776082E+02 -0.15777563105E+02  0.54586731579E+02  0.11288939847E+03  0.00000000000E+00 0.  1.
         11    1    1    2    0    0 -0.20501433882E+02 -0.24975779555E+02  0.11639761231E+02  0.34345049091E+02  0.00000000000E+00 0. -1.
</event>
<event>
 7    1  0.2651429E-009  0.8435825E+02  0.7561462E-02  0.1317119E+00
         -1   -1    0    0    0  501 -0.00000000000E+00  0.00000000000E+00  0.16187935237E+03  0.16187935237E+03  0.00000000000E+00 0.  1.
          1   -1    0    0  501    0  0.00000000000E+00 -0.00000000000E+00 -0.77891365316E+02  0.77891365316E+02  0.00000000000E+00 0. -1.
         25    2    1    2    0    0  0.28238241921E+02  0.14825524169E+01  0.48329330579E+02  0.13704232766E+03  0.12508109013E+03 0.  0.
          5    1    3    3  502    0  0.79823729140E+01  0.45602244097E+02 -0.22044008853E+02  0.51446026769E+02  0.41800000000E+01 0.  1.
         -5    1    3    3    0  502  0.20255869007E+02 -0.44119691680E+02  0.70373339432E+02  0.85596300890E+02  0.41800000000E+01 0.  1.
        -11    1    1    2    0    0 -0.23325868142E+02 -0.33661657560E+02 -0.14061208040E+02  0.43300356647E+02  0.00000000000E+00 0. -1.
         11    1    1    2    0    0 -0.49123737789E+01  0.32179105143E+02  0.49719864518E+02  0.59428033382E+02  0.00000000000E+00 0.  1.
</event>
<event>
 7    1  0.2651429E-009  0.1084666E+03  0.7561462E-02  0.1263436E+00
         -2   -1    0    0    0  501 -0.00000000000E+00  0.00000000000E+00  0.12600973801E+03  0.12600973801E+03  0.00000000000E+00 0.  1.
          2   -1    0    0  501    0  0.00000000000E+00 -0.00000000000E+00 -0.99603964068E+02  0.99603964068E+02  0.00000000000E+00 0. -1.
         25    2    1    2    0    0  0.11300341011E+02  0.83157604230E+00  0.41098696967E+02  0.13215520835E+03  0.12508999550E+03 0.  0.
          5    1    3    3  502    0  0.16869531026E+02 -0.60489072014E+02  0.12631914026E+02  0.64191483564E+02  0.41800000000E+01 0. -1.
         -5    1    3    3    0  502 -0.55691900157E+01  0.61320648056E+02  0.28466782941E+02  0.67963724784E+02  0.41800000000E+01 0. -1.
        -11    1    1    2    0    0  0.16120876981E+02 -0.40766998441E+02 -0.61603793676E+01  0.44269415068E+02  0.00000000000E+00 0. -1.
         11    1    1    2    0    0 -0.27421217992E+02  0.39935422399E+02 -0.85325436585E+01  0.49189078662E+02  0.00000000000E+00 0.  1.
</event>
<event>
 7    1  0.2651429E-009  0.1097612E+03  0.7561462E-02  0.1261013E+00
         -1   -1    0    0    0  501 -0.00000000000E+00  0.00000000000E+00  0.53381140348E+02  0.53381140348E+02  0.00000000000E+00 0.  1.
          1   -1    0    0  501    0  0.00000000000E+00 -0.00000000000E+00 -0.23823068187E+03  0.23823068187E+03  0.00000000000E+00 0. -1.
         25    2    1    2    0    0 -0.13135306922E+02 -0.10321305370E+02 -0.11243491373E+03  0.16902185813E+03  0.12509081928E+03 0.  0.
          5    1    3    3  502    0  0.10419486186E+02 -0.62587047383E+02 -0.82660048250E+02  0.10428739219E+03  0.41800000000E+01 0. -1.
         -5    1    3    3    0  502 -0.23554793109E+02  0.52265742014E+02 -0.29774865481E+02  0.64734465944E+02  0.41800000000E+01 0. -1.
        -11    1    1    2    0    0  0.17957626041E+02  0.52766092933E+02 -0.46805876363E+02  0.72784111993E+02  0.00000000000E+00 0. -1.
         11    1    1    2    0    0 -0.48223191187E+01 -0.42444787564E+02 -0.25608751428E+02  0.49805852093E+02  0.00000000000E+00 0.  1.
</event>
<event>
 7    1  0.2651429E-009  0.1915279E+03  0.7561462E-02  0.1157090E+00
         -1   -1    0    0    0  501 -0.00000000000E+00  0.00000000000E+00  0.27148090774E+02  0.27148090774E+02  0.00000000000E+00 0.  1.
          1   -1    0    0  501    0  0.00000000000E+00 -0.00000000000E+00 -0.15291529243E+04  0.15291529243E+04  0.00000000000E+00 0. -1.
         25    2    1    2    0    0  0.16560563462E+03  0.26519241236E+02 -0.92011654882E+03  0.94360488530E+03  0.12508884754E+03 0.  0.
          5    1    3    3  502    0  0.88948454783E+02 -0.40756495513E+02 -0.58981671513E+03  0.59789141939E+03  0.41800000000E+01 0.  1.
         -5    1    3    3    0  502  0.76657179839E+02  0.67275736749E+02 -0.33029983368E+03  0.34571346590E+03  0.41800000000E+01 0.  1.
        -11    1    1    2    0    0 -0.14673496200E+02 -0.28552146413E+02 -0.46997351947E+02  0.56914740143E+02  0.00000000000E+00 0.  1.
         11    1    1    2    0    0 -0.15093213842E+03  0.20329051764E+01 -0.53489093280E+03  0.55578138967E+03  0.00000000000E+00 0. -1.
</event>
<event>
 7    1  0.2651429E-009  0.1088191E+03  0.7561462E-02  0.1262772E+00
         -1   -1    0    0    0  501 -0.00000000000E+00  0.00000000000E+00  0.26234967404E+02  0.26234967404E+02  0.00000000000E+00 0.  1.
          1   -1    0    0  501    0  0.00000000000E+00 -0.00000000000E+00 -0.53091854832E+03  0.53091854832E+03  0.00000000000E+00 0. -1.
         25    2    1    2    0    0  0.35197430311E+02 -0.39095162085E+01 -0.19564466962E+03  0.23489888932E+03  0.12508600256E+03 0.  0.
          5    1    3    3  502    0  0.69111135551E+02  0.33916525607E+02 -0.97438885387E+02  0.12425171448E+03  0.41800000000E+01 0.  1.
         -5    1    3    3    0  502 -0.33913705240E+02 -0.37826041816E+02 -0.98205784236E+02  0.11064717484E+03  0.41800000000E+01 0.  1.
        -11    1    1    2    0    0  0.82026547655E+01  0.35147550791E+02 -0.15671830464E+03  0.16082058600E+03  0.00000000000E+00 0. -1.
         11    1    1    2    0    0 -0.43400085076E+02 -0.31238034583E+02 -0.15232060664E+03  0.16143404039E+03  0.00000000000E+00 0.  1.
</event>
<event>
 7    1  0.2651429E-009  0.1223794E+03  0.7561462E-02  0.1239223E+00
         -3   -1    0    0    0  501 -0.00000000000E+00  0.00000000000E+00  0.12571167100E+02  0.12571167100E+02  0.00000000000E+00 0.  1.
          3   -1    0    0  501    0  0.00000000000E+00 -0.00000000000E+00 -0.19163644017E+04  0.19163644017E+04  0.00000000000E+00 0. -1.
         25    2    1    2    0    0  0.73729991177E+02  0.57750720582E+02 -0.14175601486E+04  0.14261470499E+04  0.12508947061E+03 0.  0.
          5    1    3    3  502    0  0.11859891276E+01  0.45971888986E+02 -0.10641691013E+04  0.10651704886E+04  0.41800000000E+01 0.  1.
         -5    1    3    3    0  502  0.72544002050E+02  0.11778831596E+02 -0.35339104727E+03  0.36097656128E+03  0.41800000000E+01 0.  1.
        -11    1    1    2    0    0 -0.53489709032E+01 -0.56319879655E+02 -0.27497911690E+03  0.28073841039E+03  0.00000000000E+00 0. -1.
         11    1    1    2    0    0 -0.68381020274E+02 -0.14308409272E+01 -0.21125396908E+03  0.22205010851E+03  0.00000000000E+00 0.  1.
</event>
<event>
 7    1  0.2651429E-009  0.1905282E+03  0.7561462E-02  0.1157986E+00
         -1   -1    0    0    0  501 -0.00000000000E+00  0.00000000000E+00  0.83353994662E+02  0.83353994662E+02  0.00000000000E+00 0.  1.
          1   -1    0    0  501    0  0.00000000000E+00 -0.00000000000E+00 -0.71668444088E+03  0.71668444088E+03  0.00000000000E+00 0. -1.
         25    2    1    2    0    0  0.44947749943E+02 -0.18403622776E+03 -0.14775412427E+03  0.27086718195E+03  0.12509242849E+03 0.  0.
          5    1    3    3  502    0  0.77579239122E+01 -0.15994939850E+02  0.22339701707E+02  0.28854083880E+02  0.41800000000E+01 0.  1.
         -5    1    3    3    0  502  0.37189826031E+02 -0.16804128791E+03 -0.17009382597E+03  0.24201309807E+03  0.41800000000E+01 0.  1.
        -11    1    1    2    0    0 -0.40445647811E+02  0.12395572436E+03 -0.21078972489E+03  0.24785717691E+03  0.00000000000E+00 0.  1.
         11    1    1    2    0    0 -0.45021021318E+01  0.60080503406E+02 -0.27478659705E+03  0.28131407667E+03  0.00000000000E+00 0. -1.
</event>
<event>
 7    1  0.2651429E-009  0.9787384E+02  0.7561462E-02  0.1284832E+00
          1   -1    0    0  501    0  0.00000000000E+00  0.00000000000E+00  0.22190690675E+02  0.22190690675E+02  0.00000000000E+00 0. -1.
         -1   -1    0    0    0  501 -0.00000000000E+00 -0.00000000000E+00 -0.57213589294E+03  0.57213589294E+03  0.00000000000E+00 0.  1.
         25    2    1    2    0    0 -0.29297713213E+02  0.12568681852E+02 -0.32059866962E+03  0.34561235271E+03  0.12509222048E+03 0.  0.
          5    1    3    3  502    0  0.44044464521E+02 -0.20014022966E+02 -0.12942813595E+03  0.13823744336E+03  0.41800000000E+01 0.  1.
         -5    1    3    3    0  502 -0.73342177734E+02  0.32582704819E+02 -0.19117053366E+03  0.20737490935E+03  0.41800000000E+01 0.  1.
        -11    1    1    2    0    0  0.39441027946E+02  0.11185918841E+02 -0.21558298738E+03  0.21944644885E+03  0.00000000000E+00 0.  1.
         11    1    1    2    0    0 -0.10143314733E+02 -0.23754600693E+02 -0.13763545271E+02  0.29267782053E+02  0.00000000000E+00 0. -1.
</event>
<event>
 7    1  0.2651429E-009  0.9735807E+02  0.7561462E-02  0.1285952E+00
          1   -1    0    0  501    0  0.00000000000E+00  0.00000000000E+00  0.33607592897E+02  0.33607592897E+02  0.00000000000E+00 0. -1.
         -1   -1    0    0    0  501 -0.00000000000E+00 -0.00000000000E+00 -0.40934367403E+03  0.40934367403E+03  0.00000000000E+00 0.  1.
         25    2    1    2    0    0 -0.48883094981E+02  0.10336155727E+02 -0.23366898638E+03  0.26971205874E+03  0.12508799442E+03 0.  0.
          5    1    3    3  502    0 -0.28948481287E+02 -0.50316571050E+02 -0.16900216770E+03  0.17874276762E+03  0.41800000000E+01 0. -1.
         -5    1    3    3    0  502 -0.19934613694E+02  0.60652726778E+02 -0.64666818680E+02  0.90969291120E+02  0.41800000000E+01 0. -1.
        -11    1    1    2    0    0  0.24256902143E+02  0.21411875220E+02 -0.12579579338E+03  0.12989013563E+03  0.00000000000E+00 0.  1.
         11    1    1    2    0    0  0.24626192838E+02 -0.31748030947E+02 -0.16271301373E+02  0.43349072552E+02  0.00000000000E+00 0. -1.
</event>
<event>
 7    1  0.2651429E-009  0.2100934E+03  0.7561462E-02  0.1141492E+00
         -1   -1    0    0    0  501 -0.00000000000E+00  0.00000000000E+00  0.12357140588E+03  0.12357140588E+03  0.00000000000E+00 0.  1.
          1   -1    0    0  501    0  0.00000000000E+00 -0.00000000000E+00 -0.46980039127E+03  0.46980039127E+03  0.00000000000E+00 0. -1.
         25    2    1    2    0    0 -0.90486477636E+02 -0.18629882748E+03 -0.24998540662E+03  0.34789731663E+03  0.12507910950E+03 0.  0.
          5    1    3    3  502    0 -0.58238637303E+02 -0.70740691287E+02 -0.19573676830E+03  0.21616276077E+03  0.41800000000E+01 0.  1.
         -5    1    3    3    0  502 -0.32247840333E+02 -0.11555813620E+03 -0.54248638327E+02  0.13173455586E+03  0.41800000000E+01 0.  1.
        -11    1    1    2    0    0  0.60682517844E+02  0.98454020521E+02 -0.99630991905E+02  0.15264958787E+03  0.00000000000E+00 0. -1.
         11    1    1    2    0    0  0.29803959791E+02  0.87844806964E+02  0.33874131379E+01  0.92824892661E+02  0.00000000000E+00 0.  1.
</event>
<event>
 7    1  0.2651429E-009  0.1056439E+03  0.7561462E-02  0.1268856E+00
         -2   -1    0    0    0  501 -0.00000000000E+00  0.00000000000E+00  0.26488491080E+02  0.26488491080E+02  0.00000000000E+00 0.  1.
          2   -1    0    0  501    0  0.00000000000E+00 -0.00000000000E+00 -0.56669517424E+03  0.56669517424E+03  0.00000000000E+00 0. -1.
         25    2    1    2    0    0  0.40867758905E+02 -0.38197928583E+02 -0.32477997676E+03  0.35250533484E+03  0.12509485328E+03 0.  0.
          5    1    3    3  502    0  0.74376887930E+02 -0.24723286476E+02 -0.11274431031E+03  0.13737508602E+03  0.41800000000E+01 0. -1.
         -5    1    3    3    0  502 -0.33509129025E+02 -0.13474642107E+02 -0.21203566645E+03  0.21513024882E+03  0.41800000000E+01 0. -1.
        -11    1    1    2    0    0  0.20778239890E+02  0.26532345907E+02 -0.30697306033E+02  0.45585362014E+02  0.00000000000E+00 0.  1.
         11    1    1    2    0    0 -0.61645998795E+02  0.11665582676E+02 -0.18472940037E+03  0.19509296847E+03  0.00000000000E+00 0. -1.
</event>
<event>
 7    1  0.2651429E-009  0.1849913E+03  0.7561462E-02  0.1163058E+00
         -1   -1    0    0    0  501 -0.00000000000E+00  0.00000000000E+00  0.90095194061E+02  0.90095194061E+02  0.00000000000E+00 0.  1.
          1   -1    0    0  501    0  0.00000000000E+00 -0.00000000000E+00 -0.45000635738E+03  0.45000635738E+03  0.00000000000E+00 0. -1.
         25    2    1    2    0    0 -0.15875669620E+03 -0.34028424305E+02 -0.25330550819E+03  0.32584248789E+03  0.12509206285E+03 0.  0.
          5    1    3    3  502    0 -0.12188769690E+03 -0.69256809812E+02 -0.12560837991E+03  0.18827653562E+03  0.41800000000E+01 0. -1.
         -5    1    3    3    0  502 -0.36868999301E+02  0.35228385507E+02 -0.12769712828E+03  0.13756595228E+03  0.41800000000E+01 0. -1.
        -11    1    1    2    0    0  0.58900555511E+01  0.24724453240E+02  0.34742342566E+01  0.25652712256E+02  0.00000000000E+00 0.  1.
         11    1    1    2    0    0  0.15286664065E+03  0.93039710655E+01 -0.11007988939E+03  0.18860635129E+03  0.00000000000E+00 0. -1.
</event>
<event>
 7    1  0.2651429E-009  0.8804350E+02  0.7561462E-02  0.1307660E+00
          1   -1    0    0  501    0  0.00000000000E+00  0.00000000000E+00  0.68410371924E+03  0.68410371924E+03  0.00000000000E+00 0. -1.
         -1   -1    0    0    0  501 -0.00000000000E+00 -0.00000000000E+00 -0.21171378454E+02  0.21171378454E+02  0.00000000000E+00 0.  1.
         25    2    1    2    0    0  0.49575313988E+02 -0.16965484285E+02  0.38724866376E+03  0.41030964814E+03  0.12508773066E+03 0.  0.
          5    1    3    3  502    0 -0.77951834748E+01 -0.12573071102E+02  0.32528392450E+03  0.32564697287E+03  0.41800000000E+01 0. -1.
         -5    1    3    3    0  502  0.57370497463E+02 -0.43924131832E+01  0.61964739258E+02  0.84662675271E+02  0.41800000000E+01 0. -1.
        -11    1    1    2    0    0  0.58655551400E+01 -0.29874912473E+02  0.58063300348E+02  0.65561131623E+02  0.00000000000E+00 0.  1.
         11    1    1    2    0    0 -0.55440869128E+02  0.46840396758E+02  0.21762037668E+03  0.22940431793E+03  0.00000000000E+00 0. -1.
</event>
<event>
 7    1  0.2651429E-009  0.2157807E+03  0.7561462E-02  0.1137068E+00
          1   -1    0    0  501    0  0.00000000000E+00  0.00000000000E+00  0.42135315875E+03  0.42135315875E+03  0.00000000000E+00 0. -1.
         -1   -1    0    0    0  501 -0.00000000000E+00 -0.00000000000E+00 -0.16371897215E+03  0.16371897215E+03  0.00000000000E+00 0.  1.
         25    2    1    2    0    0  0.41829124043E+02  0.20260747753E+03  0.26404433912E+03  0.35800279210E+03  0.12508845093E+03 0.  0.
          5    1    3    3  502    0  0.30777468960E+02  0.14083039954E+03  0.25701922417E+03  0.29471479098E+03  0.41800000000E+01 0. -1.
         -5    1    3    3    0  502  0.11051655083E+02  0.61777077988E+02  0.70251149543E+01  0.63288001113E+02  0.41800000000E+01 0. -1.
        -11    1    1    2    0    0 -0.59053960174E+02 -0.73910346339E+02 -0.19409468302E+02  0.96575550570E+02  0.00000000000E+00 0.  1.
         11    1    1    2    0    0  0.17224836131E+02 -0.12869713119E+03  0.12999315785E+02  0.13049378823E+03  0.00000000000E+00 0. -1.
</event>
<event>
 7    1  0.2651429E-009  0.1418737E+03  0.7561462E-02  0.1210830E+00
         -1   -1    0    0    0  501 -0.00000000000E+00  0.00000000000E+00  0.29232178716E+02  0.29232178716E+02  0.00000000000E+00 0.  1.
          1   -1    0    0  501    0  0.00000000000E+00 -0.00000000000E+00 -0.73339819951E+03  0.73339819951E+03  0.00000000000E+00 0. -1.
         25    2    1    2    0    0 -0.97934208054E+02 -0.41041273984E+01 -0.37378190193E+03  0.40616316554E+03  0.12509058263E+03 0.  0.
          5    1    3    3  502    0 -0.11530589321E+03 -0.37017043467E+02 -0.27463959644E+03  0.30018342867E+03  0.41800000000E+01 0.  1.
         -5    1    3    3    0  502  0.17371685154E+02  0.32912916069E+02 -0.99142305487E+02  0.10597973687E+03  0.41800000000E+01 0.  1.
        -11    1    1    2    0    0  0.69130181315E+02 -0.34256412611E+02 -0.13708655869E+03  0.15730609761E+03  0.00000000000E+00 0.  1.
         11    1    1    2    0    0  0.28804026738E+02  0.38360540009E+02 -0.19329756018E+03  0.19916111508E+03  0.00000000000E+00 0. -1.
</event>
<event>
 7    1  0.2651429E-009  0.1615916E+03  0.7561462E-02  0.1186911E+00
          1   -1    0    0  501    0  0.00000000000E+00  0.00000000000E+00  0.10696601127E+04  0.10696601127E+04  0.00000000000E+00 0. -1.
         -1   -1    0    0    0  501 -0.00000000000E+00 -0.00000000000E+00 -0.27816562056E+02  0.27816562056E+02  0.00000000000E+00 0.  1.
         25    2    1    2    0    0 -0.11851150604E+03 -0.60265478757E+02  0.58434427952E+03  0.61219491625E+03  0.12508986158E+03 0.  0.
          5    1    3    3  502    0 -0.61940950030E+02  0.23726822530E+02  0.12257577952E+03  0.13943434844E+03  0.41800000000E+01 0.  1.
         -5    1    3    3    0  502 -0.56570556012E+02 -0.83992301287E+02  0.46176850000E+03  0.47276056781E+03  0.41800000000E+01 0.  1.
        -11    1    1    2    0    0 -0.86152843478E+01 -0.73986916510E+01  0.98338371236E+01  0.15022253996E+02  0.00000000000E+00 0.  1.
         11    1    1    2    0    0  0.12712679039E+03  0.67664170408E+02  0.44766543400E+03  0.47025950452E+03  0.00000000000E+00 0. -1.
</event>
<event>
 7    1  0.2651429E-009  0.1053245E+03  0.7561462E-02  0.1269482E+00
         -2   -1    0    0    0  501 -0.00000000000E+00  0.00000000000E+00  0.68262373437E+02  0.68262373437E+02  0.00000000000E+00 0.  1.
          2   -1    0    0  501    0  0.00000000000E+00 -0.00000000000E+00 -0.19231415476E+03  0.19231415476E+03  0.00000000000E+00 0. -1.
         25    2    1    2    0    0  0.96347068318E+01 -0.27156880611E+02 -0.44679275994E+02  0.13591859589E+03  0.12508918124E+03 0.  0.
          5    1    3    3  502    0  0.10020030481E+02  0.45499842702E+02  0.61046135419E+01  0.47173884758E+02  0.41800000000E+01 0.  1.
         -5    1    3    3    0  502 -0.38532364937E+00 -0.72656723313E+02 -0.50783889536E+02  0.88744711129E+02  0.41800000000E+01 0.  1.
        -11    1    1    2    0    0 -0.47488595454E+02  0.23723423240E+02 -0.25934363082E+02  0.59080950372E+02  0.00000000000E+00 0.  1.
         11    1    1    2    0    0  0.37853888622E+02  0.34334573716E+01 -0.53438142244E+02  0.65576981935E+02  0.00000000000E+00 0. -1.
</event>
<event>
 7    1  0.2651429E-009  0.8548406E+02  0.7561462E-02  0.1314172E+00
         -3   -1    0    0    0  501 -0.00000000000E+00  0.00000000000E+00  0.18434091338E+02  0.18434091338E+02  0.00000000000E+00 0.  1.
          3   -1    0    0  501    0  0.00000000000E+00 -0.00000000000E+00 -0.66221742988E+03  0.66221742988E+03  0.00000000000E+00 0. -1.
         25    2    1    2    0    0 -0.10574057224E+02 -0.16990596792E+02 -0.44587028610E+03  0.46351928980E+03  0.12509727784E+03 0.  0.
          5    1    3    3  502    0 -0.16483755256E+02 -0.47590040984E+02 -0.70002641511E+02  0.86338684300E+02  0.41800000000E+01 0.  1.
         -5    1    3    3    0  502  0.59096980324E+01  0.30599444191E+02 -0.37586764459E+03  0.37718060550E+03  0.41800000000E+01 0.  1.
        -11    1    1    2    0    0  0.47797103201E+02  0.19628826698E+02 -0.10565483576E+03  0.11761291694E+03  0.00000000000E+00 0. -1.
         11    1    1    2    0    0 -0.37223045977E+02 -0.26382299057E+01 -0.92258216690E+02  0.99519314485E+02  0.00000000000E+00 0.  1.
</event>
<event>
 7    1  0.2651429E-009  0.1066811E+03  0.7561462E-02  0.1266842E+00
          1   -1    0    0  501    0  0.00000000000E+00  0.00000000000E+00  0.24689434157E+03  0.24689434157E+03  0.00000000000E+00 0. -1.
         -1   -1    0    0    0  501 -0.00000000000E+00 -0.00000000000E+00 -0.61176252118E+02  0.61176252118E+02  0.00000000000E+00 0.  1.
         25    2    1    2    0    0  0.54763735820E+02 -0.70509389955E+01  0.13174107591E+03  0.18987488160E+03  0.12509187454E+03 0.  0.
          5    1    3    3  502    0  0.85031060613E+02 -0.30079006923E+01  0.41978582562E+02  0.94968429120E+02  0.41800000000E+01 0.  1.
         -5    1    3    3    0  502 -0.30267324793E+02 -0.40430383032E+01  0.89762493352E+02  0.94906452477E+02  0.41800000000E+01 0.  1.
        -11    1    1    2    0    0 -0.11643972119E+01 -0.31379758853E+02 -0.23140129212E+01  0.31486500954E+02  0.00000000000E+00 0.  1.
         11    1    1    2    0    0 -0.53599338608E+02  0.38430697848E+02  0.56291026458E+02  0.86709211137E+02  0.00000000000E+00 0. -1.
</event>
<event>
 7    1  0.2651429E-009  0.1217535E+03  0.7561462E-02  0.1240232E+00
          4   -1    0    0  501    0  0.00000000000E+00  0.00000000000E+00  0.15385490519E+03  0.15385490519E+03  0.00000000000E+00 0. -1.
         -4   -1    0    0    0  501 -0.00000000000E+00 -0.00000000000E+00 -0.17620572460E+03  0.17620572460E+03  0.00000000000E+00 0.  1.
         25    2    1    2    0    0 -0.85814896966E+02 -0.44750708857E+02  0.67595374395E+02  0.17195913205E+03  0.12503593871E+03 0.  0.
          5    1    3    3  502    0 -0.87009308339E+02 -0.74344603954E+02  0.20761494533E+02  0.11638836682E+03  0.41800000000E+01 0. -1.
         -5    1    3    3    0  502  0.11944113727E+01  0.29593895097E+02  0.46833879862E+02  0.55570765232E+02  0.41800000000E+01 0. -1.
        -11    1    1    2    0    0  0.14249183848E+02 -0.74896595573E+00 -0.69388549479E+02  0.70840461526E+02  0.00000000000E+00 0.  1.
         11    1    1    2    0    0  0.71565713118E+02  0.45499674812E+02 -0.20557644327E+02  0.87261036222E+02  0.00000000000E+00 0. -1.
</event>
<event>
 7    1  0.2651429E-009  0.8987427E+02  0.7561462E-02  0.1303156E+00
          1   -1    0    0  501    0  0.00000000000E+00  0.00000000000E+00  0.94116091740E+02  0.94116091740E+02  0.00000000000E+00 0. -1.
         -1   -1    0    0    0  501 -0.00000000000E+00 -0.00000000000E+00 -0.13862711443E+03  0.13862711443E+03  0.00000000000E+00 0.  1.
         25    2    1    2    0    0 -0.27230461450E+02 -0.20503800534E+02 -0.12012201331E+02  0.13022953062E+03  0.12511408313E+03 0.  0.
          5    1    3    3  502    0 -0.13354303698E+02 -0.62501337179E+02  0.28500833025E+02  0.70103669373E+02  0.41800000000E+01 0. -1.
         -5    1    3    3    0  502 -0.13876157752E+02  0.41997536645E+02 -0.40513034356E+02  0.60125861249E+02  0.41800000000E+01 0. -1.
        -11    1    1    2    0    0  0.41117363568E+02  0.32898244955E+02  0.12235419876E+02  0.54061424394E+02  0.00000000000E+00 0.  1.
         11    1    1    2    0    0 -0.13886902118E+02 -0.12394444421E+02 -0.44734241235E+02  0.48452251153E+02  0.00000000000E+00 0. -1.
</event>
<event>
 7    1  0.2651429E-009  0.3177763E+03  0.7561462E-02  0.1076677E+00
         -2   -1    0    0    0  501 -0.00000000000E+00  0.00000000000E+00  0.21652981208E+03  0.21652981208E+03  0.00000000000E+00 0.  1.
          2   -1    0    0  501    0  0.00000000000E+00 -0.00000000000E+00 -0.53932938421E+03  0.53932938421E+03  0.00000000000E+00 0. -1.
         25    2    1    2    0    0  0.12500673448E+03 -0.28448448221E+03 -0.60662630026E+02  0.34040818246E+03  0.12505867312E+03 0.  0.
          5    1    3    3  502    0 -0.14811089903E+02 -0.24376157829E+02 -0.32942583762E+02  0.43775012045E+02  0.41800000000E+01 0.  1.
         -5    1    3    3    0  502  0.13981782439E+03 -0.26010832438E+03 -0.27720046264E+02  0.29663317042E+03  0.41800000000E+01 0.  1.
        -11    1    1    2    0    0 -0.47944697915E+02  0.85849772743E+02 -0.35892472364E+02  0.10467639233E+03  0.00000000000E+00 0.  1.
         11    1    1    2    0    0 -0.77062036567E+02  0.19863470946E+03 -0.22624446974E+03  0.31077462151E+03  0.00000000000E+00 0. -1.
</event>
<event>
 7    1  0.2651429E-009  0.1328466E+03  0.7561462E-02  0.1223292E+00
          2   -1    0    0  501    0  0.00000000000E+00  0.00000000000E+00  0.26537592579E+03  0.26537592579E+03  0.00000000000E+00 0.  1.
         -2   -1    0    0    0  501 -0.00000000000E+00 -0.00000000000E+00 -0.70205533815E+02  0.70205533815E+02  0.00000000000E+00 0. -1.
         25    2    1    2    0    0 -0.28281442460E+02  0.78395751369E+02  0.94537445408E+02  0.17756902159E+03  0.12509074716E+03 0.  0.
          5    1    3    3  502    0 -0.90420104404E+01 -0.31115577704E+02  0.17975252611E+01  0.32720645252E+02  0.41800000000E+01 0.  1.
         -5    1    3    3    0  502 -0.19239432020E+02  0.10951132907E+03  0.92739920146E+02  0.14484837634E+03  0.41800000000E+01 0.  1.
        -11    1    1    2    0    0  0.18967993781E+02  0.17260753291E+02  0.19067981129E+02  0.31957883168E+02  0.00000000000E+00 0.  1.
         11    1    1    2    0    0  0.93134486788E+01 -0.95656504660E+02  0.81564965439E+02  0.12605455484E+03  0.00000000000E+00 0. -1.
</event>
<event>
 7    1  0.2651429E-009  0.5956557E+02  0.7561462E-02  0.1399664E+00
          1   -1    0    0  501    0  0.00000000000E+00  0.00000000000E+00  0.37239671748E+03  0.37239671748E+03  0.00000000000E+00 0. -1.
         -1   -1    0    0    0  501 -0.00000000000E+00 -0.00000000000E+00 -0.33283791154E+02  0.33283791154E+02  0.00000000000E+00 0.  1.
         25    2    1    2    0    0 -0.13456767871E+02 -0.87588536446E+01  0.22301442638E+03  0.25620421743E+03  0.12508942616E+03 0.  0.
          5    1    3    3  502    0 -0.22097666715E+02 -0.36064634636E+02  0.13347276988E+02  0.44548703109E+02  0.41800000000E+01 0. -1.
         -5    1    3    3    0  502  0.86408988439E+01  0.27305780992E+02  0.20966714939E+03  0.21165551432E+03  0.41800000000E+01 0. -1.
        -11    1    1    2    0    0  0.21409306913E+02 -0.12635971173E+02  0.12311287013E+03  0.12559779051E+03  0.00000000000E+00 0. -1.
         11    1    1    2    0    0 -0.79525390425E+01  0.21394824817E+02 -0.70143701841E+01  0.23878500691E+02  0.00000000000E+00 0.  1.
</event>
<event>
 7    1  0.2651429E-009  0.6548484E+02  0.7561462E-02  0.1376157E+00
         -2   -1    0    0    0  501 -0.00000000000E+00  0.00000000000E+00  0.45674784590E+03  0.45674784590E+03  0.00000000000E+00 0.  1.
          2   -1    0    0  501    0  0.00000000000E+00 -0.00000000000E+00 -0.32513401640E+02  0.32513401640E+02  0.00000000000E+00 0. -1.
         25    2    1    2    0    0  0.24447300509E+01  0.19224141393E+02  0.33255314687E+03  0.35582608229E+03  0.12508021836E+03 0.  0.
          5    1    3    3  502    0  0.45095720832E+02  0.55605175938E+01  0.29110882866E+03  0.29466313974E+03  0.41800000000E+01 0.  1.
         -5    1    3    3    0  502 -0.42650990781E+02  0.13663623799E+02  0.41444318207E+02  0.61162942551E+02  0.41800000000E+01 0.  1.
        -11    1    1    2    0    0  0.15986757784E+02 -0.13873842853E+02 -0.14419737604E+02  0.25612277769E+02  0.00000000000E+00 0. -1.
         11    1    1    2    0    0 -0.18431487835E+02 -0.53502985398E+01  0.10610103499E+03  0.10782288748E+03  0.00000000000E+00 0.  1.
</event>
<event>
 7    1  0.2651429E-009  0.1045299E+03  0.7561462E-02  0.1271049E+00
         -2   -1    0    0    0  501 -0.00000000000E+00  0.00000000000E+00  0.95340056612E+02  0.95340056612E+02  0.00000000000E+00 0.  1.
          2   -1    0    0  501    0  0.00000000000E+00 -0.00000000000E+00 -0.17818106301E+03  0.17818106301E+03  0.00000000000E+00 0. -1.
         25    2    1    2    0    0 -0.70366908239E+02  0.77123310177E+01 -0.60344741226E+02  0.15588372120E+03  0.12508902796E+03 0.  0.
          5    1    3    3  502    0 -0.76166783521E+02  0.49483058931E+02 -0.67055876610E+02  0.11297749785E+03  0.41800000000E+01 0. -1.
         -5    1    3    3    0  502  0.57998752820E+01 -0.41770727913E+02  0.67111353838E+01  0.42906223346E+02  0.41800000000E+01 0. -1.
        -11    1    1    2    0    0  0.29197481384E+02 -0.16673638643E+02  0.33564475939E+02  0.47508706464E+02  0.00000000000E+00 0.  1.
         11    1    1    2    0    0  0.41169426855E+02  0.89613076251E+01 -0.56060741109E+02  0.70128691957E+02  0.00000000000E+00 0. -1.
</event>
<event>
 7    1  0.2651429E-009  0.1712655E+03  0.7561462E-02  0.1176535E+00
          1   -1    0    0  501    0  0.00000000000E+00  0.00000000000E+00  0.34518794159E+03  0.34518794159E+03  0.00000000000E+00 0. -1.
         -1   -1    0    0    0  501 -0.00000000000E+00 -0.00000000000E+00 -0.92580726949E+02  0.92580726949E+02  0.00000000000E+00 0.  1.
         25    2    1    2    0    0 -0.13162748297E+03  0.26295840685E+02  0.18855299944E+03  0.26309002373E+03  0.12508741534E+03 0.  0.
          5    1    3    3  502    0 -0.21754209315E+02  0.61241680675E+02  0.46166367714E+02  0.79828534890E+02  0.41800000000E+01 0.  1.
         -5    1    3    3    0  502 -0.10987327366E+03 -0.34945839989E+02  0.14238663173E+03  0.18326148884E+03  0.41800000000E+01 0.  1.
        -11    1    1    2    0    0  0.26060518021E+02  0.32135547468E+02  0.10610304236E+02  0.42713259844E+02  0.00000000000E+00 0.  1.
         11    1    1    2    0    0  0.10556696495E+03 -0.58431388153E+02  0.53443910967E+02  0.13196538497E+03  0.00000000000E+00 0. -1.
</event>
<event>
 7    1  0.2651429E-009  0.2264530E+03  0.7561462E-02  0.1129162E+00
         -2   -1    0    0    0  501 -0.00000000000E+00  0.00000000000E+00  0.97585615545E+03  0.97585615545E+03  0.00000000000E+00 0.  1.
          2   -1    0    0  501    0  0.00000000000E+00 -0.00000000000E+00 -0.57094950340E+02  0.57094950340E+02  0.00000000000E+00 0. -1.
         25    2    1    2    0    0 -0.17167740673E+03  0.11877570040E+03  0.50461654063E+03  0.56023763851E+03  0.12509020559E+03 0.  0.
          5    1    3    3  502    0 -0.16677187490E+03  0.13982073837E+03  0.42318602799E+03  0.47588505316E+03  0.41800000000E+01 0. -1.
         -5    1    3    3    0  502 -0.49055318263E+01 -0.21045037968E+02  0.81430512643E+02  0.84352585348E+02  0.41800000000E+01 0. -1.
        -11    1    1    2    0    0  0.49227820365E+02 -0.11782923309E+02  0.18456644752E+03  0.19138178892E+03  0.00000000000E+00 0. -1.
         11    1    1    2    0    0  0.12244958636E+03 -0.10699277709E+03  0.22957821695E+03  0.28133167836E+03  0.00000000000E+00 0.  1.
</event>
<event>
 7    1  0.2651429E-009  0.6302672E+02  0.7561462E-02  0.1385552E+00
         -2   -1    0    0    0  501 -0.00000000000E+00  0.00000000000E+00  0.46849618611E+02  0.46849618611E+02  0.00000000000E+00 0.  1.
          2   -1    0    0  501    0  0.00000000000E+00 -0.00000000000E+00 -0.27132008741E+03  0.27132008741E+03  0.00000000000E+00 0. -1.
         25    2    1    2    0    0  0.36141748049E+01 -0.21591481331E+02 -0.15669303380E+03  0.20169165808E+03  0.12509022253E+03 0.  0.
          5    1    3    3  502    0 -0.26969889837E+01  0.31497547458E+01  0.21161331993E+02  0.21965178721E+02  0.41800000000E+01 0.  1.
         -5    1    3    3    0  502  0.63111637886E+01 -0.24741236077E+02 -0.17785436580E+03  0.17972647936E+03  0.41800000000E+01 0.  1.
        -11    1    1    2    0    0 -0.47325260153E+02  0.52054335305E+01 -0.39798210122E+02  0.62053801783E+02  0.00000000000E+00 0. -1.
         11    1    1    2    0    0  0.43711085348E+02  0.16386047800E+02 -0.27979224868E+02  0.54424246151E+02  0.00000000000E+00 0.  1.
</event>
<event>
 7    1  0.2651429E-009  0.7738788E+02  0.7561462E-02  0.1336632E+00
         -1   -1    0    0    0  501 -0.00000000000E+00  0.00000000000E+00  0.84163348039E+02  0.84163348039E+02  0.00000000000E+00 0.  1.
          1   -1    0    0  501    0  0.00000000000E+00 -0.00000000000E+00 -0.15057077759E+03  0.15057077759E+03  0.00000000000E+00 0. -1.
         25    2    1    2    0    0  0.11068683370E+02  0.15327272321E+02 -0.69152721812E+02  0.14418410825E+03  0.12509803000E+03 0.  0.
          5    1    3    3  502    0  0.27714335898E+02 -0.26153225413E+02 -0.87623243672E+02  0.95641940829E+02  0.41800000000E+01 0.  1.
         -5    1    3    3    0  502 -0.16645652528E+02  0.41480497735E+02  0.18470521860E+02  0.48542167424E+02  0.41800000000E+01 0.  1.
        -11    1    1    2    0    0 -0.40437845658E+02 -0.10589973558E+02  0.28997223665E+02  0.50874412839E+02  0.00000000000E+00 0.  1.
         11    1    1    2    0    0  0.29369162288E+02 -0.47372987635E+01 -0.26251931409E+02  0.39675604542E+02  0.00000000000E+00 0. -1.
</event>
<event>
 7    1  0.2651429E-009  0.1056769E+03  0.7561462E-02  0.1268792E+00
          1   -1    0    0  501    0  0.00000000000E+00  0.00000000000E+00  0.18098515716E+02  0.18098515716E+02  0.00000000000E+00 0. -1.
         -1   -1    0    0    0  501 -0.00000000000E+00 -0.00000000000E+00 -0.78990373437E+03  0.78990373437E+03  0.00000000000E+00 0.  1.
         25    2    1    2    0    0 -0.17881114635E+02  0.28034143599E+02 -0.30332636515E+03  0.32980209145E+03  0.12512748804E+03 0.  0.
          5    1    3    3  502    0  0.45527486720E+02 -0.45163189220E+01 -0.56306109180E+02  0.72670485856E+02  0.41800000000E+01 0. -1.
         -5    1    3    3    0  502 -0.63408601356E+02  0.32550462521E+02 -0.24702025597E+03  0.25713160559E+03  0.41800000000E+01 0. -1.
        -11    1    1    2    0    0 -0.57442021815E+01 -0.56630622739E+02 -0.32822531716E+03  0.33312442438E+03  0.00000000000E+00 0.  1.
         11    1    1    2    0    0  0.23625316817E+02  0.28596479139E+02 -0.14025353634E+03  0.14507573426E+03  0.00000000000E+00 0. -1.
</event>
<event>
 7    1  0.2651429E-009  0.1773286E+03  0.7561462E-02  0.1170414E+00
         -1   -1    0    0    0  501 -0.00000000000E+00  0.00000000000E+00  0.95690052001E+02  0.95690052001E+02  0.00000000000E+00 0.  1.
          1   -1    0    0  501    0  0.00000000000E+00 -0.00000000000E+00 -0.64915862878E+03  0.64915862878E+03  0.00000000000E+00 0. -1.
         25    2    1    2    0    0  0.42640385590E+02 -0.16621088883E+03 -0.69638995106E+02  0.22347693924E+03  0.12509232863E+03 0.  0.
          5    1    3    3  502    0 -0.10620809803E+02 -0.46106441924E+01 -0.50759264668E+02  0.52230594390E+02  0.41800000000E+01 0.  1.
         -5    1    3    3    0  502  0.53261195393E+02 -0.16160024464E+03 -0.18879730438E+02  0.17124634485E+03  0.41800000000E+01 0.  1.
        -11    1    1    2    0    0 -0.16099466896E+00  0.17111393898E+02 -0.46441432808E+01  0.17731153014E+02  0.00000000000E+00 0.  1.
         11    1    1    2    0    0 -0.42479390921E+02  0.14909949494E+03 -0.47918543839E+03  0.50364058852E+03  0.00000000000E+00 0. -1.
</event>
<event>
 7    1  0.2651429E-009  0.1679580E+03  0.7561462E-02  0.1179994E+00
          1   -1    0    0  501    0  0.00000000000E+00  0.00000000000E+00  0.19499700919E+04  0.19499700919E+04  0.00000000000E+00 0. -1.
         -1   -1    0    0    0  501 -0.00000000000E+00 -0.00000000000E+00 -0.20488787738E+02  0.20488787738E+02  0.00000000000E+00 0.  1.
         25    2    1    2    0    0 -0.13299648828E+03 -0.80607319483E+02  0.13202884035E+04  0.13352875218E+04  0.12508273850E+03 0.  0.
          5    1    3    3  502    0 -0.12355948020E+03 -0.40371318113E+02  0.60630383130E+03  0.62009563515E+03  0.41800000000E+01 0. -1.
         -5    1    3    3    0  502 -0.94370080803E+01 -0.40236001370E+02  0.71398457221E+03  0.71519188661E+03  0.41800000000E+01 0. -1.
        -11    1    1    2    0    0  0.64408218687E+02  0.87743116199E+01  0.12493973072E+03  0.14083800443E+03  0.00000000000E+00 0.  1.
         11    1    1    2    0    0  0.68588269593E+02  0.71833007863E+02  0.48425316993E+03  0.49433335345E+03  0.00000000000E+00 0. -1.
</event>
<event>
 7    1  0.2651429E-009  0.1322484E+03  0.7561462E-02  0.1224157E+00
          2   -1    0    0  501    0  0.00000000000E+00  0.00000000000E+00  0.19416663326E+03  0.19416663326E+03  0.00000000000E+00 0.  1.
         -2   -1    0    0    0  501 -0.00000000000E+00 -0.00000000000E+00 -0.12862074826E+03  0.12862074826E+03  0.00000000000E+00 0. -1.
         25    2    1    2    0    0  0.84997178169E+02  0.42766958595E+02 -0.31437910842E+02  0.16030123949E+03  0.12511839233E+03 0.  0.
          5    1    3    3  502    0 -0.97461834346E+01 -0.29638175109E+02  0.11472637622E+02  0.33503780822E+02  0.41800000000E+01 0.  1.
         -5    1    3    3    0  502  0.94743361604E+02  0.72405133705E+02 -0.42910548464E+02  0.12679745867E+03  0.41800000000E+01 0.  1.
        -11    1    1    2    0    0  0.33814298557E+01  0.10146324213E+02 -0.95201732079E+01  0.14318367952E+02  0.00000000000E+00 0. -1.
         11    1    1    2    0    0 -0.88378608025E+02 -0.52913282808E+02  0.10650396905E+03  0.14816777409E+03  0.00000000000E+00 0.  1.
</event>
<event>
 7    1  0.2651429E-009  0.1135443E+03  0.7561462E-02  0.1254144E+00
         -3   -1    0    0    0  501 -0.00000000000E+00  0.00000000000E+00  0.18672094622E+03  0.18672094622E+03  0.00000000000E+00 0.  1.
          3   -1    0    0  501    0  0.00000000000E+00 -0.00000000000E+00 -0.76117927058E+02  0.76117927058E+02  0.00000000000E+00 0. -1.
         25    2    1    2    0    0  0.15859776316E+02 -0.31301243024E+02  0.94400635128E+02  0.16059339059E+03  0.12508979522E+03 0.  0.
          5    1    3    3  502    0 -0.45228747993E+02 -0.44686843948E+02  0.28997542448E+02  0.70006310680E+02  0.41800000000E+01 0.  1.
         -5    1    3    3    0  502  0.61088524309E+02  0.13385600923E+02  0.65403092679E+02  0.90587079908E+02  0.41800000000E+01 0.  1.
        -11    1    1    2    0    0  0.77246204459E+01 -0.32116185094E+02  0.18813530984E+01  0.33085625209E+02  0.00000000000E+00 0. -1.
         11    1    1    2    0    0 -0.23584396762E+02  0.63417428118E+02  0.14321030937E+02  0.69159857482E+02  0.00000000000E+00 0.  1.
</event>
<event>
 7    1  0.2651429E-009  0.1447712E+03  0.7561462E-02  0.1207049E+00
          2   -1    0    0  501    0  0.00000000000E+00  0.00000000000E+00  0.42664756500E+03  0.42664756500E+03  0.00000000000E+00 0. -1.
         -2   -1    0    0    0  501 -0.00000000000E+00 -0.00000000000E+00 -0.68157719123E+02  0.68157719123E+02  0.00000000000E+00 0.  1.
         25    2    1    2    0    0  0.10490062913E+03  0.58592385487E+02  0.11504207229E+03  0.20813179446E+03  0.12508779253E+03 0.  0.
          5    1    3    3  502    0  0.54527415100E+02  0.84117116278E+02  0.11349612239E+03  0.15148521527E+03  0.41800000000E+01 0.  1.
         -5    1    3    3    0  502  0.50373214025E+02 -0.25524730791E+02  0.15459499081E+01  0.56646579193E+02  0.41800000000E+01 0.  1.
        -11    1    1    2    0    0 -0.49516467091E+02  0.31821817106E+01  0.30768214014E+02  0.58383985709E+02  0.00000000000E+00 0.  1.
         11    1    1    2    0    0 -0.55384162034E+02 -0.61774567198E+02  0.21267955956E+03  0.22828950395E+03  0.00000000000E+00 0. -1.
</event>
<event>
 7    1  0.2651429E-009  0.1138848E+03  0.7561462E-02  0.1253540E+00
         -2   -1    0    0    0  501 -0.00000000000E+00  0.00000000000E+00  0.15528022756E+03  0.15528022756E+03  0.00000000000E+00 0.  1.
          2   -1    0    0  501    0  0.00000000000E+00 -0.00000000000E+00 -0.11993338197E+03  0.11993338197E+03  0.00000000000E+00 0. -1.
         25    2    1    2    0    0  0.55012374389E+02 -0.20621387857E+01 -0.39259306155E+02  0.14218961669E+03  0.12508389274E+03 0.  0.
          5    1    3    3  502    0  0.50279489559E+02  0.51367696621E+02  0.54903053976E+01  0.72209993628E+02  0.41800000000E+01 0.  1.
         -5    1    3    3    0  502  0.47328848306E+01 -0.53429835407E+02 -0.44749611552E+02  0.69979623066E+02  0.41800000000E+01 0.  1.
        -11    1    1    2    0    0 -0.49224548654E+02 -0.37564140323E+02  0.19529286977E+02  0.64926988827E+02  0.00000000000E+00 0. -1.
         11    1    1    2    0    0 -0.57878257356E+01  0.39626279108E+02  0.55076864766E+02  0.68097004010E+02  0.00000000000E+00 0.  1.
</event>
<event>
 7    1  0.2651429E-009  0.1101170E+03  0.7561462E-02  0.1260353E+00
         -1   -1    0    0    0  501 -0.00000000000E+00  0.00000000000E+00  0.15016861880E+03  0.15016861880E+03  0.00000000000E+00 0.  1.
          1   -1    0    0  501    0  0.00000000000E+00 -0.00000000000E+00 -0.10705584337E+03  0.10705584337E+03  0.00000000000E+00 0. -1.
         25    2    1    2    0    0 -0.30153670968E+02  0.57169529499E+02  0.13165998581E+02  0.14141921721E+03  0.12509377483E+03 0.  0.
          5    1    3    3  502    0  0.37087915711E+02  0.48728769933E+02  0.34293252692E+02  0.70310071051E+02  0.41800000000E+01 0.  1.
         -5    1    3    3    0  502 -0.67241586679E+02  0.84407595662E+01 -0.21127254111E+02  0.71109146159E+02  0.41800000000E+01 0.  1.
        -11    1    1    2    0    0  0.36754349232E+02 -0.35427686211E+01  0.46423302033E+02  0.59317420448E+02  0.00000000000E+00 0.  1.
         11    1    1    2    0    0 -0.66006782639E+01 -0.53626760878E+02 -0.16476525187E+02  0.56487824512E+02  0.00000000000E+00 0. -1.
</event>
<event>
 7    1  0.2651429E-009  0.1335839E+03  0.7561462E-02  0.1222233E+00
          1   -1    0    0  501    0  0.00000000000E+00  0.00000000000E+00  0.44291142110E+03  0.44291142110E+03  0.00000000000E+00 0. -1.
         -1   -1    0    0    0  501 -0.00000000000E+00 -0.00000000000E+00 -0.40610862827E+02  0.40610862827E+02  0.00000000000E+00 0.  1.
         25    2    1    2    0    0  0.45429184501E+02 -0.64272051190E+02  0.21644934915E+03  0.26209353998E+03  0.12509194852E+03 0.  0.
          5    1    3    3  502    0  0.70567920050E+02  0.77877177670E+01  0.11180415540E+03  0.13250706190E+03  0.41800000000E+01 0.  1.
         -5    1    3    3    0  502 -0.25138735549E+02 -0.72059768957E+02  0.10464519375E+03  0.12958647808E+03  0.41800000000E+01 0.  1.
        -11    1    1    2    0    0 -0.67452562846E+01 -0.23098880001E+02  0.28098500787E+02  0.36994357490E+02  0.00000000000E+00 0.  1.
         11    1    1    2    0    0 -0.38683928217E+02  0.87370931191E+02  0.15775270833E+03  0.18443438645E+03  0.00000000000E+00 0. -1.
</event>
<event>
 7    1  0.2651429E-009  0.1182518E+03  0.7561462E-02  0.1246009E+00
         -2   -1    0    0    0  501 -0.00000000000E+00  0.00000000000E+00  0.54040993074E+03  0.54040993074E+03  0.00000000000E+00 0.  1.
          2   -1    0    0  501    0  0.00000000000E+00 -0.00000000000E+00 -0.36668985590E+02  0.36668985590E+02  0.00000000000E+00 0. -1.
         25    2    1    2    0    0  0.84519888469E+02  0.63527293221E+01  0.33104333494E+03  0.36390053569E+03  0.12509972640E+03 0.  0.
          5    1    3    3  502    0  0.40211689027E+02 -0.56250743813E+02  0.11105868159E+03  0.13089166998E+03  0.41800000000E+01 0. -1.
         -5    1    3    3    0  502  0.44308199442E+02  0.62603473135E+02  0.21998465336E+03  0.23300886571E+03  0.41800000000E+01 0. -1.
        -11    1    1    2    0    0 -0.65460769544E+02 -0.18245219245E+02  0.40549743961E+02  0.79134582263E+02  0.00000000000E+00 0. -1.
         11    1    1    2    0    0 -0.19059118924E+02  0.11892489922E+02  0.13214786625E+03  0.13404379839E+03  0.00000000000E+00 0.  1.
</event>
<event>
 7    1  0.2651429E-009  0.2246336E+03  0.7561462E-02  0.1130475E+00
         -2   -1    0    0    0  501 -0.00000000000E+00  0.00000000000E+00  0.28962815702E+03  0.28962815702E+03  0.00000000000E+00 0.  1.
          2   -1    0    0  501    0  0.00000000000E+00 -0.00000000000E+00 -0.19000212802E+03  0.19000212802E+03  0.00000000000E+00 0. -1.
         25    2    1    2    0    0  0.12485594513E+03  0.16495782136E+03  0.35665445081E+02  0.24437782620E+03  0.12509359737E+03 0.  0.
          5    1    3    3  502    0  0.13333649844E+03  0.87124826500E+02  0.44621791411E+02  0.16546278699E+03  0.41800000000E+01 0.  1.
         -5    1    3    3    0  502 -0.84805533141E+01  0.77832994862E+02 -0.89563463305E+01  0.78915039209E+02  0.41800000000E+01 0.  1.
        -11    1    1    2    0    0 -0.11243376342E+03 -0.11813364856E+03  0.83255268999E+02  0.18310748181E+03  0.00000000000E+00 0.  1.
         11    1    1    2    0    0 -0.12422181709E+02 -0.46824172802E+02 -0.19294685079E+02  0.52144977028E+02  0.00000000000E+00 0. -1.
</event>
<event>
 7    1  0.2651429E-009  0.2601477E+03  0.7561462E-02  0.1107055E+00
         -3   -1    0    0    0  501 -0.00000000000E+00  0.00000000000E+00  0.22856812145E+03  0.22856812145E+03  0.00000000000E+00 0.  1.
          3   -1    0    0  501    0  0.00000000000E+00 -0.00000000000E+00 -0.33936554240E+03  0.33936554240E+03  0.00000000000E+00 0. -1.
         25    2    1    2    0    0 -0.21594309118E+03 -0.13093366757E+03 -0.99901522345E+02  0.29899460740E+03  0.12506964921E+03 0.  0.
          5    1    3    3  502    0 -0.41498790828E+01  0.44503519445E+01 -0.39839982152E+02  0.40518189826E+02  0.41800000000E+01 0. -1.
         -5    1    3    3    0  502 -0.21179321210E+03 -0.13538401952E+03 -0.60061540193E+02  0.25847641758E+03  0.41800000000E+01 0. -1.
        -11    1    1    2    0    0  0.16450284265E+03  0.62669567231E+02  0.21888957711E+02  0.17739161864E+03  0.00000000000E+00 0.  1.
         11    1    1    2    0    0  0.51440248538E+02  0.68264100341E+02 -0.32784856318E+02  0.91547437806E+02  0.00000000000E+00 0. -1.
</event>
<event>
 7    1  0.3697521E-009  0.2816056E+03  0.7561462E-02  0.1094815E+00
          2   -1    0    0  501    0  0.00000000000E+00  0.00000000000E+00  0.84718303324E+03  0.84718303324E+03  0.00000000000E+00 0. -1.
         -2   -1    0    0    0  501 -0.00000000000E+00 -0.00000000000E+00 -0.98910145017E+02  0.98910145017E+02  0.00000000000E+00 0.  1.
         25    2    1    2    0    0  0.10308398258E+02 -0.26069565211E+03  0.48176911644E+03  0.56197572934E+03  0.12508698060E+03 0.  0.
          5    1    3    3  502    0 -0.47119642472E+02 -0.19453905120E+03  0.30844285458E+03  0.36772295290E+03  0.41800000000E+01 0. -1.
         -5    1    3    3    0  502  0.57428040730E+02 -0.66156600905E+02  0.17332626186E+03  0.19425277644E+03  0.41800000000E+01 0. -1.
        -11    1    1    2    0    0 -0.41932754973E+02  0.67014321509E+02  0.60046862466E+02  0.99271853609E+02  0.00000000000E+00 0.  1.
         11    1    1    2    0    0  0.31624356715E+02  0.19368133060E+03  0.20645690932E+03  0.28484559531E+03  0.00000000000E+00 0. -1.
</event>
<event>
 7    1  0.2651429E-009  0.1564045E+03  0.7561462E-02  0.1192817E+00
          3   -1    0    0  501    0  0.00000000000E+00  0.00000000000E+00  0.42297872423E+02  0.42297872423E+02  0.00000000000E+00 0. -1.
         -3   -1    0    0    0  501 -0.00000000000E+00 -0.00000000000E+00 -0.64427701557E+03  0.64427701557E+03  0.00000000000E+00 0.  1.
         25    2    1    2    0    0  0.89515874177E+02  0.82289149598E+02 -0.37324106867E+03  0.41199635973E+03  0.12509000447E+03 0.  0.
          5    1    3    3  502    0  0.11391688224E+03  0.57609767233E+02 -0.21617807287E+03  0.25109036805E+03  0.41800000000E+01 0. -1.
         -5    1    3    3    0  502 -0.24401008060E+02  0.24679382366E+02 -0.15706299580E+03  0.16090599168E+03  0.41800000000E+01 0. -1.
        -11    1    1    2    0    0 -0.67940922622E+02 -0.30550387585E+01 -0.83079121635E+02  0.10736592886E+03  0.00000000000E+00 0.  1.
         11    1    1    2    0    0 -0.21574951555E+02 -0.79234110840E+02 -0.14565895284E+03  0.16721259940E+03  0.00000000000E+00 0. -1.
</event>
<event>
 7    1  0.2651429E-009  0.1090429E+03  0.7561462E-02  0.1262353E+00
         -2   -1    0    0    0  501 -0.00000000000E+00  0.00000000000E+00  0.52451399864E+03  0.52451399864E+03  0.00000000000E+00 0.  1.
          2   -1    0    0  501    0  0.00000000000E+00 -0.00000000000E+00 -0.30062159707E+02  0.30062159707E+02  0.00000000000E+00 0. -1.
         25    2    1    2    0    0  0.59786865267E+01 -0.59754098204E+02  0.33045543837E+03  0.35840537833E+03  0.12508925424E+03 0.  0.
          5    1    3    3  502    0  0.50362984420E+02 -0.39030301000E+02  0.76089632461E+02  0.99332266480E+02  0.41800000000E+01 0. -1.
         -5    1    3    3    0  502 -0.44384297894E+02 -0.20723797204E+02  0.25436580591E+03  0.25907311185E+03  0.41800000000E+01 0. -1.
        -11    1    1    2    0    0  0.84617990887E+01  0.79864855770E+02  0.14157837851E+03  0.16277111074E+03  0.00000000000E+00 0.  1.
         11    1    1    2    0    0 -0.14440485615E+02 -0.20110757565E+02  0.22418022052E+02  0.33399669271E+02  0.00000000000E+00 0. -1.
</event>
<event>
 7    1  0.2651429E-009  0.4020694E+03  0.7561462E-02  0.1043065E+00
          2   -1    0    0  501    0  0.00000000000E+00  0.00000000000E+00  0.80132131248E+03  0.80132131248E+03  0.00000000000E+00 0. -1.
         -2   -1    0    0    0  501 -0.00000000000E+00 -0.00000000000E+00 -0.23347623037E+03  0.23347623037E+03  0.00000000000E+00 0.  1.
         25    2    1    2    0    0 -0.14936714692E+03  0.36994817730E+03  0.13542778677E+03  0.43949974893E+03  0.12508855028E+03 0.  0.
          5    1    3    3  502    0 -0.12004495515E+03  0.26958101913E+03  0.39913209944E+02  0.29781748414E+03  0.41800000000E+01 0.  1.
         -5    1    3    3    0  502 -0.29322191767E+02  0.10036715817E+03  0.95514576823E+02  0.14168226479E+03  0.41800000000E+01 0.  1.
        -11    1    1    2    0    0  0.81014022668E+02 -0.27941517647E+03  0.34976786043E+03  0.45494358870E+03  0.00000000000E+00 0. -1.
         11    1    1    2    0    0  0.68353124249E+02 -0.90533000825E+02  0.82649434907E+02  0.14035420522E+03  0.00000000000E+00 0.  1.
</event>
<event>
 7    1  0.2651429E-009  0.9726983E+02  0.7561462E-02  0.1286144E+00
          3   -1    0    0  501    0  0.00000000000E+00  0.00000000000E+00  0.63767896201E+02  0.63767896201E+02  0.00000000000E+00 0. -1.
         -3   -1    0    0    0  501 -0.00000000000E+00 -0.00000000000E+00 -0.38283161714E+03  0.38283161714E+03  0.00000000000E+00 0.  1.
         25    2    1    2    0    0  0.86448763584E+02 -0.77355303132E+01 -0.27405419938E+03  0.31350583289E+03  0.12508787273E+03 0.  0.
          5    1    3    3  502    0  0.65582928929E+02 -0.27048473509E+02 -0.27570936669E+03  0.28472068377E+03  0.41800000000E+01 0.  1.
         -5    1    3    3    0  502  0.20865834655E+02  0.19312943196E+02  0.16551673163E+01  0.28785149115E+02  0.41800000000E+01 0.  1.
        -11    1    1    2    0    0 -0.60314193295E+02  0.22907674926E+02  0.14701043359E+02  0.66171626542E+02  0.00000000000E+00 0. -1.
         11    1    1    2    0    0 -0.26134570289E+02 -0.15172144613E+02 -0.59710564922E+02  0.66922053910E+02  0.00000000000E+00 0.  1.
</event>
<event>
 7    1  0.2651429E-009  0.8311122E+02  0.7561462E-02  0.1320447E+00
          2   -1    0    0  501    0  0.00000000000E+00  0.00000000000E+00  0.59498337924E+02  0.59498337924E+02  0.00000000000E+00 0. -1.
         -2   -1    0    0    0  501 -0.00000000000E+00 -0.00000000000E+00 -0.27538090259E+03  0.27538090259E+03  0.00000000000E+00 0.  1.
         25    2    1    2    0    0  0.42447092541E+02 -0.24868866421E+02 -0.17344274273E+03  0.21942183777E+03  0.12507334530E+03 0.  0.
          5    1    3    3  502    0  0.29771976141E+02  0.28610373957E+02 -0.45359323403E+01  0.41748905896E+02  0.41800000000E+01 0. -1.
         -5    1    3    3    0  502  0.12675116400E+02 -0.53479240377E+02 -0.16890681039E+03  0.17767293188E+03  0.41800000000E+01 0. -1.
        -11    1    1    2    0    0 -0.26517988010E+02 -0.12248528634E+02 -0.63506835673E+02  0.69902419979E+02  0.00000000000E+00 0.  1.
         11    1    1    2    0    0 -0.15929104531E+02  0.37117395054E+02  0.21067013734E+02  0.45554982762E+02  0.00000000000E+00 0. -1.
</event>
<event>
 7    1  0.2651429E-009  0.1113793E+03  0.7561462E-02  0.1258037E+00
          2   -1    0    0  501    0  0.00000000000E+00  0.00000000000E+00  0.51099131249E+03  0.51099131249E+03  0.00000000000E+00 0.  1.
         -2   -1    0    0    0  501 -0.00000000000E+00 -0.00000000000E+00 -0.35371773023E+02  0.35371773023E+02  0.00000000000E+00 0. -1.
         25    2    1    2    0    0 -0.57637459010E+02  0.44500617613E+02  0.34066955914E+03  0.37014277483E+03  0.12509014185E+03 0.  0.
          5    1    3    3  502    0 -0.69980250189E+02  0.59675351015E+02  0.33757337260E+03  0.34990232526E+03  0.41800000000E+01 0. -1.
         -5    1    3    3    0  502  0.12342791179E+02 -0.15174733401E+02  0.30961865436E+01  0.20240449575E+02  0.41800000000E+01 0. -1.
        -11    1    1    2    0    0  0.35579045399E+02 -0.69056676367E+02  0.11080489385E+03  0.13532338129E+03  0.00000000000E+00 0.  1.
         11    1    1    2    0    0  0.22058413611E+02  0.24556058754E+02  0.24145086478E+02  0.40896929391E+02  0.00000000000E+00 0. -1.
</event>
<event>
 7    1  0.2651429E-009  0.2091069E+03  0.7561462E-02  0.1142275E+00
         -2   -1    0    0    0  501 -0.00000000000E+00  0.00000000000E+00  0.10063632986E+04  0.10063632986E+04  0.00000000000E+00 0.  1.
          2   -1    0    0  501    0  0.00000000000E+00 -0.00000000000E+00 -0.48357010187E+02  0.48357010187E+02  0.00000000000E+00 0. -1.
         25    2    1    2    0    0  0.15008045819E+03 -0.11479312411E+03  0.48430731143E+03  0.53469898196E+03  0.12509126321E+03 0.  0.
          5    1    3    3  502    0  0.12258371085E+03 -0.15724051754E+02  0.25895277213E+03  0.28696345162E+03  0.41800000000E+01 0.  1.
         -5    1    3    3    0  502  0.27496747338E+02 -0.99069072358E+02  0.22535453930E+03  0.24773553035E+03  0.41800000000E+01 0.  1.
        -11    1    1    2    0    0 -0.12669793184E+03  0.11000116754E+03  0.46544777340E+03  0.49476686688E+03  0.00000000000E+00 0.  1.
         11    1    1    2    0    0 -0.23382526349E+02  0.47919565752E+01  0.82512035622E+01  0.25254459933E+02  0.00000000000E+00 0. -1.
</event>
<event>
 7    1  0.2651429E-009  0.7545740E+02  0.7561462E-02  0.1342460E+00
         -2   -1    0    0    0  501 -0.00000000000E+00  0.00000000000E+00  0.41425275079E+02  0.41425275079E+02  0.00000000000E+00 0.  1.
          2   -1    0    0  501    0  0.00000000000E+00 -0.00000000000E+00 -0.30823053831E+03  0.30823053831E+03  0.00000000000E+00 0. -1.
         25    2    1    2    0    0 -0.27956527713E+02  0.16998534983E+02 -0.20037164692E+03  0.23846761806E+03  0.12508992900E+03 0.  0.
          5    1    3    3  502    0  0.10929716575E+02 -0.36237970862E+02 -0.15172183437E+03  0.15642773623E+03  0.41800000000E+01 0. -1.
         -5    1    3    3    0  502 -0.38886244289E+02  0.53236505845E+02 -0.48649812554E+02  0.82039881832E+02  0.41800000000E+01 0. -1.
        -11    1    1    2    0    0  0.10873599977E+02 -0.25480027284E+02 -0.82010352672E+02  0.86563068986E+02  0.00000000000E+00 0. -1.
         11    1    1    2    0    0  0.17082927737E+02  0.84814923011E+01  0.15576736365E+02  0.24625126345E+02  0.00000000000E+00 0.  1.
</event>
<event>
 7    1  0.2651429E-009  0.6315205E+02  0.7561462E-02  0.1385061E+00
          1   -1    0    0  501    0  0.00000000000E+00  0.00000000000E+00  0.19573658346E+03  0.19573658346E+03  0.00000000000E+00 0. -1.
         -1   -1    0    0    0  501 -0.00000000000E+00 -0.00000000000E+00 -0.65708220130E+02  0.65708220130E+02  0.00000000000E+00 0.  1.
         25    2    1    2    0    0  0.74358693689E+01 -0.42223268258E+01  0.11639329962E+03  0.17108747466E+03  0.12510157310E+03 0.  0.
          5    1    3    3  502    0  0.23044339343E+02 -0.12314314314E+02  0.13936769244E+03  0.14185735796E+03  0.41800000000E+01 0. -1.
         -5    1    3    3    0  502 -0.15608469974E+02  0.80919874880E+01 -0.22974392820E+02  0.29230116693E+02  0.41800000000E+01 0. -1.
        -11    1    1    2    0    0 -0.18146775344E+02  0.40268406149E+02 -0.10853875138E+02  0.45482486681E+02  0.00000000000E+00 0.  1.
         11    1    1    2    0    0  0.10710905975E+02 -0.36046079323E+02  0.24488938853E+02  0.44874842256E+02  0.00000000000E+00 0. -1.
</event>
<event>
 7    1  0.2651429E-009  0.6401862E+02  0.7561462E-02  0.1381702E+00
          3   -1    0    0  501    0  0.00000000000E+00  0.00000000000E+00  0.12121135030E+03  0.12121135030E+03  0.00000000000E+00 0. -1.
         -3   -1    0    0    0  501 -0.00000000000E+00 -0.00000000000E+00 -0.10741023197E+03  0.10741023197E+03  0.00000000000E+00 0.  1.
         25    2    1    2    0    0  0.26260100151E+02 -0.17517682490E+02  0.29378857667E+02  0.13231413104E+03  0.12508976751E+03 0.  0.
          5    1    3    3  502    0  0.19663209247E+02 -0.14195424218E+02  0.78602136870E+02  0.82364556620E+02  0.41800000000E+01 0. -1.
         -5    1    3    3    0  502  0.65968909042E+01 -0.33222582713E+01 -0.49223279203E+02  0.49949574424E+02  0.41800000000E+01 0. -1.
        -11    1    1    2    0    0  0.15582461201E+02  0.43145850844E+02 -0.97171110526E+01  0.46891361564E+02  0.00000000000E+00 0.  1.
         11    1    1    2    0    0 -0.41842561353E+02 -0.25628168354E+02 -0.58606282894E+01  0.49416089664E+02  0.00000000000E+00 0. -1.
</event>
<event>
 7    1  0.2651429E-009  0.3148478E+03  0.7561462E-02  0.1078045E+00
         -2   -1    0    0    0  501 -0.00000000000E+00  0.00000000000E+00  0.26670251695E+03  0.26670251695E+03  0.00000000000E+00 0.  1.
          2   -1    0    0  501    0  0.00000000000E+00 -0.00000000000E+00 -0.64263769474E+03  0.64263769474E+03  0.00000000000E+00 0. -1.
         25    2    1    2    0    0 -0.29409794667E+03 -0.54378393110E+02 -0.48083320441E+03  0.57991155772E+03  0.12508490095E+03 0.  0.
          5    1    3    3  502    0 -0.22513372142E+03 -0.94556666032E+02 -0.35821572232E+03  0.43354599724E+03  0.41800000000E+01 0.  1.
         -5    1    3    3    0  502 -0.68964225246E+02  0.40178272922E+02 -0.12261748209E+03  0.14636556048E+03  0.41800000000E+01 0.  1.
        -11    1    1    2    0    0  0.25664410580E+02  0.24463629270E+02 -0.85540472704E+01  0.36473316989E+02  0.00000000000E+00 0. -1.
         11    1    1    2    0    0  0.26843353609E+03  0.29914763840E+02  0.11345207390E+03  0.29295533698E+03  0.00000000000E+00 0.  1.
</event>
<event>
 7    1  0.2651429E-009  0.6259942E+02  0.7561462E-02  0.1387236E+00
         -2   -1    0    0    0  501 -0.00000000000E+00  0.00000000000E+00  0.96665355475E+02  0.96665355475E+02  0.00000000000E+00 0.  1.
          2   -1    0    0  501    0  0.00000000000E+00 -0.00000000000E+00 -0.13434826366E+03  0.13434826366E+03  0.00000000000E+00 0. -1.
         25    2    1    2    0    0 -0.28492274173E+01  0.17091512341E+02 -0.50693678174E+02  0.13607960827E+03  0.12509025897E+03 0.  0.
          5    1    3    3  502    0  0.13993333460E+02 -0.45499391715E-01 -0.89260984561E+02  0.90447836991E+02  0.41800000000E+01 0.  1.
         -5    1    3    3    0  502 -0.16842560877E+02  0.17137011733E+02  0.38567306387E+02  0.45631771278E+02  0.41800000000E+01 0.  1.
        -11    1    1    2    0    0 -0.37660332405E+02  0.80733053813E+01  0.24799086926E+02  0.45809099631E+02  0.00000000000E+00 0.  1.
         11    1    1    2    0    0  0.40509559822E+02 -0.25164817722E+02 -0.11788316941E+02  0.49124911240E+02  0.00000000000E+00 0. -1.
</event>
<event>
 7    1  0.2651429E-009  0.1150608E+03  0.7561462E-02  0.1251475E+00
          2   -1    0    0  501    0  0.00000000000E+00  0.00000000000E+00  0.16046171546E+04  0.16046171546E+04  0.00000000000E+00 0. -1.
         -2   -1    0    0    0  501 -0.00000000000E+00 -0.00000000000E+00 -0.10474747517E+02  0.10474747517E+02  0.00000000000E+00 0.  1.
         25    2    1    2    0    0 -0.46000491311E+02  0.29461070203E+02  0.11563575697E+04  0.11643857468E+04  0.12508932165E+03 0.  0.
          5    1    3    3  502    0 -0.46817562367E+02  0.74351350570E+02  0.87853625219E+03  0.88292889084E+03  0.41800000000E+01 0. -1.
         -5    1    3    3    0  502  0.81707105510E+00 -0.44890280368E+02  0.27782131752E+03  0.28145685592E+03  0.41800000000E+01 0. -1.
        -11    1    1    2    0    0  0.66367157071E+02 -0.69819596899E+01  0.37600838837E+03  0.38188434823E+03  0.00000000000E+00 0. -1.
         11    1    1    2    0    0 -0.20366665759E+02 -0.22479110513E+02  0.61776448993E+02  0.68821807109E+02  0.00000000000E+00 0.  1.
</event>
<event>
 7    1  0.2651429E-009  0.1112190E+03  0.7561462E-02  0.1258329E+00
         -1   -1    0    0    0  501 -0.00000000000E+00  0.00000000000E+00  0.15950896230E+03  0.15950896230E+03  0.00000000000E+00 0.  1.
          1   -1    0    0  501    0  0.00000000000E+00 -0.00000000000E+00 -0.92889064378E+02  0.92889064378E+02  0.00000000000E+00 0. -1.
         25    2    1    2    0    0 -0.46208802589E+02  0.89277806754E+00  0.62943298015E+02  0.14746232546E+03  0.12508888110E+03 0.  0.
          5    1    3    3  502    0 -0.85192705083E+02  0.68807838330E+01  0.65432970346E+02  0.10772227343E+03  0.41800000000E+01 0.  1.
         -5    1    3    3    0  502  0.38983902494E+02 -0.59880057654E+01 -0.24896723310E+01  0.39740052026E+02  0.41800000000E+01 0.  1.
        -11    1    1    2    0    0 -0.24005082835E+02  0.10267016575E+02  0.18896777810E+02  0.32229549219E+02  0.00000000000E+00 0.  1.
         11    1    1    2    0    0  0.70213885424E+02 -0.11159794642E+02 -0.15220177905E+02  0.72706151997E+02  0.00000000000E+00 0. -1.
</event>
<event>
 7    1  0.2651429E-009  0.2014804E+03  0.7561462E-02  0.1148496E+00
         -2   -1    0    0    0  501 -0.00000000000E+00  0.00000000000E+00  0.44830713525E+03  0.44830713525E+03  0.00000000000E+00 0.  1.
          2   -1    0    0  501    0  0.00000000000E+00 -0.00000000000E+00 -0.97723034211E+02  0.97723034211E+02  0.00000000000E+00 0. -1.
         25    2    1    2    0    0  0.85986678527E+02 -0.15299901182E+03  0.12662928154E+03  0.24996798419E+03  0.12508641682E+03 0.  0.
          5    1    3    3  502    0  0.11367483902E+03 -0.85268275203E+02  0.86496510454E+02  0.16640843279E+03  0.41800000000E+01 0.  1.
         -5    1    3    3    0  502 -0.27688160495E+02 -0.67730736620E+02  0.40132771084E+02  0.83559551396E+02  0.41800000000E+01 0.  1.
        -11    1    1    2    0    0 -0.88940996781E+02  0.97663824373E+02  0.12097257180E+03  0.17911752183E+03  0.00000000000E+00 0. -1.
         11    1    1    2    0    0  0.29543182544E+01  0.55335187449E+02  0.10298224770E+03  0.11694466344E+03  0.00000000000E+00 0.  1.
</event>
<event>
 7    1  0.2651429E-009  0.1320396E+03  0.7561462E-02  0.1224460E+00
          2   -1    0    0  501    0  0.00000000000E+00  0.00000000000E+00  0.13039202526E+04  0.13039202526E+04  0.00000000000E+00 0. -1.
         -2   -1    0    0    0  501 -0.00000000000E+00 -0.00000000000E+00 -0.15038978628E+02  0.15038978628E+02  0.00000000000E+00 0.  1.
         25    2    1    2    0    0 -0.35969779137E+02 -0.73022049114E+02  0.68525495655E+03  0.70131871717E+03  0.12509013915E+03 0.  0.
          5    1    3    3  502    0  0.31113305367E+02 -0.64265707776E+02  0.47643216575E+03  0.48177089984E+03  0.41800000000E+01 0.  1.
         -5    1    3    3    0  502 -0.67083084504E+02 -0.87563413381E+01  0.20882279079E+03  0.21954781733E+03  0.41800000000E+01 0.  1.
        -11    1    1    2    0    0 -0.29349569207E+02  0.37917545869E+01  0.77181188521E+02  0.82660210966E+02  0.00000000000E+00 0.  1.
         11    1    1    2    0    0  0.65319348344E+02  0.69230294528E+02  0.52644512887E+03  0.53498030306E+03  0.00000000000E+00 0. -1.
</event>
<event>
 7    1  0.2651429E-009  0.3287369E+03  0.7561462E-02  0.1071697E+00
         -1   -1    0    0    0  501 -0.00000000000E+00  0.00000000000E+00  0.19099485649E+03  0.19099485649E+03  0.00000000000E+00 0.  1.
          1   -1    0    0  501    0  0.00000000000E+00 -0.00000000000E+00 -0.59597324475E+03  0.59597324475E+03  0.00000000000E+00 0. -1.
         25    2    1    2    0    0 -0.31538387351E+03  0.85625886430E+01 -0.14921877295E+03  0.37075641007E+03  0.12511501835E+03 0.  0.
          5    1    3    3  502    0 -0.12952763695E+03 -0.57644313276E+02 -0.55762113435E+02  0.15240459731E+03  0.41800000000E+01 0. -1.
         -5    1    3    3    0  502 -0.18585623656E+03  0.66206901919E+02 -0.93456659514E+02  0.21835181276E+03  0.41800000000E+01 0. -1.
        -11    1    1    2    0    0  0.26069615060E+03  0.90176567883E+01 -0.24480289999E+03  0.35773210775E+03  0.00000000000E+00 0. -1.
         11    1    1    2    0    0  0.54687722904E+02 -0.17580245431E+02 -0.10956715331E+02  0.58479583417E+02  0.00000000000E+00 0.  1.
</event>
<event>
 7    1  0.2651429E-009  0.1572137E+03  0.7561462E-02  0.1191879E+00
          2   -1    0    0  501    0  0.00000000000E+00  0.00000000000E+00  0.79148167107E+03  0.79148167107E+03  0.00000000000E+00 0. -1.
         -2   -1    0    0    0  501 -0.00000000000E+00 -0.00000000000E+00 -0.36681943442E+02  0.36681943442E+02  0.00000000000E+00 0.  1.
         25    2    1    2    0    0  0.46590043016E+02 -0.11661880107E+03  0.30821013809E+03  0.35554357174E+03  0.12508862983E+03 0.  0.
          5    1    3    3  502    0 -0.27772251929E+02 -0.92486928895E+02  0.19826775379E+03  0.22057358089E+03  0.41800000000E+01 0. -1.
         -5    1    3    3    0  502  0.74362294945E+02 -0.24131872171E+02  0.10994238429E+03  0.13496999084E+03  0.41800000000E+01 0. -1.
        -11    1    1    2    0    0  0.64379217373E+01  0.65525884833E+02  0.11110322637E+03  0.12914726218E+03  0.00000000000E+00 0. -1.
         11    1    1    2    0    0 -0.53027964754E+02  0.51092916233E+02  0.33548636317E+03  0.34347278060E+03  0.00000000000E+00 0.  1.
</event>
<event>
 7    1  0.2651429E-009  0.9587656E+02  0.7561462E-02  0.1289214E+00
         -1   -1    0    0    0  501 -0.00000000000E+00  0.00000000000E+00  0.15475637189E+03  0.15475637189E+03  0.00000000000E+00 0.  1.
          1   -1    0    0  501    0  0.00000000000E+00 -0.00000000000E+00 -0.79558496031E+02  0.79558496031E+02  0.00000000000E+00 0. -1.
         25    2    1    2    0    0 -0.25504525625E+02 -0.10078813334E+02  0.53363587094E+02  0.13873040218E+03  0.12508552576E+03 0.  0.
          5    1    3    3  502    0 -0.14693063936E+02 -0.60085692074E+02 -0.35353928820E+01  0.62097889840E+02  0.41800000000E+01 0.  1.
         -5    1    3    3    0  502 -0.10811461689E+02  0.50006878740E+02  0.56898979976E+02  0.76632512339E+02  0.41800000000E+01 0.  1.
        -11    1    1    2    0    0  0.47484470205E+02  0.23174503612E+02 -0.10987930712E+02  0.53968204988E+02  0.00000000000E+00 0. -1.
         11    1    1    2    0    0 -0.21979944580E+02 -0.13095690278E+02  0.32822219480E+02  0.41616260755E+02  0.00000000000E+00 0.  1.
</event>
<event>
 7    1  0.2651429E-009  0.7844258E+02  0.7561462E-02  0.1333530E+00
         -3   -1    0    0    0  501 -0.00000000000E+00  0.00000000000E+00  0.13215377263E+03  0.13215377263E+03  0.00000000000E+00 0.  1.
          3   -1    0    0  501    0  0.00000000000E+00 -0.00000000000E+00 -0.14887469377E+03  0.14887469377E+03  0.00000000000E+00 0. -1.
         25    2    1    2    0    0  0.49958053187E+02 -0.49818304007E+02 -0.63100311162E+02  0.15686716470E+03  0.12509191661E+03 0.  0.
          5    1    3    3  502    0  0.48641402479E+02 -0.24355891638E+02 -0.98761856320E+02  0.11282983717E+03  0.41800000000E+01 0. -1.
         -5    1    3    3    0  502  0.13166507087E+01 -0.25462412370E+02  0.35661545159E+02  0.44037327529E+02  0.41800000000E+01 0. -1.
        -11    1    1    2    0    0 -0.52206816443E+02  0.38288032708E+02  0.71483902906E+02  0.96444147083E+02  0.00000000000E+00 0.  1.
         11    1    1    2    0    0  0.22487632561E+01  0.11530271299E+02 -0.25104512886E+02  0.27717154609E+02  0.00000000000E+00 0. -1.
</event>
<event>
 7    1  0.2651429E-009  0.1423084E+03  0.7561462E-02  0.1210256E+00
         -1   -1    0    0    0  501 -0.00000000000E+00  0.00000000000E+00  0.65618180472E+02  0.65618180472E+02  0.00000000000E+00 0.  1.
          1   -1    0    0  501    0  0.00000000000E+00 -0.00000000000E+00 -0.33617390085E+03  0.33617390085E+03  0.00000000000E+00 0. -1.
         25    2    1    2    0    0 -0.72297182540E+02 -0.69619495162E+02 -0.16580917970E+03  0.23068031339E+03  0.12508783396E+03 0.  0.
          5    1    3    3  502    0  0.27685722736E+02  0.12745495617E+02 -0.31050759166E+02  0.43710055442E+02  0.41800000000E+01 0. -1.
         -5    1    3    3    0  502 -0.99982905276E+02 -0.82364990779E+02 -0.13475842053E+03  0.18697025795E+03  0.41800000000E+01 0. -1.
        -11    1    1    2    0    0  0.40128388370E+01  0.54062856898E+02 -0.13104376504E+02  0.55772932997E+02  0.00000000000E+00 0.  1.
         11    1    1    2    0    0  0.68284343703E+02  0.15556638264E+02 -0.91642164176E+02  0.11533883493E+03  0.00000000000E+00 0. -1.
</event>
<event>
 7    1  0.2651429E-009  0.1416154E+03  0.7561462E-02  0.1211172E+00
          3   -1    0    0  501    0  0.00000000000E+00  0.00000000000E+00  0.31733088896E+03  0.31733088896E+03  0.00000000000E+00 0. -1.
         -3   -1    0    0    0  501 -0.00000000000E+00 -0.00000000000E+00 -0.90952568183E+02  0.90952568183E+02  0.00000000000E+00 0.  1.
         25    2    1    2    0    0 -0.12867858302E+03 -0.10830233126E+02  0.10753791635E+03  0.20949091723E+03  0.12508624733E+03 0.  0.
          5    1    3    3  502    0 -0.11473881927E+03  0.14669369143E+02  0.20390384342E+02  0.11753053736E+03  0.41800000000E+01 0.  1.
         -5    1    3    3    0  502 -0.13939763743E+02 -0.25499602269E+02  0.87147532011E+02  0.91960379863E+02  0.41800000000E+01 0.  1.
        -11    1    1    2    0    0  0.25549719870E+02  0.22873454035E+02 -0.76598438584E+01  0.35137676259E+02  0.00000000000E+00 0.  1.
         11    1    1    2    0    0  0.10312886314E+03 -0.12043220909E+02  0.12650024828E+03  0.16365486366E+03  0.00000000000E+00 0. -1.
</event>
<event>
 7    1  0.2651429E-009  0.9388317E+02  0.7561462E-02  0.1293711E+00
         -2   -1    0    0    0  501 -0.00000000000E+00  0.00000000000E+00  0.23885450135E+02  0.23885450135E+02  0.00000000000E+00 0.  1.
          2   -1    0    0  501    0  0.00000000000E+00 -0.00000000000E+00 -0.79222809681E+03  0.79222809681E+03  0.00000000000E+00 0. -1.
         25    2    1    2    0    0 -0.41656633301E+02  0.67877258831E+02 -0.52993159314E+03  0.55029396180E+03  0.12511336309E+03 0.  0.
          5    1    3    3  502    0  0.95735109109E+01 -0.32761600853E+01  0.20338904684E+01  0.11135279363E+02  0.41800000000E+01 0. -1.
         -5    1    3    3    0  502 -0.51230144212E+02  0.71153418916E+02 -0.53196548361E+03  0.53915868244E+03  0.41800000000E+01 0. -1.
        -11    1    1    2    0    0  0.31944029409E+02 -0.71785326279E+02 -0.24224615489E+03  0.25466989152E+03  0.00000000000E+00 0. -1.
         11    1    1    2    0    0  0.97126038923E+01  0.39080674484E+01  0.38351013578E+01  0.11149693627E+02  0.00000000000E+00 0.  1.
</event>
<event>
 7    1  0.2651429E-009  0.3298289E+03  0.7561462E-02  0.1071213E+00
          1   -1    0    0  501    0  0.00000000000E+00  0.00000000000E+00  0.10783935129E+04  0.10783935129E+04  0.00000000000E+00 0. -1.
         -1   -1    0    0    0  501 -0.00000000000E+00 -0.00000000000E+00 -0.15763673436E+03  0.15763673436E+03  0.00000000000E+00 0.  1.
         25    2    1    2    0    0  0.17122528917E+03  0.27461818743E+03  0.11853936705E+03  0.36665137504E+03  0.12509356803E+03 0.  0.
          5    1    3    3  502    0 -0.74523450577E+01  0.39558518308E+02 -0.14211806108E+02  0.42893608503E+02  0.41800000000E+01 0.  1.
         -5    1    3    3    0  502  0.17867763423E+03  0.23505966912E+03  0.13275117315E+03  0.32375776654E+03  0.41800000000E+01 0.  1.
        -11    1    1    2    0    0 -0.56676167912E+02 -0.10295282879E+03  0.40558409624E+03  0.42226760720E+03  0.00000000000E+00 0.  1.
         11    1    1    2    0    0 -0.11454912126E+03 -0.17166535864E+03  0.39663331520E+03  0.44711126497E+03  0.00000000000E+00 0. -1.
</event>
<event>
 6    1  0.2651429E-009  0.1583955E+03  0.7561462E-02  0.1190520E+00
         -1   -1    0    0    0  501 -0.00000000000E+00  0.00000000000E+00  0.16154772869E+02  0.16154772869E+02  0.00000000000E+00 0.  1.
          1   -1    0    0  501    0  0.00000000000E+00 -0.00000000000E+00 -0.26007833212E+04  0.26007833212E+04  0.00000000000E+00 0. -1.
          5    1    1    2  502    0  0.63666123823E+02 -0.82420305407E+02 -0.15057184756E+04  0.15093217292E+04  0.41800000000E+01 0.  1.
         -5    1    1    2    0  502  0.65525910429E+02  0.29444706528E+02 -0.50152415640E+03  0.50666022888E+03  0.41800000000E+01 0.  1.
        -11    1    1    2    0    0 -0.81986582606E+02  0.42080336523E+02 -0.50824032763E+03  0.51652762277E+03  0.00000000000E+00 0. -1.
         11    1    1    2    0    0 -0.47205451647E+02  0.10895262355E+02 -0.69145588661E+02  0.84428513182E+02  0.00000000000E+00 0.  1.
</event>
<event>
 7    1  0.2651429E-009  0.1004615E+03  0.7561462E-02  0.1279329E+00
          2   -1    0    0  501    0  0.00000000000E+00  0.00000000000E+00  0.73948195617E+02  0.73948195617E+02  0.00000000000E+00 0. -1.
         -2   -1    0    0    0  501 -0.00000000000E+00 -0.00000000000E+00 -0.19868260038E+03  0.19868260038E+03  0.00000000000E+00 0.  1.
         25    2    1    2    0    0 -0.46637180110E+02 -0.24561936622E+02 -0.84056067392E+02  0.15966070648E+03  0.12509118046E+03 0.  0.
          5    1    3    3  502    0  0.17120086806E+02  0.13927869022E+02  0.21044773566E+02  0.30780477615E+02  0.41800000000E+01 0. -1.
         -5    1    3    3    0  502 -0.63757266916E+02 -0.38489805644E+02 -0.10510084096E+03  0.12888022887E+03  0.41800000000E+01 0. -1.
        -11    1    1    2    0    0 -0.95333647840E+01  0.43545743489E+02 -0.80652412741E+01  0.45300827111E+02  0.00000000000E+00 0. -1.
         11    1    1    2    0    0  0.56170544894E+02 -0.18983806867E+02 -0.32613096094E+02  0.67669262400E+02  0.00000000000E+00 0.  1.
</event>
<event>
 7    1  0.2651429E-009  0.7784392E+02  0.7561462E-02  0.1335284E+00
          2   -1    0    0  501    0  0.00000000000E+00  0.00000000000E+00  0.55168530624E+03  0.55168530624E+03  0.00000000000E+00 0. -1.
         -2   -1    0    0    0  501 -0.00000000000E+00 -0.00000000000E+00 -0.24918667674E+02  0.24918667674E+02  0.00000000000E+00 0.  1.
         25    2    1    2    0    0 -0.16038070329E+02  0.41513309777E+02  0.30053037266E+03  0.32855169104E+03  0.12508850549E+03 0.  0.
          5    1    3    3  502    0  0.34672515054E+02  0.15636145811E+02  0.21805431444E+02  0.44041135277E+02  0.41800000000E+01 0. -1.
         -5    1    3    3    0  502 -0.50710585383E+02  0.25877163966E+02  0.27872494121E+03  0.28451055576E+03  0.41800000000E+01 0. -1.
        -11    1    1    2    0    0 -0.12568831366E+02 -0.40557155375E+01 -0.33930543016E+01  0.13635877967E+02  0.00000000000E+00 0.  1.
         11    1    1    2    0    0  0.28606901695E+02 -0.37457594239E+02  0.22962932022E+03  0.23441640492E+03  0.00000000000E+00 0. -1.
</event>
<event>
 7    1  0.2651429E-009  0.1086445E+03  0.7561462E-02  0.1263101E+00
          2   -1    0    0  501    0  0.00000000000E+00  0.00000000000E+00  0.10851035669E+03  0.10851035669E+03  0.00000000000E+00 0. -1.
         -2   -1    0    0    0  501 -0.00000000000E+00 -0.00000000000E+00 -0.11624496325E+03  0.11624496325E+03  0.00000000000E+00 0.  1.
         25    2    1    2    0    0 -0.19451431333E+02 -0.78315026083E+01 -0.11760719643E+02  0.12738099442E+03  0.12509161682E+03 0.  0.
          5    1    3    3  502    0 -0.68296870980E+02  0.16346796248E+02  0.40845057269E+01  0.70468687516E+02  0.41800000000E+01 0. -1.
         -5    1    3    3    0  502  0.48845439647E+02 -0.24178298856E+02 -0.15845225370E+02  0.56912306902E+02  0.41800000000E+01 0. -1.
        -11    1    1    2    0    0  0.45551964782E+02 -0.23696462181E+02 -0.13122560686E+02  0.52997220817E+02  0.00000000000E+00 0. -1.
         11    1    1    2    0    0 -0.26100533449E+02  0.31527964790E+02  0.17148673773E+02  0.44377104708E+02  0.00000000000E+00 0.  1.
</event>
<event>
 7    1  0.2651429E-009  0.2833963E+03  0.7561462E-02  0.1093848E+00
          1   -1    0    0  501    0  0.00000000000E+00  0.00000000000E+00  0.59462571784E+03  0.59462571784E+03  0.00000000000E+00 0. -1.
         -1   -1    0    0    0  501 -0.00000000000E+00 -0.00000000000E+00 -0.13828051160E+03  0.13828051160E+03  0.00000000000E+00 0.  1.
         25    2    1    2    0    0  0.94486944623E+02  0.24468853540E+03  0.18380649812E+03  0.34384859509E+03  0.12508703185E+03 0.  0.
          5    1    3    3  502    0 -0.81097768503E+01 -0.10741285939E+02  0.16504213388E+02  0.21702653380E+02  0.41800000000E+01 0. -1.
         -5    1    3    3    0  502  0.10259672147E+03  0.25542982134E+03  0.16730228473E+03  0.32214594171E+03  0.41800000000E+01 0. -1.
        -11    1    1    2    0    0 -0.57020928673E+02 -0.40833079277E+02  0.61921708659E+02  0.93557600831E+02  0.00000000000E+00 0. -1.
         11    1    1    2    0    0 -0.37466015949E+02 -0.20385545612E+03  0.21061699946E+03  0.29550003351E+03  0.00000000000E+00 0.  1.
</event>
<event>
 7    1  0.2651429E-009  0.8402076E+02  0.7561462E-02  0.1318013E+00
         -2   -1    0    0    0  501 -0.00000000000E+00  0.00000000000E+00  0.26605520609E+02  0.26605520609E+02  0.00000000000E+00 0.  1.
          2   -1    0    0  501    0  0.00000000000E+00 -0.00000000000E+00 -0.12358369978E+04  0.12358369978E+04  0.00000000000E+00 0. -1.
         25    2    1    2    0    0 -0.10218225242E+02 -0.66915988718E+02 -0.10851094069E+04  0.10943909210E+04  0.12508757520E+03 0.  0.
          5    1    3    3  502    0 -0.31327020948E+02 -0.68397783061E+02 -0.10531020145E+04  0.10557939971E+04  0.41800000000E+01 0. -1.
         -5    1    3    3    0  502  0.21108795705E+02  0.14817943424E+01 -0.32007392411E+02  0.38596923965E+02  0.41800000000E+01 0. -1.
        -11    1    1    2    0    0  0.12692154738E+02  0.17346074099E+02 -0.11573794255E+03  0.11771681453E+03  0.00000000000E+00 0. -1.
         11    1    1    2    0    0 -0.24739294951E+01  0.49569914620E+02 -0.83841277298E+01  0.50334782808E+02  0.00000000000E+00 0.  1.
</event>
<event>
 7    1  0.2651429E-009  0.1148967E+03  0.7561462E-02  0.1251761E+00
         -1   -1    0    0    0  501 -0.00000000000E+00  0.00000000000E+00  0.12514014623E+02  0.12514014623E+02  0.00000000000E+00 0.  1.
          1   -1    0    0  501    0  0.00000000000E+00 -0.00000000000E+00 -0.15966387068E+04  0.15966387068E+04  0.00000000000E+00 0. -1.
         25    2    1    2    0    0 -0.51126480625E+02  0.45268355737E+02 -0.11997435784E+04  0.12081784660E+04  0.12508961150E+03 0.  0.
          5    1    3    3  502    0 -0.47754195007E+02 -0.19869210293E+02 -0.89509114225E+03  0.89659404080E+03  0.41800000000E+01 0. -1.
         -5    1    3    3    0  502 -0.33722856181E+01  0.65137566030E+02 -0.30465243611E+03  0.31158442524E+03  0.41800000000E+01 0. -1.
        -11    1    1    2    0    0  0.45137054399E+02 -0.72093479045E+02 -0.25875581616E+03  0.27237730411E+03  0.00000000000E+00 0.  1.
         11    1    1    2    0    0  0.59894262256E+01  0.26825123308E+02 -0.12562529767E+03  0.12859695129E+03  0.00000000000E+00 0. -1.
</event>
<event>
 7    1  0.2651429E-009  0.1890776E+03  0.7561462E-02  0.1159296E+00
          2   -1    0    0  501    0  0.00000000000E+00  0.00000000000E+00  0.21610351990E+03  0.21610351990E+03  0.00000000000E+00 0.  1.
         -2   -1    0    0    0  501 -0.00000000000E+00 -0.00000000000E+00 -0.17925778308E+03  0.17925778308E+03  0.00000000000E+00 0. -1.
         25    2    1    2    0    0 -0.15717152056E+03  0.15451170230E+02  0.62204243130E+02  0.21085195716E+03  0.12509018522E+03 0.  0.
          5    1    3    3  502    0 -0.78791204929E+02 -0.53042542264E+02  0.45301452618E+02  0.10531504771E+03  0.41800000000E+01 0.  1.
         -5    1    3    3    0  502 -0.78380315632E+02  0.68493712494E+02  0.16902790512E+02  0.10553690945E+03  0.41800000000E+01 0.  1.
        -11    1    1    2    0    0  0.80341701566E+02 -0.50039141264E+02  0.54244045350E+01  0.94805742619E+02  0.00000000000E+00 0.  1.
         11    1    1    2    0    0  0.76829818994E+02  0.34587971034E+02 -0.30782910850E+02  0.89703603202E+02  0.00000000000E+00 0. -1.
</event>
<event>
 7    1  0.2651429E-009  0.1166158E+03  0.7561462E-02  0.1248787E+00
         -2   -1    0    0    0  501 -0.00000000000E+00  0.00000000000E+00  0.79534570960E+02  0.79534570960E+02  0.00000000000E+00 0. -1.
          2   -1    0    0  501    0  0.00000000000E+00 -0.00000000000E+00 -0.21335439774E+03  0.21335439774E+03  0.00000000000E+00 0.  1.
         25    2    1    2    0    0  0.14955303729E+02  0.71113024598E+02 -0.78540781492E+02  0.16461030818E+03  0.12508867185E+03 0.  0.
          5    1    3    3  502    0  0.61191213372E+02  0.35717517905E+01 -0.44518424910E+02  0.75871500323E+02  0.41800000000E+01 0. -1.
         -5    1    3    3    0  502 -0.46235909643E+02  0.67541272807E+02 -0.34022356581E+02  0.88738807859E+02  0.41800000000E+01 0. -1.
        -11    1    1    2    0    0 -0.32911112151E+02 -0.60783108268E+02  0.13289108758E+00  0.69121235621E+02  0.00000000000E+00 0. -1.
         11    1    1    2    0    0  0.17955808422E+02 -0.10329916330E+02 -0.55411936378E+02  0.59157424898E+02  0.00000000000E+00 0.  1.
</event>
<event>
 7    1  0.2651429E-009  0.1322978E+03  0.7561462E-02  0.1224085E+00
         -2   -1    0    0    0  501 -0.00000000000E+00  0.00000000000E+00  0.37303682842E+03  0.37303682842E+03  0.00000000000E+00 0.  1.
          2   -1    0    0  501    0  0.00000000000E+00 -0.00000000000E+00 -0.52080327970E+02  0.52080327970E+02  0.00000000000E+00 0. -1.
         25    2    1    2    0    0  0.76302037024E+02 -0.35571120184E+02  0.14114256500E+03  0.20651976312E+03  0.12506751560E+03 0.  0.
          5    1    3    3  502    0  0.69571716697E+02  0.35903011597E+02  0.81556657172E+02  0.11312917720E+03  0.41800000000E+01 0.  1.
         -5    1    3    3    0  502  0.67303203269E+01 -0.71474131780E+02  0.59585907828E+02  0.93390585913E+02  0.41800000000E+01 0.  1.
        -11    1    1    2    0    0 -0.91466824603E+02  0.37771953723E+02  0.11371206504E+03  0.15074260920E+03  0.00000000000E+00 0. -1.
         11    1    1    2    0    0  0.15164787580E+02 -0.22008335390E+01  0.66101870405E+02  0.67854784074E+02  0.00000000000E+00 0.  1.
</event>
<event>
 7    1  0.2651429E-009  0.1054376E+03  0.7561462E-02  0.1269260E+00
          4   -1    0    0  501    0  0.00000000000E+00  0.00000000000E+00  0.18811976845E+03  0.18811976845E+03  0.00000000000E+00 0.  1.
         -4   -1    0    0    0  501 -0.00000000000E+00 -0.00000000000E+00 -0.67080623328E+02  0.67080623328E+02  0.00000000000E+00 0. -1.
         25    2    1    2    0    0  0.60488899427E+01 -0.58425731308E+01  0.10387196833E+03  0.16281070096E+03  0.12508882369E+03 0.  0.
          5    1    3    3  502    0 -0.51556603029E+02 -0.27290808537E+02  0.74056328103E+02  0.94364631502E+02  0.41800000000E+01 0.  1.
         -5    1    3    3    0  502  0.57605492971E+02  0.21448235406E+02  0.29815640231E+02  0.68446069463E+02  0.41800000000E+01 0.  1.
        -11    1    1    2    0    0  0.36767725199E+02  0.24387537424E+02  0.83643819265E+01  0.44906352367E+02  0.00000000000E+00 0. -1.
         11    1    1    2    0    0 -0.42816615141E+02 -0.18544964293E+02  0.88027948639E+01  0.47483338449E+02  0.00000000000E+00 0.  1.
</event>
<event>
 7    1  0.2651429E-009  0.2228857E+03  0.7561462E-02  0.1131750E+00
          1   -1    0    0  501    0  0.00000000000E+00  0.00000000000E+00  0.18618992487E+04  0.18618992487E+04  0.00000000000E+00 0. -1.
         -1   -1    0    0    0  501 -0.00000000000E+00 -0.00000000000E+00 -0.40004685003E+02  0.40004685003E+02  0.00000000000E+00 0.  1.
         25    2    1    2    0    0  0.70898477442E+02  0.19918360553E+03  0.14037397964E+04  0.14250732110E+04  0.12509011891E+03 0.  0.
          5    1    3    3  502    0  0.43983114072E+02  0.39288560043E+02  0.15587290227E+03  0.16670914593E+03  0.41800000000E+01 0.  1.
         -5    1    3    3    0  502  0.26915363370E+02  0.15989504548E+03  0.12478668942E+04  0.12583640651E+04  0.41800000000E+01 0.  1.
        -11    1    1    2    0    0 -0.61560805477E+02 -0.63488902593E+02  0.11951664659E+03  0.14867683859E+03  0.00000000000E+00 0.  1.
         11    1    1    2    0    0 -0.93376719649E+01 -0.13569470293E+03  0.29863812065E+03  0.32815388407E+03  0.00000000000E+00 0. -1.
</event>
<event>
 7    1  0.2651429E-009  0.1030066E+03  0.7561462E-02  0.1274098E+00
          1   -1    0    0  501    0  0.00000000000E+00  0.00000000000E+00  0.14090055830E+03  0.14090055830E+03  0.00000000000E+00 0. -1.
         -1   -1    0    0    0  501 -0.00000000000E+00 -0.00000000000E+00 -0.13157111577E+03  0.13157111577E+03  0.00000000000E+00 0.  1.
         25    2    1    2    0    0 -0.26758675883E+02 -0.15394447070E+02  0.86493691993E+02  0.15518010549E+03  0.12508673251E+03 0.  0.
          5    1    3    3  502    0  0.39588826316E+02  0.26883907722E+02  0.46376110126E+02  0.66770020622E+02  0.41800000000E+01 0. -1.
         -5    1    3    3    0  502 -0.66347502199E+02 -0.42278354792E+02  0.40117581867E+02  0.88410084871E+02  0.41800000000E+01 0. -1.
        -11    1    1    2    0    0 -0.97967689527E+01 -0.23715152106E+02 -0.52321209774E+02  0.58274300627E+02  0.00000000000E+00 0.  1.
         11    1    1    2    0    0  0.36555444835E+02  0.39109599176E+02 -0.24843039692E+02  0.59017267947E+02  0.00000000000E+00 0. -1.
</event>
<event>
 7    1  0.2651429E-009  0.8338096E+02  0.7561462E-02  0.1319722E+00
         -2   -1    0    0    0  501 -0.00000000000E+00  0.00000000000E+00  0.10533714193E+03  0.10533714193E+03  0.00000000000E+00 0.  1.
          2   -1    0    0  501    0  0.00000000000E+00 -0.00000000000E+00 -0.17373600314E+03  0.17373600314E+03  0.00000000000E+00 0. -1.
         25    2    1    2    0    0  0.51968286155E+02 -0.12335829090E+02  0.23734227086E+02  0.13807359747E+03  0.12509248314E+03 0.  0.
          5    1    3    3  502    0  0.41286307213E+01  0.10132744643E+02 -0.47698365645E+02  0.49115421111E+02  0.41800000000E+01 0.  1.
         -5    1    3    3    0  502  0.47839655434E+02 -0.22468573733E+02  0.71432592731E+02  0.88958176364E+02  0.41800000000E+01 0.  1.
        -11    1    1    2    0    0 -0.30643172676E+02  0.50061248701E+02 -0.72887436180E+02  0.93582642654E+02  0.00000000000E+00 0. -1.
         11    1    1    2    0    0 -0.21325113479E+02 -0.37725419611E+02 -0.19245652116E+02  0.47416904950E+02  0.00000000000E+00 0.  1.
</event>
<event>
 7    1  0.2651429E-009  0.2127991E+03  0.7561462E-02  0.1139368E+00
         -2   -1    0    0    0  501 -0.00000000000E+00  0.00000000000E+00  0.80299548446E+02  0.80299548446E+02  0.00000000000E+00 0.  1.
          2   -1    0    0  501    0  0.00000000000E+00 -0.00000000000E+00 -0.59186603302E+03  0.59186603302E+03  0.00000000000E+00 0. -1.
         25    2    1    2    0    0  0.23261751125E+02  0.18579907005E+03 -0.29833855700E+03  0.37378284283E+03  0.12508123563E+03 0.  0.
          5    1    3    3  502    0  0.50840836468E+02  0.18991748995E+03 -0.26738412705E+03  0.33191141505E+03  0.41800000000E+01 0.  1.
         -5    1    3    3    0  502 -0.27579085342E+02 -0.41184199079E+01 -0.30954429954E+02  0.41871427784E+02  0.41800000000E+01 0.  1.
        -11    1    1    2    0    0 -0.24223851060E+02 -0.12148964244E+02 -0.55362214208E+01  0.27659393341E+02  0.00000000000E+00 0.  1.
         11    1    1    2    0    0  0.96209993437E+00 -0.17365010580E+03 -0.20769170615E+03  0.27072334529E+03  0.00000000000E+00 0. -1.
</event>
<event>
 7    1  0.2651429E-009  0.1007144E+03  0.7561462E-02  0.1278801E+00
         -2   -1    0    0    0  501 -0.00000000000E+00  0.00000000000E+00  0.23983570398E+02  0.23983570398E+02  0.00000000000E+00 0.  1.
          2   -1    0    0  501    0  0.00000000000E+00 -0.00000000000E+00 -0.61035032500E+03  0.61035032500E+03  0.00000000000E+00 0. -1.
         25    2    1    2    0    0  0.18883254190E+02 -0.51324429577E+01 -0.37529503410E+03  0.39607777942E+03  0.12509326706E+03 0.  0.
          5    1    3    3  502    0  0.55795750085E+02 -0.23695764757E+02 -0.95322508882E+02  0.11304206339E+03  0.41800000000E+01 0. -1.
         -5    1    3    3    0  502 -0.36912495895E+02  0.18563321799E+02 -0.27997252522E+03  0.28303571603E+03  0.41800000000E+01 0. -1.
        -11    1    1    2    0    0 -0.49973221934E+02 -0.24968306163E+02 -0.64006242219E+02  0.84956096109E+02  0.00000000000E+00 0.  1.
         11    1    1    2    0    0  0.31089967743E+02  0.30100749121E+02 -0.14706547828E+03  0.15330001988E+03  0.00000000000E+00 0. -1.
</event>
<event>
 7    1  0.2651429E-009  0.1002136E+03  0.7561462E-02  0.1279847E+00
         -2   -1    0    0    0  501 -0.00000000000E+00  0.00000000000E+00  0.33874384173E+03  0.33874384173E+03  0.00000000000E+00 0. -1.
          2   -1    0    0  501    0  0.00000000000E+00 -0.00000000000E+00 -0.59871841861E+02  0.59871841861E+02  0.00000000000E+00 0.  1.
         25    2    1    2    0    0 -0.60305925347E+02 -0.49245933871E+02  0.22042409798E+03  0.26513524283E+03  0.12509175588E+03 0.  0.
          5    1    3    3  502    0 -0.52396911262E+02 -0.32668691720E+02  0.23391626981E+03  0.24196481854E+03  0.41800000000E+01 0. -1.
         -5    1    3    3    0  502 -0.79090140859E+01 -0.16577242151E+02 -0.13492171834E+02  0.23170424294E+02  0.41800000000E+01 0. -1.
        -11    1    1    2    0    0  0.63362645902E+02  0.72477903973E+02  0.43158804160E+02  0.10550143997E+03  0.00000000000E+00 0.  1.
         11    1    1    2    0    0 -0.30567205541E+01 -0.23231970103E+02  0.15289097733E+02  0.27979000784E+02  0.00000000000E+00 0. -1.
</event>
<event>
 7    1  0.2866189E-009  0.9966847E+02  0.7561462E-02  0.1280995E+00
         -1   -1    0    0    0  501 -0.00000000000E+00  0.00000000000E+00  0.82416162280E+02  0.82416162280E+02  0.00000000000E+00 0.  1.
          1   -1    0    0  501    0  0.00000000000E+00 -0.00000000000E+00 -0.19327795493E+03  0.19327795493E+03  0.00000000000E+00 0. -1.
         25    2    1    2    0    0  0.60020396682E+02  0.20415724970E+02 -0.69127730990E+02  0.15635129496E+03  0.12509130425E+03 0.  0.
          5    1    3    3  502    0  0.37092644972E+02  0.52732095025E+02 -0.90455626273E+02  0.11115858438E+03  0.41800000000E+01 0. -1.
         -5    1    3    3    0  502  0.22927751710E+02 -0.32316370055E+02  0.21327895283E+02  0.45192710576E+02  0.41800000000E+01 0. -1.
        -11    1    1    2    0    0  0.12067654337E+02 -0.19333613771E+02  0.15270121388E+02  0.27433437806E+02  0.00000000000E+00 0.  1.
         11    1    1    2    0    0 -0.72088051019E+02 -0.10821111987E+01 -0.57004183046E+02  0.91909384445E+02  0.00000000000E+00 0. -1.
</event>
<event>
 7    1  0.2651429E-009  0.1452179E+03  0.7561462E-02  0.1206475E+00
         -2   -1    0    0    0  501 -0.00000000000E+00  0.00000000000E+00  0.15832137117E+03  0.15832137117E+03  0.00000000000E+00 0. -1.
          2   -1    0    0  501    0  0.00000000000E+00 -0.00000000000E+00 -0.19166124948E+03  0.19166124948E+03  0.00000000000E+00 0.  1.
         25    2    1    2    0    0 -0.13241276532E+03  0.28205835819E+02 -0.10392592383E+02  0.18461234385E+03  0.12507998213E+03 0.  0.
          5    1    3    3  502    0 -0.79860246079E+02 -0.30500810497E+01 -0.64556821461E+02  0.10282031655E+03  0.41800000000E+01 0.  1.
         -5    1    3    3    0  502 -0.52552519246E+02  0.31255916869E+02  0.54164229078E+02  0.81792027301E+02  0.41800000000E+01 0.  1.
        -11    1    1    2    0    0  0.12431710738E+03 -0.48612992471E+01 -0.44951803585E+02  0.13228393729E+03  0.00000000000E+00 0.  1.
         11    1    1    2    0    0  0.80956579416E+01 -0.23344536572E+02  0.22004517662E+02  0.33086339519E+02  0.00000000000E+00 0. -1.
</event>
<event>
 7    1  0.2651429E-009  0.9809991E+02  0.7561462E-02  0.1284343E+00
          2   -1    0    0  501    0  0.00000000000E+00  0.00000000000E+00  0.26581273872E+03  0.26581273872E+03  0.00000000000E+00 0. -1.
         -2   -1    0    0    0  501 -0.00000000000E+00 -0.00000000000E+00 -0.58698564185E+02  0.58698564185E+02  0.00000000000E+00 0.  1.
         25    2    1    2    0    0  0.13600526640E+01 -0.54055720587E+02  0.15368519123E+03  0.20540414408E+03  0.12509138152E+03 0.  0.
          5    1    3    3  502    0 -0.51926646076E+02 -0.22503575174E+02  0.12448686168E+03  0.13681095935E+03  0.41800000000E+01 0. -1.
         -5    1    3    3    0  502  0.53286698740E+02 -0.31552145413E+02  0.29198329553E+02  0.68593184730E+02  0.41800000000E+01 0. -1.
        -11    1    1    2    0    0 -0.22685803357E+02  0.51029244157E+02 -0.57406460913E+01  0.56138974436E+02  0.00000000000E+00 0.  1.
         11    1    1    2    0    0  0.21325750693E+02  0.30264764300E+01  0.59169629399E+02  0.62968184390E+02  0.00000000000E+00 0. -1.
</event>
<event>
 7    1  0.2651429E-009  0.1130411E+03  0.7561462E-02  0.1255040E+00
         -1   -1    0    0    0  501 -0.00000000000E+00  0.00000000000E+00  0.48232183803E+03  0.48232183803E+03  0.00000000000E+00 0.  1.
          1   -1    0    0  501    0  0.00000000000E+00 -0.00000000000E+00 -0.32559082156E+02  0.32559082156E+02  0.00000000000E+00 0. -1.
         25    2    1    2    0    0  0.53900443582E+01  0.61499869952E+02  0.22113982375E+03  0.26146048297E+03  0.12508987140E+03 0.  0.
          5    1    3    3  502    0 -0.40726335125E+02  0.57103666268E+02  0.55865839201E+02  0.89765959381E+02  0.41800000000E+01 0. -1.
         -5    1    3    3    0  502  0.46116379483E+02  0.43962036835E+01  0.16527398455E+03  0.17169452359E+03  0.41800000000E+01 0. -1.
        -11    1    1    2    0    0 -0.47628446759E+02 -0.26866723642E+02  0.11157957293E+03  0.12425896699E+03  0.00000000000E+00 0.  1.
         11    1    1    2    0    0  0.42238402401E+02 -0.34633146310E+02  0.11704335919E+03  0.12916147023E+03  0.00000000000E+00 0. -1.
</event>
<event>
 7    1  0.2651429E-009  0.1407022E+03  0.7561462E-02  0.1212387E+00
         -3   -1    0    0    0  501 -0.00000000000E+00  0.00000000000E+00  0.13984669716E+03  0.13984669716E+03  0.00000000000E+00 0.  1.
          3   -1    0    0  501    0  0.00000000000E+00 -0.00000000000E+00 -0.20869994133E+03  0.20869994133E+03  0.00000000000E+00 0. -1.
         25    2    1    2    0    0 -0.12190391192E+03  0.71802591628E+01  0.16365591927E+02  0.17557829825E+03  0.12509111221E+03 0.  0.
          5    1    3    3  502    0 -0.70766248148E+02  0.52955442907E+02 -0.29098916230E+02  0.93146981358E+02  0.41800000000E+01 0.  1.
         -5    1    3    3    0  502 -0.51137663770E+02 -0.45775183744E+02  0.45464508156E+02  0.82431316892E+02  0.41800000000E+01 0.  1.
        -11    1    1    2    0    0  0.26630035254E+02  0.77226586744E+01  0.16933809252E+02  0.32489261770E+02  0.00000000000E+00 0.  1.
         11    1    1    2    0    0  0.95273876664E+02 -0.14902917837E+02 -0.10215264535E+03  0.14047907846E+03  0.00000000000E+00 0. -1.
</event>
<event>
 7    1  0.2651429E-009  0.1582793E+03  0.7561462E-02  0.1190653E+00
          2   -1    0    0  501    0  0.00000000000E+00  0.00000000000E+00  0.10626093217E+04  0.10626093217E+04  0.00000000000E+00 0. -1.
         -2   -1    0    0    0  501 -0.00000000000E+00 -0.00000000000E+00 -0.25051374642E+02  0.25051374642E+02  0.00000000000E+00 0.  1.
         25    2    1    2    0    0 -0.12272303411E+03  0.96660111822E+00  0.56315222260E+03  0.58978786134E+03  0.12508964043E+03 0.  0.
          5    1    3    3  502    0 -0.12430307655E+03 -0.42527945132E+02  0.41505487907E+03  0.43537099811E+03  0.41800000000E+01 0. -1.
         -5    1    3    3    0  502  0.15800424391E+01  0.43494546250E+02  0.14809734353E+03  0.15441686323E+03  0.41800000000E+01 0. -1.
        -11    1    1    2    0    0  0.75284815372E+02 -0.34985297365E+02  0.18700512345E+03  0.20460374057E+03  0.00000000000E+00 0. -1.
         11    1    1    2    0    0  0.47438218743E+02  0.34018696247E+02  0.28740060097E+03  0.29326909440E+03  0.00000000000E+00 0.  1.
</event>
<event>
 7    1  0.2987679E-009  0.1032297E+03  0.7561462E-02  0.1273647E+00
         -1   -1    0    0    0  501 -0.00000000000E+00  0.00000000000E+00  0.18441206446E+02  0.18441206446E+02  0.00000000000E+00 0.  1.
          1   -1    0    0  501    0  0.00000000000E+00 -0.00000000000E+00 -0.92125164874E+03  0.92125164874E+03  0.00000000000E+00 0. -1.
         25    2    1    2    0    0 -0.44132476436E+02 -0.27969603019E+02 -0.68001018926E+03  0.69339116628E+03  0.12508987892E+03 0.  0.
          5    1    3    3  502    0 -0.44889782164E+02  0.29096197025E+02 -0.13329872489E+03  0.14369308850E+03  0.41800000000E+01 0. -1.
         -5    1    3    3    0  502  0.75730572754E+00 -0.57065800043E+02 -0.54671146437E+03  0.54969807779E+03  0.41800000000E+01 0. -1.
        -11    1    1    2    0    0 -0.16931967741E+02  0.30034631589E+02 -0.13500692682E+03  0.13934001908E+03  0.00000000000E+00 0. -1.
         11    1    1    2    0    0  0.61064444177E+02 -0.20650285703E+01 -0.87793326214E+02  0.10696166983E+03  0.00000000000E+00 0.  1.
</event>
<event>
 7    1  0.4299662E-009  0.1263781E+03  0.7561462E-02  0.1232931E+00
         -2   -1    0    0    0  501 -0.00000000000E+00  0.00000000000E+00  0.18420092040E+03  0.18420092040E+03  0.00000000000E+00 0. -1.
          2   -1    0    0  501    0  0.00000000000E+00 -0.00000000000E+00 -0.12341949850E+03  0.12341949850E+03  0.00000000000E+00 0.  1.
         25    2    1    2    0    0 -0.84731268642E+02  0.49057962033E+02  0.68750527435E+02  0.17309065362E+03  0.12509063844E+03 0.  0.
          5    1    3    3  502    0 -0.10443342889E+03  0.32785982641E+02  0.11355846898E+02  0.11012578893E+03  0.41800000000E+01 0.  1.
         -5    1    3    3    0  502  0.19702160252E+02  0.16271979392E+02  0.57394680537E+02  0.62964864694E+02  0.41800000000E+01 0.  1.
        -11    1    1    2    0    0  0.18712067598E+02 -0.47758024376E+02  0.28928348741E+02  0.58888196839E+02  0.00000000000E+00 0. -1.
         11    1    1    2    0    0  0.66019201045E+02 -0.12999376574E+01 -0.36897454268E+02  0.75641568439E+02  0.00000000000E+00 0.  1.
</event>
<event>
 7    1  0.2651429E-009  0.1193843E+03  0.7561462E-02  0.1244116E+00
          2   -1    0    0  501    0  0.00000000000E+00  0.00000000000E+00  0.30325981123E+03  0.30325981123E+03  0.00000000000E+00 0. -1.
         -2   -1    0    0    0  501 -0.00000000000E+00 -0.00000000000E+00 -0.66542983310E+02  0.66542983310E+02  0.00000000000E+00 0.  1.
         25    2    1    2    0    0 -0.88628686378E+02 -0.22724306340E+02  0.13653088508E+03  0.20654074732E+03  0.12508780746E+03 0.  0.
          5    1    3    3  502    0 -0.81517039543E+02  0.23020669567E+02  0.13573471356E+03  0.16005112879E+03  0.41800000000E+01 0. -1.
         -5    1    3    3    0  502 -0.71116468346E+01 -0.45744975906E+02  0.79617151669E+00  0.46489618524E+02  0.41800000000E+01 0. -1.
        -11    1    1    2    0    0  0.22822435130E+02 -0.18882636605E+02 -0.73320874743E+01  0.30515193218E+02  0.00000000000E+00 0.  1.
         11    1    1    2    0    0  0.65806251248E+02  0.41606942944E+02  0.10751803032E+03  0.13274685400E+03  0.00000000000E+00 0. -1.
</event>
<event>
 7    1  0.2651429E-009  0.9361676E+02  0.7561462E-02  0.1294322E+00
         -1   -1    0    0    0  501 -0.00000000000E+00  0.00000000000E+00  0.43169064666E+02  0.43169064666E+02  0.00000000000E+00 0.  1.
          1   -1    0    0  501    0  0.00000000000E+00 -0.00000000000E+00 -0.35202445661E+03  0.35202445661E+03  0.00000000000E+00 0. -1.
         25    2    1    2    0    0 -0.44824076182E+02  0.88980870491E+01 -0.23139288425E+03  0.26697899539E+03  0.12508694311E+03 0.  0.
          5    1    3    3  502    0 -0.54090860272E+02 -0.46941328654E+02 -0.93420827074E+02  0.11778893340E+03  0.41800000000E+01 0.  1.
         -5    1    3    3    0  502  0.92667840898E+01  0.55839415703E+02 -0.13797205718E+03  0.14919006199E+03  0.41800000000E+01 0.  1.
        -11    1    1    2    0    0  0.41109602501E+02  0.76154778258E+01  0.67214090046E+01  0.42345864725E+02  0.00000000000E+00 0.  1.
         11    1    1    2    0    0  0.37144736808E+01 -0.16513564875E+02 -0.84183916692E+02  0.85868661159E+02  0.00000000000E+00 0. -1.
</event>
<event>
 7    1  0.2660211E-009  0.1055515E+03  0.7561462E-02  0.1269037E+00
         -1   -1    0    0    0  501 -0.00000000000E+00  0.00000000000E+00  0.88979523745E+02  0.88979523745E+02  0.00000000000E+00 0.  1.
          1   -1    0    0  501    0  0.00000000000E+00 -0.00000000000E+00 -0.24504814001E+03  0.24504814001E+03  0.00000000000E+00 0. -1.
         25    2    1    2    0    0 -0.18153530039E+01  0.85880746193E+02 -0.14195640750E+03  0.20779380840E+03  0.12509135504E+03 0.  0.
          5    1    3    3  502    0 -0.25955896877E+02  0.85415941688E+02 -0.31666801736E+02  0.94814821675E+02  0.41800000000E+01 0.  1.
         -5    1    3    3    0  502  0.24140543873E+02  0.46480450551E+00 -0.11028960576E+03  0.11297898672E+03  0.41800000000E+01 0.  1.
        -11    1    1    2    0    0 -0.20110099423E+02 -0.60152526110E+02  0.30405574885E+02  0.70336629720E+02  0.00000000000E+00 0.  1.
         11    1    1    2    0    0  0.21925452427E+02 -0.25728220083E+02 -0.44517783657E+02  0.55897225642E+02  0.00000000000E+00 0. -1.
</event>
<event>
 7    1  0.2651429E-009  0.1205107E+03  0.7561462E-02  0.1242257E+00
          2   -1    0    0  501    0  0.00000000000E+00  0.00000000000E+00  0.42140619617E+02  0.42140619617E+02  0.00000000000E+00 0. -1.
         -2   -1    0    0    0  501 -0.00000000000E+00 -0.00000000000E+00 -0.39146392217E+03  0.39146392217E+03  0.00000000000E+00 0.  1.
         25    2    1    2    0    0  0.63273728765E+02  0.52711260051E+01 -0.23481014525E+03  0.27352094914E+03  0.12508619342E+03 0.  0.
          5    1    3    3  502    0 -0.37323102839E+02 -0.33701145836E+01 -0.47065057786E+02  0.60307244526E+02  0.41800000000E+01 0. -1.
         -5    1    3    3    0  502  0.10059683160E+03  0.86412405888E+01 -0.18774508747E+03  0.21321370461E+03  0.41800000000E+01 0. -1.
        -11    1    1    2    0    0 -0.45507753352E+01 -0.35791422716E+02 -0.74422603519E+02  0.82707069896E+02  0.00000000000E+00 0.  1.
         11    1    1    2    0    0 -0.58722953429E+02  0.30520296710E+02 -0.40090553784E+02  0.77376522754E+02  0.00000000000E+00 0. -1.
</event>
<event>
 7    1  0.2651429E-009  0.2999621E+03  0.7561462E-02  0.1085260E+00
         -4   -1    0    0    0  501 -0.00000000000E+00  0.00000000000E+00  0.37233882118E+03  0.37233882118E+03  0.00000000000E+00 0.  1.
          4   -1    0    0  501    0  0.00000000000E+00 -0.00000000000E+00 -0.25780276591E+03  0.25780276591E+03  0.00000000000E+00 0. -1.
         25    2    1    2    0    0 -0.27849220533E+03 -0.74704233045E+02  0.22912217591E+02  0.31514646400E+03  0.12511472012E+03 0.  0.
          5    1    3    3  502    0 -0.13777421723E+03  0.77753976226E+01 -0.34283356890E+02  0.14224982496E+03  0.41800000000E+01 0. -1.
         -5    1    3    3    0  502 -0.14071798810E+03 -0.82479630667E+02  0.57195574481E+02  0.17289663903E+03  0.41800000000E+01 0. -1.
        -11    1    1    2    0    0  0.11774138379E+03 -0.78359678031E+01  0.15904717791E+02  0.11906887039E+03  0.00000000000E+00 0. -1.
         11    1    1    2    0    0  0.16075082154E+03  0.82540200848E+02  0.75719119883E+02  0.19592625270E+03  0.00000000000E+00 0.  1.
</event>
<event>
 7    1  0.2651429E-009  0.2210682E+03  0.7561462E-02  0.1133089E+00
          2   -1    0    0  501    0  0.00000000000E+00  0.00000000000E+00  0.20458322212E+03  0.20458322212E+03  0.00000000000E+00 0. -1.
         -2   -1    0    0    0  501 -0.00000000000E+00 -0.00000000000E+00 -0.25157420495E+03  0.25157420495E+03  0.00000000000E+00 0.  1.
         25    2    1    2    0    0 -0.23054908873E+02 -0.19679574047E+03 -0.46638332843E+02  0.23891295440E+03  0.12507667009E+03 0.  0.
          5    1    3    3  502    0 -0.49089621070E+02 -0.19493741280E+03 -0.21122107748E+02  0.20217319714E+03  0.41800000000E+01 0. -1.
         -5    1    3    3    0  502  0.26034712197E+02 -0.18583276740E+01 -0.25516225095E+02  0.36739757267E+02  0.41800000000E+01 0. -1.
        -11    1    1    2    0    0 -0.30048458366E+02  0.97593491929E+02  0.16593939466E+02  0.10345413643E+03  0.00000000000E+00 0.  1.
         11    1    1    2    0    0  0.53103367239E+02  0.99202248542E+02 -0.16946589452E+02  0.11379033624E+03  0.00000000000E+00 0. -1.
</event>
<event>
 7    1  0.2651429E-009  0.1080317E+03  0.7561462E-02  0.1264259E+00
          2   -1    0    0  501    0  0.00000000000E+00  0.00000000000E+00  0.75819863541E+02  0.75819863541E+02  0.00000000000E+00 0. -1.
         -2   -1    0    0    0  501 -0.00000000000E+00 -0.00000000000E+00 -0.23067658145E+03  0.23067658145E+03  0.00000000000E+00 0.  1.
         25    2    1    2    0    0 -0.49536527552E+02  0.54372645684E+02 -0.66158579965E+02  0.15948751270E+03  0.12509619037E+03 0.  0.
          5    1    3    3  502    0 -0.84290409175E+02  0.18171215512E+02 -0.14850390084E+02  0.87596076612E+02  0.41800000000E+01 0. -1.
         -5    1    3    3    0  502  0.34753881623E+02  0.36201430172E+02 -0.51308189881E+02  0.71891436091E+02  0.41800000000E+01 0. -1.
        -11    1    1    2    0    0  0.37824140905E+02 -0.19426133637E+02 -0.99829304336E+02  0.10850774308E+03  0.00000000000E+00 0.  1.
         11    1    1    2    0    0  0.11712386648E+02 -0.34946512047E+02  0.11131166396E+02  0.38501189209E+02  0.00000000000E+00 0. -1.
</event>
<event>
 7    1  0.2651429E-009  0.2013986E+03  0.7561462E-02  0.1148564E+00
          2   -1    0    0  501    0  0.00000000000E+00  0.00000000000E+00  0.73881316179E+03  0.73881316179E+03  0.00000000000E+00 0. -1.
         -2   -1    0    0    0  501 -0.00000000000E+00 -0.00000000000E+00 -0.61845545182E+02  0.61845545182E+02  0.00000000000E+00 0.  1.
         25    2    1    2    0    0  0.18192450839E+03  0.92508997872E+01  0.29873166842E+03  0.37157640062E+03  0.12508519450E+03 0.  0.
          5    1    3    3  502    0  0.16839960957E+03  0.51404673235E+02  0.22940890000E+03  0.28921753877E+03  0.41800000000E+01 0.  1.
         -5    1    3    3    0  502  0.13524898816E+02 -0.42153773448E+02  0.69322768419E+02  0.82358861850E+02  0.41800000000E+01 0.  1.
        -11    1    1    2    0    0 -0.63776817629E+02 -0.12028992400E+01  0.52918015299E+02  0.82880913223E+02  0.00000000000E+00 0.  1.
         11    1    1    2    0    0 -0.11814769076E+03 -0.80480005472E+01  0.32531793289E+03  0.34620139313E+03  0.00000000000E+00 0. -1.
</event>
<event>
 7    1  0.2651429E-009  0.1322908E+03  0.7561462E-02  0.1224096E+00
          2   -1    0    0  501    0  0.00000000000E+00  0.00000000000E+00  0.59436280175E+03  0.59436280175E+03  0.00000000000E+00 0. -1.
         -2   -1    0    0    0  501 -0.00000000000E+00 -0.00000000000E+00 -0.45150780038E+02  0.45150780038E+02  0.00000000000E+00 0.  1.
         25    2    1    2    0    0 -0.14317027142E+02 -0.12132236690E+03  0.27066285661E+03  0.32222716478E+03  0.12509144575E+03 0.  0.
          5    1    3    3  502    0  0.16822865806E+02 -0.10201566011E+03  0.87873548608E+02  0.13575506129E+03  0.41800000000E+01 0.  1.
         -5    1    3    3    0  502 -0.31139892948E+02 -0.19306706788E+02  0.18278930800E+03  0.18647210348E+03  0.41800000000E+01 0.  1.
        -11    1    1    2    0    0  0.18616017359E+02  0.61644356954E+02  0.51409867875E+02  0.82398770388E+02  0.00000000000E+00 0.  1.
         11    1    1    2    0    0 -0.42989902173E+01  0.59678009946E+02  0.22713929723E+03  0.23488764662E+03  0.00000000000E+00 0. -1.
</event>
<event>
 7    1  0.2651429E-009  0.1591823E+03  0.7561462E-02  0.1189623E+00
         -3   -1    0    0    0  501 -0.00000000000E+00  0.00000000000E+00  0.16210576139E+04  0.16210576139E+04  0.00000000000E+00 0.  1.
          3   -1    0    0  501    0  0.00000000000E+00 -0.00000000000E+00 -0.18636886898E+02  0.18636886898E+02  0.00000000000E+00 0. -1.
         25    2    1    2    0    0  0.53424092683E+02  0.11651676126E+03  0.10520062554E+04  0.10671434926E+04  0.12509109924E+03 0.  0.
          5    1    3    3  502    0 -0.40608785727E+01  0.11760599094E+03  0.59714303814E+03  0.60864188176E+03  0.41800000000E+01 0.  1.
         -5    1    3    3    0  502  0.57484971256E+02 -0.10892296785E+01  0.45486321725E+03  0.45850161085E+03  0.41800000000E+01 0.  1.
        -11    1    1    2    0    0 -0.63050703884E+02 -0.64989481927E+02  0.45267450553E+03  0.46164188716E+03  0.00000000000E+00 0.  1.
         11    1    1    2    0    0  0.96266112003E+01 -0.51527279332E+02  0.97739966111E+02  0.11090912106E+03  0.00000000000E+00 0. -1.
</event>
<event>
 7    1  0.2651429E-009  0.6996315E+02  0.7561462E-02  0.1360218E+00
         -2   -1    0    0    0  501 -0.00000000000E+00  0.00000000000E+00  0.72562784558E+02  0.72562784558E+02  0.00000000000E+00 0.  1.
          2   -1    0    0  501    0  0.00000000000E+00 -0.00000000000E+00 -0.18497467598E+03  0.18497467598E+03  0.00000000000E+00 0. -1.
         25    2    1    2    0    0 -0.12530224362E+02  0.10354365621E+02 -0.64629208011E+02  0.14172661232E+03  0.12508108851E+03 0.  0.
          5    1    3    3  502    0 -0.35851092199E+02  0.75384870302E+01 -0.95696607856E+02  0.10255458426E+03  0.41800000000E+01 0. -1.
         -5    1    3    3    0  502  0.23320867837E+02  0.28158785908E+01  0.31067399845E+02  0.39172028056E+02  0.41800000000E+01 0. -1.
        -11    1    1    2    0    0  0.38748649776E+02  0.16089293013E+02 -0.62910047275E+02  0.75617440166E+02  0.00000000000E+00 0.  1.
         11    1    1    2    0    0 -0.26218425414E+02 -0.26443658634E+02  0.15127363866E+02  0.40193408050E+02  0.00000000000E+00 0. -1.
</event>
<event>
 7    1  0.2651429E-009  0.9801358E+02  0.7561462E-02  0.1284529E+00
         -2   -1    0    0    0  501 -0.00000000000E+00  0.00000000000E+00  0.19787983113E+03  0.19787983113E+03  0.00000000000E+00 0. -1.
          2   -1    0    0  501    0  0.00000000000E+00 -0.00000000000E+00 -0.92391176553E+02  0.92391176553E+02  0.00000000000E+00 0.  1.
         25    2    1    2    0    0  0.51540150330E+02 -0.44579116531E+01 -0.97029259032E+01  0.13572755787E+03  0.12510620737E+03 0.  0.
          5    1    3    3  502    0  0.81205571910E+02 -0.33212085376E+02  0.12369405305E+02  0.88700970186E+02  0.41800000000E+01 0. -1.
         -5    1    3    3    0  502 -0.29665421581E+02  0.28754173723E+02 -0.22072331208E+02  0.47026587682E+02  0.41800000000E+01 0. -1.
        -11    1    1    2    0    0 -0.29384746102E+02 -0.18531667990E+02  0.11750410363E+03  0.12253203823E+03  0.00000000000E+00 0. -1.
         11    1    1    2    0    0 -0.22155404227E+02  0.22989579643E+02 -0.23125231485E+01  0.32011411589E+02  0.00000000000E+00 0.  1.
</event>
<event>
 7    1  0.2651429E-009  0.2361806E+03  0.7561462E-02  0.1122364E+00
          1   -1    0    0  501    0  0.00000000000E+00  0.00000000000E+00  0.17654622565E+03  0.17654622565E+03  0.00000000000E+00 0. -1.
         -1   -1    0    0    0  501 -0.00000000000E+00 -0.00000000000E+00 -0.38896952417E+03  0.38896952417E+03  0.00000000000E+00 0.  1.
         25    2    1    2    0    0 -0.16701463561E+03 -0.13730809249E+03 -0.21646496858E+03  0.33053399359E+03  0.12509291558E+03 0.  0.
          5    1    3    3  502    0 -0.11137631519E+03 -0.15394786935E+03 -0.18041928615E+03  0.26205575986E+03  0.41800000000E+01 0.  1.
         -5    1    3    3    0  502 -0.55638320420E+02  0.16639776860E+02 -0.36045682431E+02  0.68478233731E+02  0.41800000000E+01 0.  1.
        -11    1    1    2    0    0  0.49819645415E+02  0.95793407717E+01 -0.29113253307E+02  0.58492241853E+02  0.00000000000E+00 0.  1.
         11    1    1    2    0    0  0.11719499019E+03  0.12772875172E+03  0.33154923357E+02  0.17648951438E+03  0.00000000000E+00 0. -1.
</event>
<event>
 7    1  0.2651429E-009  0.9464645E+02  0.7561462E-02  0.1291974E+00
          4   -1    0    0  501    0  0.00000000000E+00  0.00000000000E+00  0.29933083860E+03  0.29933083860E+03  0.00000000000E+00 0. -1.
         -4   -1    0    0    0  501 -0.00000000000E+00 -0.00000000000E+00 -0.50726778060E+02  0.50726778060E+02  0.00000000000E+00 0.  1.
         25    2    1    2    0    0 -0.35992105541E+02 -0.28524116433E+01  0.76252823440E+02  0.15086839928E+03  0.12507283040E+03 0.  0.
          5    1    3    3  502    0 -0.63613123120E+02 -0.30904372681E+02  0.84663987533E+02  0.11039552921E+03  0.41800000000E+01 0.  1.
         -5    1    3    3    0  502  0.27621017580E+02  0.28051961037E+02 -0.84111640923E+01  0.40472870068E+02  0.41800000000E+01 0.  1.
        -11    1    1    2    0    0  0.11469253247E+02 -0.33273400109E+02  0.19524614145E+02  0.40247651886E+02  0.00000000000E+00 0.  1.
         11    1    1    2    0    0  0.24522852294E+02  0.36125811752E+02  0.15282662296E+03  0.15894156550E+03  0.00000000000E+00 0. -1.
</event>
<event>
 7    1  0.2651429E-009  0.1131611E+03  0.7561462E-02  0.1254825E+00
          2   -1    0    0  501    0  0.00000000000E+00  0.00000000000E+00  0.65099131822E+03  0.65099131822E+03  0.00000000000E+00 0. -1.
         -2   -1    0    0    0  501 -0.00000000000E+00 -0.00000000000E+00 -0.24306038658E+02  0.24306038658E+02  0.00000000000E+00 0.  1.
         25    2    1    2    0    0  0.54125608637E+02 -0.34632974183E+02  0.31609176373E+03  0.34596148770E+03  0.12508526476E+03 0.  0.
          5    1    3    3  502    0  0.61572277450E+02  0.25541537451E+02  0.91452145728E+02  0.11324523321E+03  0.41800000000E+01 0. -1.
         -5    1    3    3    0  502 -0.74466688126E+01 -0.60174511635E+02  0.22463961801E+03  0.23271625449E+03  0.41800000000E+01 0. -1.
        -11    1    1    2    0    0 -0.78545336464E+01  0.49526338713E+02  0.86083150899E+02  0.99623595568E+02  0.00000000000E+00 0.  1.
         11    1    1    2    0    0 -0.46271074991E+02 -0.14893364530E+02  0.22451036493E+03  0.22971227361E+03  0.00000000000E+00 0. -1.
</event>
<event>
 7    1  0.2651429E-009  0.5823758E+02  0.7561462E-02  0.1405380E+00
          1   -1    0    0  501    0  0.00000000000E+00  0.00000000000E+00  0.35690194242E+02  0.35690194242E+02  0.00000000000E+00 0. -1.
         -1   -1    0    0    0  501 -0.00000000000E+00 -0.00000000000E+00 -0.47318645625E+03  0.47318645625E+03  0.00000000000E+00 0.  1.
         25    2    1    2    0    0  0.14413122856E+02  0.21068436576E+02 -0.37581190088E+03  0.39690756014E+03  0.12509759920E+03 0.  0.
          5    1    3    3  502    0  0.23292463146E+02  0.45979157174E+02 -0.56954189341E+02  0.76927718134E+02  0.41800000000E+01 0. -1.
         -5    1    3    3    0  502 -0.88793402899E+01 -0.24910720598E+02 -0.31885771153E+03  0.31997984201E+03  0.41800000000E+01 0. -1.
        -11    1    1    2    0    0 -0.17446746621E+02 -0.76821137435E+00 -0.81553225853E+02  0.83402084887E+02  0.00000000000E+00 0.  1.
         11    1    1    2    0    0  0.30336237647E+01 -0.20300225201E+02  0.19868864717E+02  0.28567005470E+02  0.00000000000E+00 0. -1.
</event>
<event>
 7    1  0.2651429E-009  0.1025029E+03  0.7561462E-02  0.1275119E+00
          1   -1    0    0  501    0  0.00000000000E+00  0.00000000000E+00  0.18911134887E+03  0.18911134887E+03  0.00000000000E+00 0. -1.
         -1   -1    0    0    0  501 -0.00000000000E+00 -0.00000000000E+00 -0.12156102295E+03  0.12156102295E+03  0.00000000000E+00 0.  1.
         25    2    1    2    0    0  0.10577296708E+02  0.99740928602E+02  0.84405833124E+02  0.18122362091E+03  0.12513002864E+03 0.  0.
          5    1    3    3  502    0  0.11260992333E+02  0.16776772653E+02 -0.32084638974E+02  0.38146644768E+02  0.41800000000E+01 0. -1.
         -5    1    3    3    0  502 -0.68369562530E+00  0.82964155949E+02  0.11649047210E+03  0.14307697614E+03  0.41800000000E+01 0. -1.
        -11    1    1    2    0    0  0.32406521461E+01 -0.32034816389E+02  0.31550351585E+02  0.45079440686E+02  0.00000000000E+00 0. -1.
         11    1    1    2    0    0 -0.13817948854E+02 -0.67706112213E+02 -0.48405858790E+02  0.84369310218E+02  0.00000000000E+00 0.  1.
</event>
<event>
 7    1  0.2651429E-009  0.1392857E+03  0.7561462E-02  0.1214293E+00
         -2   -1    0    0    0  501 -0.00000000000E+00  0.00000000000E+00  0.19176200751E+03  0.19176200751E+03  0.00000000000E+00 0.  1.
          2   -1    0    0  501    0  0.00000000000E+00 -0.00000000000E+00 -0.19445752911E+03  0.19445752911E+03  0.00000000000E+00 0. -1.
         25    2    1    2    0    0  0.66506922278E+02  0.96283870033E+02  0.10761550795E+03  0.20229244299E+03  0.12508949036E+03 0.  0.
          5    1    3    3  502    0  0.27096307997E+01  0.66825461481E+02 -0.74274275309E+01  0.67421239094E+02  0.41800000000E+01 0.  1.
         -5    1    3    3    0  502  0.63797291478E+02  0.29458408552E+02  0.11504293549E+03  0.13487120389E+03  0.41800000000E+01 0.  1.
        -11    1    1    2    0    0 -0.15649278205E+02  0.13183104611E+02 -0.38166982257E+02  0.43306035262E+02  0.00000000000E+00 0.  1.
         11    1    1    2    0    0 -0.50857644073E+02 -0.10946697464E+03 -0.72144047290E+02  0.14062105837E+03  0.00000000000E+00 0. -1.
</event>
<event>
 7    1  0.2651429E-009  0.1043957E+03  0.7561462E-02  0.1271315E+00
          2   -1    0    0  501    0  0.00000000000E+00  0.00000000000E+00  0.71113445628E+03  0.71113445628E+03  0.00000000000E+00 0. -1.
         -2   -1    0    0    0  501 -0.00000000000E+00 -0.00000000000E+00 -0.27851852011E+02  0.27851852011E+02  0.00000000000E+00 0.  1.
         25    2    1    2    0    0 -0.59799767444E+02  0.10762528102E+02  0.54132446515E+03  0.55890186051E+03  0.12508904392E+03 0.  0.
          5    1    3    3  502    0  0.89507076436E+01 -0.21897176877E+02  0.37692186224E+03  0.37768659515E+03  0.41800000000E+01 0. -1.
         -5    1    3    3    0  502 -0.68750475088E+02  0.32659704978E+02  0.16440260292E+03  0.18121526536E+03  0.41800000000E+01 0. -1.
        -11    1    1    2    0    0  0.70390826615E+02 -0.37518074041E+02  0.11906032578E+03  0.14331027711E+03  0.00000000000E+00 0.  1.
         11    1    1    2    0    0 -0.10591059171E+02  0.26755545939E+02  0.22897813333E+02  0.36774170668E+02  0.00000000000E+00 0. -1.
</event>
<event>
 7    1  0.2651429E-009  0.8992442E+02  0.7561462E-02  0.1303035E+00
         -1   -1    0    0    0  501 -0.00000000000E+00  0.00000000000E+00  0.21885014262E+02  0.21885014262E+02  0.00000000000E+00 0.  1.
          1   -1    0    0  501    0  0.00000000000E+00 -0.00000000000E+00 -0.64697685411E+03  0.64697685411E+03  0.00000000000E+00 0. -1.
         25    2    1    2    0    0  0.43031435748E+02 -0.96820697072E+01 -0.39806131833E+03  0.41957640105E+03  0.12508435647E+03 0.  0.
          5    1    3    3  502    0 -0.29983869214E+02 -0.26442243796E+02 -0.53370834212E+02  0.66814242602E+02  0.41800000000E+01 0. -1.
         -5    1    3    3    0  502  0.73015304962E+02  0.16760174088E+02 -0.34469048412E+03  0.35276215845E+03  0.41800000000E+01 0. -1.
        -11    1    1    2    0    0  0.54877751313E+01 -0.10677062174E+02  0.37544784260E+01  0.12578212942E+02  0.00000000000E+00 0.  1.
         11    1    1    2    0    0 -0.48519210879E+02  0.20359131882E+02 -0.23078499995E+03  0.23670725438E+03  0.00000000000E+00 0. -1.
</event>
<event>
 7    1  0.2651429E-009  0.1296127E+03  0.7561462E-02  0.1228032E+00
         -2   -1    0    0    0  501 -0.00000000000E+00  0.00000000000E+00  0.33901536556E+02  0.33901536556E+02  0.00000000000E+00 0.  1.
          2   -1    0    0  501    0  0.00000000000E+00 -0.00000000000E+00 -0.88032659215E+03  0.88032659215E+03  0.00000000000E+00 0. -1.
         25    2    1    2    0    0 -0.54988246407E+02 -0.83470135817E+02 -0.22522996344E+03  0.27634435528E+03  0.12508675169E+03 0.  0.
          5    1    3    3  502    0 -0.52511554520E+02 -0.26077485405E+02 -0.18320996243E+02  0.61568091626E+02  0.41800000000E+01 0. -1.
         -5    1    3    3    0  502 -0.24766918869E+01 -0.57392650411E+02 -0.20690896720E+03  0.21477626366E+03  0.41800000000E+01 0. -1.
        -11    1    1    2    0    0 -0.27177325878E+02  0.21776046563E+01 -0.81133467215E+02  0.85591988564E+02  0.00000000000E+00 0. -1.
         11    1    1    2    0    0  0.82165572285E+02  0.81292531160E+02 -0.54006162494E+03  0.55229178486E+03  0.00000000000E+00 0.  1.
</event>
<event>
 6    1  0.2651429E-009  0.8888866E+02  0.7561462E-02  0.1305566E+00
          3   -1    0    0  501    0  0.00000000000E+00  0.00000000000E+00  0.62649746870E+02  0.62649746870E+02  0.00000000000E+00 0. -1.
         -3   -1    0    0    0  501 -0.00000000000E+00 -0.00000000000E+00 -0.20073745633E+03  0.20073745633E+03  0.00000000000E+00 0.  1.
          5    1    1    2  502    0  0.36714375104E+02 -0.35267695781E+02 -0.23006778079E+02  0.56022673469E+02  0.41800000000E+01 0. -1.
         -5    1    1    2    0  502 -0.53200092312E+02  0.51880282236E+02 -0.62903684625E+02  0.97448239832E+02  0.41800000000E+01 0. -1.
        -11    1    1    2    0    0 -0.13616951217E+02 -0.17476675740E+02  0.21160001725E+02  0.30636599491E+02  0.00000000000E+00 0. -1.
         11    1    1    2    0    0  0.30102668425E+02  0.86408928445E+00 -0.73337248482E+02  0.79279690410E+02  0.00000000000E+00 0.  1.
</event>
<event>
 7    1  0.2651429E-009  0.1722473E+03  0.7561462E-02  0.1175524E+00
         -1   -1    0    0    0  501 -0.00000000000E+00  0.00000000000E+00  0.11253878130E+03  0.11253878130E+03  0.00000000000E+00 0.  1.
          1   -1    0    0  501    0  0.00000000000E+00 -0.00000000000E+00 -0.32003468032E+03  0.32003468032E+03  0.00000000000E+00 0. -1.
         25    2    1    2    0    0  0.13685310872E+02  0.15199044953E+03 -0.14034132004E+03  0.24213968869E+03  0.12509020045E+03 0.  0.
          5    1    3    3  502    0 -0.28488273789E+02  0.12740000817E+03 -0.50946636075E+02  0.14019763177E+03  0.41800000000E+01 0.  1.
         -5    1    3    3    0  502  0.42173584661E+02  0.24590441355E+02 -0.89394683961E+02  0.10194205692E+03  0.41800000000E+01 0.  1.
        -11    1    1    2    0    0 -0.37951701986E+02 -0.11028353006E+03 -0.78850006162E+02  0.14078392010E+03  0.00000000000E+00 0. -1.
         11    1    1    2    0    0  0.24266391114E+02 -0.41706919469E+02  0.11695427184E+02  0.49649852833E+02  0.00000000000E+00 0.  1.
</event>
<event>
 7    1  0.2651429E-009  0.9433029E+02  0.7561462E-02  0.1292692E+00
         -1   -1    0    0    0  501 -0.00000000000E+00  0.00000000000E+00  0.61755522607E+03  0.61755522607E+03  0.00000000000E+00 0.  1.
          1   -1    0    0  501    0  0.00000000000E+00 -0.00000000000E+00 -0.23857849107E+02  0.23857849107E+02  0.00000000000E+00 0. -1.
         25    2    1    2    0    0 -0.41202377111E+02  0.30956537825E+02  0.28729675714E+03  0.31755826429E+03  0.12509149227E+03 0.  0.
          5    1    3    3  502    0 -0.80501583273E+02  0.25720980610E+02  0.24605854966E+03  0.26020060725E+03  0.41800000000E+01 0. -1.
         -5    1    3    3    0  502  0.39299206162E+02  0.52355572144E+01  0.41238207484E+02  0.57357657037E+02  0.41800000000E+01 0. -1.
        -11    1    1    2    0    0  0.93622734513E+01  0.90693658496E+01 -0.18124760287E+00  0.13036042796E+02  0.00000000000E+00 0. -1.
         11    1    1    2    0    0  0.31840103659E+02 -0.40025903674E+02  0.30658186742E+03  0.31081876809E+03  0.00000000000E+00 0.  1.
</event>
<event>
 7    1  0.2651429E-009  0.1554617E+03  0.7561462E-02  0.1193918E+00
         -2   -1    0    0    0  501 -0.00000000000E+00  0.00000000000E+00  0.55981756969E+02  0.55981756969E+02  0.00000000000E+00 0.  1.
          2   -1    0    0  501    0  0.00000000000E+00 -0.00000000000E+00 -0.59434535699E+03  0.59434535699E+03  0.00000000000E+00 0. -1.
         25    2    1    2    0    0 -0.42081461139E+02  0.13575458330E+03 -0.22318775748E+03  0.29267808619E+03  0.12509009069E+03 0.  0.
          5    1    3    3  502    0 -0.60307564667E+02  0.51469986457E+02 -0.37301478079E+02  0.87721345913E+02  0.41800000000E+01 0.  1.
         -5    1    3    3    0  502  0.18226103528E+02  0.84284596846E+02 -0.18588627941E+03  0.20495674028E+03  0.41800000000E+01 0.  1.
        -11    1    1    2    0    0  0.28645130480E+02 -0.44279170085E+02 -0.36763938088E+02  0.64286666948E+02  0.00000000000E+00 0.  1.
         11    1    1    2    0    0  0.13436330659E+02 -0.91475413219E+02 -0.27841190445E+03  0.29336236082E+03  0.00000000000E+00 0. -1.
</event>
<event>
 7    1  0.2651429E-009  0.1332555E+03  0.7561462E-02  0.1222704E+00
          2   -1    0    0  501    0  0.00000000000E+00  0.00000000000E+00  0.73042812614E+02  0.73042812614E+02  0.00000000000E+00 0. -1.
         -2   -1    0    0    0  501 -0.00000000000E+00 -0.00000000000E+00 -0.24714029037E+03  0.24714029037E+03  0.00000000000E+00 0.  1.
         25    2    1    2    0    0 -0.44215223353E+02 -0.79440901445E+02 -0.11642674511E+03  0.19356787537E+03  0.12508993803E+03 0.  0.
          5    1    3    3  502    0  0.37914905575E+02 -0.57932235285E+02 -0.46604586447E+02  0.83565207041E+02  0.41800000000E+01 0.  1.
         -5    1    3    3    0  502 -0.82130128929E+02 -0.21508666160E+02 -0.69822158665E+02  0.11000266832E+03  0.41800000000E+01 0.  1.
        -11    1    1    2    0    0 -0.81030100428E+01  0.52831782817E+02 -0.21132044394E+02  0.57475380362E+02  0.00000000000E+00 0.  1.
         11    1    1    2    0    0  0.52318233396E+02  0.26609118628E+02 -0.36538688250E+02  0.69139847258E+02  0.00000000000E+00 0. -1.
</event>
<event>
 7    1  0.2651429E-009  0.8156014E+02  0.7561462E-02  0.1324681E+00
          1   -1    0    0  501    0  0.00000000000E+00  0.00000000000E+00  0.36693489188E+02  0.36693489188E+02  0.00000000000E+00 0. -1.
         -1   -1    0    0    0  501 -0.00000000000E+00 -0.00000000000E+00 -0.34158368046E+03  0.34158368046E+03  0.00000000000E+00 0.  1.
         25    2    1    2    0    0  0.11329796825E+02  0.87405714414E+01 -0.14025117441E+03  0.18849175782E+03  0.12511590210E+03 0.  0.
          5    1    3    3  502    0  0.24576181719E+02 -0.24504719899E+02 -0.14763125245E+03  0.15171331222E+03  0.41800000000E+01 0.  1.
         -5    1    3    3    0  502 -0.13246384894E+02  0.33245291340E+02  0.73800780403E+01  0.36778445603E+02  0.41800000000E+01 0.  1.
        -11    1    1    2    0    0  0.24070958254E+02 -0.38821552677E+02 -0.10235272540E+03  0.11208302449E+03  0.00000000000E+00 0. -1.
         11    1    1    2    0    0 -0.35400755079E+02  0.30080981235E+02 -0.62286291466E+02  0.77702387330E+02  0.00000000000E+00 0.  1.
</event>
<event>
 7    1  0.2651429E-009  0.8359075E+02  0.7561462E-02  0.1319160E+00
          2   -1    0    0  501    0  0.00000000000E+00  0.00000000000E+00  0.35945827723E+03  0.35945827723E+03  0.00000000000E+00 0. -1.
         -2   -1    0    0    0  501 -0.00000000000E+00 -0.00000000000E+00 -0.48315298299E+02  0.48315298299E+02  0.00000000000E+00 0.  1.
         25    2    1    2    0    0 -0.30179985852E+01 -0.66474952346E+02  0.22219365246E+03  0.26352489591E+03  0.12508926400E+03 0.  0.
          5    1    3    3  502    0  0.24121975516E+02 -0.31743027174E+02  0.33270380317E+01  0.40224756792E+02  0.41800000000E+01 0. -1.
         -5    1    3    3    0  502 -0.27139974101E+02 -0.34731925172E+02  0.21886661443E+03  0.22330013912E+03  0.41800000000E+01 0. -1.
        -11    1    1    2    0    0  0.26194644115E+02  0.33948266703E+02 -0.40161180951E+01  0.43067080200E+02  0.00000000000E+00 0.  1.
         11    1    1    2    0    0 -0.23176645530E+02  0.32526685643E+02  0.92965444572E+02  0.10118159942E+03  0.00000000000E+00 0. -1.
</event>
<event>
 7    1  0.2651429E-009  0.1345934E+03  0.7561462E-02  0.1220795E+00
         -3   -1    0    0    0  501 -0.00000000000E+00  0.00000000000E+00  0.59955595878E+03  0.59955595878E+03  0.00000000000E+00 0.  1.
          3   -1    0    0  501    0  0.00000000000E+00 -0.00000000000E+00 -0.34256715733E+02  0.34256715733E+02  0.00000000000E+00 0. -1.
         25    2    1    2    0    0 -0.89287140870E+02  0.19744364752E+01  0.37746118487E+03  0.40755064581E+03  0.12507793926E+03 0.  0.
          5    1    3    3  502    0  0.27086013632E+02 -0.94259311027E+01  0.13827601903E+03  0.14128067862E+03  0.41800000000E+01 0. -1.
         -5    1    3    3    0  502 -0.11637315450E+03  0.11400367578E+02  0.23918516584E+03  0.26626996719E+03  0.41800000000E+01 0. -1.
        -11    1    1    2    0    0  0.19311598264E+02 -0.39375271269E+02  0.91417186513E+02  0.10139256287E+03  0.00000000000E+00 0.  1.
         11    1    1    2    0    0  0.69975542605E+02  0.37400834793E+02  0.96420871664E+02  0.12486946584E+03  0.00000000000E+00 0. -1.
</event>
<event>
 7    1  0.2918017E-009  0.1947633E+03  0.7561462E-02  0.1154234E+00
         -1   -1    0    0    0  501 -0.00000000000E+00  0.00000000000E+00  0.31552242528E+02  0.31552242528E+02  0.00000000000E+00 0.  1.
          1   -1    0    0  501    0  0.00000000000E+00 -0.00000000000E+00 -0.12269146166E+04  0.12269146166E+04  0.00000000000E+00 0. -1.
         25    2    1    2    0    0  0.13243902729E+03  0.92865151650E+02 -0.54865487468E+03  0.58551855762E+03  0.12508308229E+03 0.  0.
          5    1    3    3  502    0 -0.18974613759E+02  0.38514412734E+02 -0.10147785809E+03  0.11026615092E+03  0.41800000000E+01 0.  1.
         -5    1    3    3    0  502  0.15141364105E+03  0.54350738916E+02 -0.44717701659E+03  0.47525240671E+03  0.41800000000E+01 0.  1.
        -11    1    1    2    0    0 -0.98728696332E+02 -0.14028812705E+02 -0.37507363218E+03  0.38810358491E+03  0.00000000000E+00 0. -1.
         11    1    1    2    0    0 -0.33710330961E+02 -0.78836338945E+02 -0.27163386721E+03  0.28484471658E+03  0.00000000000E+00 0.  1.
</event>
<event>
 7    1  0.2651429E-009  0.9804114E+02  0.7561462E-02  0.1284470E+00
         -1   -1    0    0    0  501 -0.00000000000E+00  0.00000000000E+00  0.63215006141E+02  0.63215006141E+02  0.00000000000E+00 0.  1.
          1   -1    0    0  501    0  0.00000000000E+00 -0.00000000000E+00 -0.26071428481E+03  0.26071428481E+03  0.00000000000E+00 0. -1.
         25    2    1    2    0    0 -0.11162348128E+01  0.65189368890E+02 -0.13808753299E+03  0.19739738804E+03  0.12508661896E+03 0.  0.
          5    1    3    3  502    0  0.52093669268E+02  0.16671671559E+02 -0.10408277632E+03  0.11765369411E+03  0.41800000000E+01 0.  1.
         -5    1    3    3    0  502 -0.53209904081E+02  0.48517697331E+02 -0.34004756663E+02  0.79743693935E+02  0.41800000000E+01 0.  1.
        -11    1    1    2    0    0 -0.10760777376E+02 -0.25764654150E+02  0.21836234555E+02  0.35446196873E+02  0.00000000000E+00 0.  1.
         11    1    1    2    0    0  0.11877012189E+02 -0.39424714740E+02 -0.81247980233E+02  0.91085706029E+02  0.00000000000E+00 0. -1.
</event>
<event>
 7    1  0.2651429E-009  0.1094655E+03  0.7561462E-02  0.1261563E+00
         -2   -1    0    0    0  501 -0.00000000000E+00  0.00000000000E+00  0.34112932155E+02  0.34112932155E+02  0.00000000000E+00 0. -1.
          2   -1    0    0  501    0  0.00000000000E+00 -0.00000000000E+00 -0.39423367854E+03  0.39423367854E+03  0.00000000000E+00 0.  1.
         25    2    1    2    0    0 -0.39077985285E+02  0.41170175845E+01 -0.22091793278E+03  0.25689604742E+03  0.12508719913E+03 0.  0.
          5    1    3    3  502    0  0.12849477443E+02  0.48768511610E+02 -0.14961844124E+03  0.15794501307E+03  0.41800000000E+01 0. -1.
         -5    1    3    3    0  502 -0.51927462728E+02 -0.44651494026E+02 -0.71299491545E+02  0.98951034349E+02  0.41800000000E+01 0. -1.
        -11    1    1    2    0    0  0.27394446556E+02  0.43101314216E+02 -0.63855524313E+02  0.81766172557E+02  0.00000000000E+00 0. -1.
         11    1    1    2    0    0  0.11683538729E+02 -0.47218331801E+02 -0.75347289286E+02  0.89684390715E+02  0.00000000000E+00 0.  1.
</event>
<event>
 7    1  0.2651429E-009  0.1206815E+03  0.7561462E-02  0.1241977E+00
          1   -1    0    0  501    0  0.00000000000E+00  0.00000000000E+00  0.59799921355E+03  0.59799921355E+03  0.00000000000E+00 0. -1.
         -1   -1    0    0    0  501 -0.00000000000E+00 -0.00000000000E+00 -0.48280025994E+02  0.48280025994E+02  0.00000000000E+00 0.  1.
         25    2    1    2    0    0 -0.48322790192E+02  0.60793987294E+02  0.49294602938E+03  0.51446533935E+03  0.12509115305E+03 0.  0.
          5    1    3    3  502    0 -0.47082988088E+02 -0.15145705814E+02  0.34047366077E+03  0.34407264677E+03  0.41800000000E+01 0.  1.
         -5    1    3    3    0  502 -0.12398021037E+01  0.75939693109E+02  0.15247236860E+03  0.17039269259E+03  0.41800000000E+01 0.  1.
        -11    1    1    2    0    0 -0.24997977574E+02 -0.17490355860E+02  0.20193296565E+01  0.30575956618E+02  0.00000000000E+00 0.  1.
         11    1    1    2    0    0  0.73320767766E+02 -0.43303631434E+02  0.54753828518E+02  0.10123794357E+03  0.00000000000E+00 0. -1.
</event>
<event>
 7    1  0.2651429E-009  0.1209558E+03  0.7561462E-02  0.1241529E+00
          2   -1    0    0  501    0  0.00000000000E+00  0.00000000000E+00  0.10690841220E+04  0.10690841220E+04  0.00000000000E+00 0. -1.
         -2   -1    0    0    0  501 -0.00000000000E+00 -0.00000000000E+00 -0.21324656354E+02  0.21324656354E+02  0.00000000000E+00 0.  1.
         25    2    1    2    0    0 -0.41240270326E+02  0.76642382414E+02  0.78326730477E+03  0.79795346318E+03  0.12508894433E+03 0.  0.
          5    1    3    3  502    0 -0.76205085754E+02  0.31427099389E+02  0.60744360663E+03  0.61302535454E+03  0.41800000000E+01 0. -1.
         -5    1    3    3    0  502  0.34964815428E+02  0.45215283025E+02  0.17582369814E+03  0.18492810864E+03  0.41800000000E+01 0. -1.
        -11    1    1    2    0    0  0.25145713891E+01 -0.59770090310E+02  0.64179102215E+02  0.87736787757E+02  0.00000000000E+00 0.  1.
         11    1    1    2    0    0  0.38725698937E+02 -0.16872292104E+02  0.20031305864E+03  0.20471852740E+03  0.00000000000E+00 0. -1.
</event>
<event>
 7    1  0.2651429E-009  0.1195421E+03  0.7561462E-02  0.1243854E+00
          2   -1    0    0  501    0  0.00000000000E+00  0.00000000000E+00  0.75432775644E+03  0.75432775644E+03  0.00000000000E+00 0. -1.
         -2   -1    0    0    0  501 -0.00000000000E+00 -0.00000000000E+00 -0.24973575856E+02  0.24973575856E+02  0.00000000000E+00 0.  1.
         25    2    1    2    0    0  0.62268112084E+02 -0.59256253129E+02  0.39385041917E+03  0.42208333901E+03  0.12509025172E+03 0.  0.
          5    1    3    3  502    0 -0.15941356242E+02  0.29216779593E+02  0.81760122656E+02  0.88373848537E+02  0.41800000000E+01 0. -1.
         -5    1    3    3    0  502  0.78209468327E+02 -0.88473032722E+02  0.31209029651E+03  0.33370949048E+03  0.41800000000E+01 0. -1.
        -11    1    1    2    0    0 -0.19274208481E+02  0.28947508907E+02  0.26379843897E+02  0.43650309833E+02  0.00000000000E+00 0.  1.
         11    1    1    2    0    0 -0.42993903603E+02  0.30308744222E+02  0.30912391751E+03  0.31356768345E+03  0.00000000000E+00 0. -1.
</event>
<event>
 7    1  0.2651429E-009  0.8609030E+02  0.7561462E-02  0.1312606E+00
         -2   -1    0    0    0  501 -0.00000000000E+00  0.00000000000E+00  0.16530409495E+02  0.16530409495E+02  0.00000000000E+00 0.  1.
          2   -1    0    0  501    0  0.00000000000E+00 -0.00000000000E+00 -0.81448898598E+03  0.81448898598E+03  0.00000000000E+00 0. -1.
         25    2    1    2    0    0  0.39211240490E+02  0.13053481912E+02 -0.41924243920E+03  0.43945445268E+03  0.12509227945E+03 0.  0.
          5    1    3    3  502    0 -0.15017096367E+02 -0.10134937111E+02 -0.34038725854E+03  0.34089468800E+03  0.41800000000E+01 0.  1.
         -5    1    3    3    0  502  0.54228336857E+02  0.23188419022E+02 -0.78855180666E+02  0.98559764676E+02  0.41800000000E+01 0.  1.
        -11    1    1    2    0    0  0.64693601031E+01 -0.40603862597E+02 -0.22821514299E+03  0.23188936536E+03  0.00000000000E+00 0.  1.
         11    1    1    2    0    0 -0.45680600593E+02  0.27550380686E+02 -0.15050099430E+03  0.15967557744E+03  0.00000000000E+00 0. -1.
</event>
<event>
 7    1  0.2651429E-009  0.3484047E+03  0.7561462E-02  0.1063272E+00
          2   -1    0    0  501    0  0.00000000000E+00  0.00000000000E+00  0.19584663955E+04  0.19584663955E+04  0.00000000000E+00 0. -1.
         -2   -1    0    0    0  501 -0.00000000000E+00 -0.00000000000E+00 -0.64924177509E+02  0.64924177509E+02  0.00000000000E+00 0.  1.
         25    2    1    2    0    0  0.17773192490E+03  0.28869353408E+03  0.90194228466E+03  0.97163788707E+03  0.12509078702E+03 0.  0.
          5    1    3    3  502    0  0.13972514121E+02  0.90621502300E+02  0.36471091102E+03  0.37608377903E+03  0.41800000000E+01 0. -1.
         -5    1    3    3    0  502  0.16375941077E+03  0.19807203178E+03  0.53723137364E+03  0.59555410805E+03  0.41800000000E+01 0. -1.
        -11    1    1    2    0    0 -0.10685920369E+03 -0.23788271996E+03  0.79502516531E+03  0.83670310824E+03  0.00000000000E+00 0. -1.
         11    1    1    2    0    0 -0.70872721207E+02 -0.50810814119E+02  0.19657476805E+03  0.21504957772E+03  0.00000000000E+00 0.  1.
</event>
<event>
 7    1  0.2651429E-009  0.8052247E+02  0.7561462E-02  0.1327575E+00
         -2   -1    0    0    0  501 -0.00000000000E+00  0.00000000000E+00  0.32741324900E+03  0.32741324900E+03  0.00000000000E+00 0.  1.
          2   -1    0    0  501    0  0.00000000000E+00 -0.00000000000E+00 -0.48295379470E+02  0.48295379470E+02  0.00000000000E+00 0. -1.
         25    2    1    2    0    0 -0.29170125152E+02 -0.57346544652E+02  0.14155463042E+03  0.19957349775E+03  0.12510933309E+03 0.  0.
          5    1    3    3  502    0 -0.46440779173E+01 -0.38961509437E+02 -0.13314305084E+02  0.41645045289E+02  0.41800000000E+01 0.  1.
         -5    1    3    3    0  502 -0.24526047235E+02 -0.18385035216E+02  0.15486893550E+03  0.15792845246E+03  0.41800000000E+01 0.  1.
        -11    1    1    2    0    0 -0.13871085858E+02 -0.51242826086E+01  0.78799844481E+02  0.80175312817E+02  0.00000000000E+00 0.  1.
         11    1    1    2    0    0  0.43041211010E+02  0.62470827261E+02  0.58763394635E+02  0.95959817908E+02  0.00000000000E+00 0. -1.
</event>
<event>
 7    1  0.2651429E-009  0.1864518E+03  0.7561462E-02  0.1161701E+00
          1   -1    0    0  501    0  0.00000000000E+00  0.00000000000E+00  0.20695717344E+03  0.20695717344E+03  0.00000000000E+00 0. -1.
         -1   -1    0    0    0  501 -0.00000000000E+00 -0.00000000000E+00 -0.19975790428E+03  0.19975790428E+03  0.00000000000E+00 0.  1.
         25    2    1    2    0    0  0.16377977278E+03  0.20088677169E+02  0.49168776086E+02  0.21282578484E+03  0.12509946934E+03 0.  0.
          5    1    3    3  502    0  0.32741428971E+02  0.61062533924E+02  0.11146510586E+02  0.70301858571E+02  0.41800000000E+01 0.  1.
         -5    1    3    3    0  502  0.13103834381E+03 -0.40973856756E+02  0.38022265500E+02  0.14252392627E+03  0.41800000000E+01 0.  1.
        -11    1    1    2    0    0 -0.13646983555E+03 -0.93592626960E+01  0.68155546920E+01  0.13696008031E+03  0.00000000000E+00 0. -1.
         11    1    1    2    0    0 -0.27309937233E+02 -0.10729414473E+02 -0.48785061618E+02  0.56929212568E+02  0.00000000000E+00 0.  1.
</event>
<event>
 7    1  0.2651429E-009  0.1554233E+03  0.7561462E-02  0.1193963E+00
         -1   -1    0    0    0  501 -0.00000000000E+00  0.00000000000E+00  0.71538731915E+02  0.71538731915E+02  0.00000000000E+00 0.  1.
          1   -1    0    0  501    0  0.00000000000E+00 -0.00000000000E+00 -0.44301553605E+03  0.44301553605E+03  0.00000000000E+00 0. -1.
         25    2    1    2    0    0 -0.12852853566E+03  0.55354886146E+02 -0.18038744027E+03  0.26032895164E+03  0.12509111302E+03 0.  0.
          5    1    3    3  502    0 -0.88552537195E+02  0.21779907498E+02 -0.18645890035E+03  0.20760614185E+03  0.41800000000E+01 0. -1.
         -5    1    3    3    0  502 -0.39975998466E+02  0.33574978648E+02  0.60714600795E+01  0.52722809789E+02  0.41800000000E+01 0. -1.
        -11    1    1    2    0    0 -0.12979641024E+02 -0.15412485422E+02 -0.17109888414E+02  0.26434145901E+02  0.00000000000E+00 0.  1.
         11    1    1    2    0    0  0.14150817669E+03 -0.39942400724E+02 -0.17397947544E+03  0.22779117042E+03  0.00000000000E+00 0. -1.
</event>
<event>
 7    1  0.2651429E-009  0.1082416E+03  0.7561462E-02  0.1263861E+00
          2   -1    0    0  501    0  0.00000000000E+00  0.00000000000E+00  0.72410361250E+03  0.72410361250E+03  0.00000000000E+00 0. -1.
         -2   -1    0    0    0  501 -0.00000000000E+00 -0.00000000000E+00 -0.18310365136E+02  0.18310365136E+02  0.00000000000E+00 0.  1.
         25    2    1    2    0    0 -0.35155370877E+02 -0.38112467108E+02  0.50051761285E+03  0.51851112451E+03  0.12508974867E+03 0.  0.
          5    1    3    3  502    0 -0.64273683019E+02 -0.64484102047E+02  0.40532831356E+03  0.41544893780E+03  0.41800000000E+01 0.  1.
         -5    1    3    3    0  502  0.29118312142E+02  0.26371634939E+02  0.95189299289E+02  0.10306218671E+03  0.41800000000E+01 0.  1.
        -11    1    1    2    0    0  0.42042253552E+02 -0.48522260602E+01  0.13267010860E+03  0.13925678762E+03  0.00000000000E+00 0. -1.
         11    1    1    2    0    0 -0.68868826745E+01  0.42964693168E+02  0.72605525910E+02  0.84646065500E+02  0.00000000000E+00 0.  1.
</event>
<event>
 7    1  0.2651429E-009  0.1015917E+03  0.7561462E-02  0.1276984E+00
          1   -1    0    0  501    0  0.00000000000E+00  0.00000000000E+00  0.69861424678E+02  0.69861424678E+02  0.00000000000E+00 0. -1.
         -1   -1    0    0    0  501 -0.00000000000E+00 -0.00000000000E+00 -0.22600882162E+03  0.22600882162E+03  0.00000000000E+00 0.  1.
         25    2    1    2    0    0 -0.25962802966E+01 -0.58288281240E+02 -0.57340612180E+02  0.14946463811E+03  0.12508983907E+03 0.  0.
          5    1    3    3  502    0  0.83755118614E-01 -0.76600935890E+02 -0.85904763468E+02  0.11517296202E+03  0.41800000000E+01 0.  1.
         -5    1    3    3    0  502 -0.26800354152E+01  0.18312654649E+02  0.28564151289E+02  0.34291676089E+02  0.41800000000E+01 0.  1.
        -11    1    1    2    0    0  0.17674462066E+02 -0.20620183473E+02 -0.31580656012E+02  0.41652327785E+02  0.00000000000E+00 0.  1.
         11    1    1    2    0    0 -0.15078181770E+02  0.78908464713E+02 -0.67226128755E+02  0.10475328041E+03  0.00000000000E+00 0. -1.
</event>
<event>
 7    1  0.2651429E-009  0.1069967E+03  0.7561462E-02  0.1266235E+00
         -2   -1    0    0    0  501 -0.00000000000E+00  0.00000000000E+00  0.30316867660E+02  0.30316867660E+02  0.00000000000E+00 0.  1.
          2   -1    0    0  501    0  0.00000000000E+00 -0.00000000000E+00 -0.59180858098E+03  0.59180858098E+03  0.00000000000E+00 0. -1.
         25    2    1    2    0    0 -0.62263863051E+00  0.36752598482E+02 -0.14733310304E+03  0.19673220775E+03  0.12508148201E+03 0.  0.
          5    1    3    3  502    0  0.67217337938E+01 -0.39718586920E+02 -0.14106155153E+02  0.42885940182E+02  0.41800000000E+01 0. -1.
         -5    1    3    3    0  502 -0.73443724243E+01  0.76471185401E+02 -0.13322694788E+03  0.15384626757E+03  0.41800000000E+01 0. -1.
        -11    1    1    2    0    0 -0.10368270665E+02  0.28530050017E+02 -0.10985955349E+03  0.11397625315E+03  0.00000000000E+00 0.  1.
         11    1    1    2    0    0  0.10990909296E+02 -0.65282648499E+02 -0.30429905680E+03  0.31141698774E+03  0.00000000000E+00 0. -1.
</event>
<event>
 7    1  0.2651429E-009  0.1497118E+03  0.7561462E-02  0.1200828E+00
          1   -1    0    0  501    0  0.00000000000E+00  0.00000000000E+00  0.90810292216E+02  0.90810292216E+02  0.00000000000E+00 0. -1.
         -1   -1    0    0    0  501 -0.00000000000E+00 -0.00000000000E+00 -0.32445619050E+03  0.32445619050E+03  0.00000000000E+00 0.  1.
         25    2    1    2    0    0 -0.39334021420E+02 -0.12624796434E+03 -0.14320825351E+03  0.23160835987E+03  0.12509242481E+03 0.  0.
          5    1    3    3  502    0 -0.60125227468E+02 -0.29075867621E+02 -0.10612455231E+03  0.12546051992E+03  0.41800000000E+01 0.  1.
         -5    1    3    3    0  502  0.20791206048E+02 -0.97172096721E+02 -0.37083701204E+02  0.10614783995E+03  0.41800000000E+01 0.  1.
        -11    1    1    2    0    0  0.29488986430E+02  0.70220145577E+02 -0.10028408614E+03  0.12592603821E+03  0.00000000000E+00 0.  1.
         11    1    1    2    0    0  0.98450349895E+01  0.56027818766E+02  0.98464413690E+01  0.57732084643E+02  0.00000000000E+00 0. -1.
</event>
<event>
 7    1  0.2651429E-009  0.1067378E+03  0.7561462E-02  0.1266733E+00
          3   -1    0    0  501    0  0.00000000000E+00  0.00000000000E+00  0.91631751217E+03  0.91631751217E+03  0.00000000000E+00 0. -1.
         -3   -1    0    0    0  501 -0.00000000000E+00 -0.00000000000E+00 -0.14264691119E+02  0.14264691119E+02  0.00000000000E+00 0.  1.
         25    2    1    2    0    0 -0.17065977895E+02 -0.25833015809E+02  0.42317556959E+03  0.44236351455E+03  0.12509725813E+03 0.  0.
          5    1    3    3  502    0  0.40790230886E+02  0.18941502132E+02  0.25422691629E+03  0.25820809593E+03  0.41800000000E+01 0. -1.
         -5    1    3    3    0  502 -0.57856208781E+02 -0.44774517941E+02  0.16894865331E+03  0.18415541862E+03  0.41800000000E+01 0. -1.
        -11    1    1    2    0    0  0.51778956375E+02  0.31381427380E-01  0.26551045437E+03  0.27051222281E+03  0.00000000000E+00 0.  1.
         11    1    1    2    0    0 -0.34712978479E+02  0.25801634381E+02  0.21336679709E+03  0.21770646594E+03  0.00000000000E+00 0. -1.
</event>
<event>
 7    1  0.2651429E-009  0.1063136E+03  0.7561462E-02  0.1267553E+00
          2   -1    0    0  501    0  0.00000000000E+00  0.00000000000E+00  0.21090954348E+03  0.21090954348E+03  0.00000000000E+00 0. -1.
         -2   -1    0    0    0  501 -0.00000000000E+00 -0.00000000000E+00 -0.88423588002E+02  0.88423588002E+02  0.00000000000E+00 0.  1.
         25    2    1    2    0    0  0.35586914180E+01 -0.75418554154E+02  0.11848933783E+03  0.18811713620E+03  0.12509081164E+03 0.  0.
          5    1    3    3  502    0 -0.47063850751E+02 -0.67243172040E+02  0.10782636618E+03  0.13557524802E+03  0.41800000000E+01 0.  1.
         -5    1    3    3    0  502  0.50622542169E+02 -0.81753821144E+01  0.10662971647E+02  0.52541888172E+02  0.41800000000E+01 0.  1.
        -11    1    1    2    0    0  0.72930877164E+01  0.84888466512E+01 -0.32387769101E+02  0.34266853273E+02  0.00000000000E+00 0.  1.
         11    1    1    2    0    0 -0.10851779134E+02  0.66929707503E+02  0.36384386750E+02  0.76949142010E+02  0.00000000000E+00 0. -1.
</event>
<event>
 7    1  0.2651429E-009  0.2305356E+03  0.7561462E-02  0.1126263E+00
         -2   -1    0    0    0  501 -0.00000000000E+00  0.00000000000E+00  0.29854717549E+02  0.29854717549E+02  0.00000000000E+00 0.  1.
          2   -1    0    0  501    0  0.00000000000E+00 -0.00000000000E+00 -0.20288557509E+04  0.20288557509E+04  0.00000000000E+00 0. -1.
         25    2    1    2    0    0 -0.16851970345E+03  0.12000580461E+03 -0.13526989906E+04  0.13741324876E+04  0.12508097689E+03 0.  0.
          5    1    3    3  502    0 -0.42923440954E+02  0.10481717871E+03 -0.72389670227E+03  0.73271615971E+03  0.41800000000E+01 0.  1.
         -5    1    3    3    0  502 -0.12559626250E+03  0.15188625895E+02 -0.62880228832E+03  0.64141632791E+03  0.41800000000E+01 0.  1.
        -11    1    1    2    0    0  0.26429011626E+02 -0.62506702526E+02 -0.26662865873E+03  0.27512982785E+03  0.00000000000E+00 0. -1.
         11    1    1    2    0    0  0.14209069183E+03 -0.57499102080E+02 -0.37967338404E+03  0.40944815300E+03  0.00000000000E+00 0.  1.
</event>
<event>
 7    1  0.2651429E-009  0.7725728E+02  0.7561462E-02  0.1337020E+00
         -2   -1    0    0    0  501 -0.00000000000E+00  0.00000000000E+00  0.24909051988E+02  0.24909051988E+02  0.00000000000E+00 0.  1.
          2   -1    0    0  501    0  0.00000000000E+00 -0.00000000000E+00 -0.56067011156E+03  0.56067011156E+03  0.00000000000E+00 0. -1.
         25    2    1    2    0    0  0.26984901801E+02 -0.39968343929E+02 -0.28425412112E+03  0.31428172424E+03  0.12508774272E+03 0.  0.
          5    1    3    3  502    0  0.16829621759E+01 -0.29643128360E+02 -0.13331488757E+01  0.30013282170E+02  0.41800000000E+01 0.  1.
         -5    1    3    3    0  502  0.25301939625E+02 -0.10325215568E+02 -0.28292097224E+03  0.28426844207E+03  0.41800000000E+01 0.  1.
        -11    1    1    2    0    0 -0.51442624319E+02  0.17020020751E+01 -0.91643785993E+02  0.10510862914E+03  0.00000000000E+00 0.  1.
         11    1    1    2    0    0  0.24457722518E+02  0.38266341853E+02 -0.15986315246E+03  0.16618881017E+03  0.00000000000E+00 0. -1.
</event>
<event>
 7    1  0.2651429E-009  0.3090303E+03  0.7561462E-02  0.1080812E+00
         -2   -1    0    0    0  501 -0.00000000000E+00  0.00000000000E+00  0.24921247492E+03  0.24921247492E+03  0.00000000000E+00 0.  1.
          2   -1    0    0  501    0  0.00000000000E+00 -0.00000000000E+00 -0.45696760889E+03  0.45696760889E+03  0.00000000000E+00 0. -1.
         25    2    1    2    0    0  0.36873866119E+02 -0.29955901907E+03 -0.21494140656E+03  0.39108240759E+03  0.12510137237E+03 0.  0.
          5    1    3    3  502    0 -0.60363098809E+01 -0.85784014600E+02 -0.17602260067E+01  0.86115648946E+02  0.41800000000E+01 0. -1.
         -5    1    3    3    0  502  0.42910176000E+02 -0.21377500447E+03 -0.21318118055E+03  0.30496675865E+03  0.41800000000E+01 0. -1.
        -11    1    1    2    0    0 -0.48506076349E+02  0.76892104668E+02 -0.10022037337E+02  0.91464071828E+02  0.00000000000E+00 0.  1.
         11    1    1    2    0    0  0.11632210231E+02  0.22266691440E+03  0.17208309924E+02  0.22363360439E+03  0.00000000000E+00 0. -1.
</event>
<event>
 7    1  0.2651429E-009  0.9098320E+02  0.7561462E-02  0.1300488E+00
          3   -1    0    0  501    0  0.00000000000E+00  0.00000000000E+00  0.44055460053E+02  0.44055460053E+02  0.00000000000E+00 0. -1.
         -3   -1    0    0    0  501 -0.00000000000E+00 -0.00000000000E+00 -0.28249638196E+03  0.28249638196E+03  0.00000000000E+00 0.  1.
         25    2    1    2    0    0  0.27585733181E+01  0.24404776115E+02 -0.10764381227E+03  0.16684737796E+03  0.12509058473E+03 0.  0.
          5    1    3    3  502    0 -0.40475455187E+02 -0.79012567917E+01 -0.10473220090E+03  0.11263657771E+03  0.41800000000E+01 0. -1.
         -5    1    3    3    0  502  0.43234028505E+02  0.32306032906E+02 -0.29116113668E+01  0.54210800249E+02  0.41800000000E+01 0. -1.
        -11    1    1    2    0    0 -0.27531319097E+02  0.21022738303E+02 -0.27707745053E+02  0.44358180676E+02  0.00000000000E+00 0. -1.
         11    1    1    2    0    0  0.24772745779E+02 -0.45427514418E+02 -0.10308936458E+03  0.11534628338E+03  0.00000000000E+00 0.  1.
</event>
<event>
 7    1  0.4723565E-009  0.8680119E+02  0.7561462E-02  0.1310788E+00
          2   -1    0    0  501    0  0.00000000000E+00  0.00000000000E+00  0.13470602843E+04  0.13470602843E+04  0.00000000000E+00 0. -1.
         -2   -1    0    0    0  501 -0.00000000000E+00 -0.00000000000E+00 -0.15786234150E+02  0.15786234150E+02  0.00000000000E+00 0.  1.
         25    2    1    2    0    0 -0.28396301192E+02 -0.25202990672E+02  0.11389341756E+04  0.11464118450E+04  0.12509005273E+03 0.  0.
          5    1    3    3  502    0 -0.46074738023E+02  0.32824334544E+02  0.80433274340E+03  0.80633054818E+03  0.41800000000E+01 0.  1.
         -5    1    3    3    0  502  0.17678436831E+02 -0.58027325216E+02  0.33460143222E+03  0.34008129682E+03  0.41800000000E+01 0.  1.
        -11    1    1    2    0    0  0.19064068209E+02 -0.86659727804E+01  0.29041748684E-01  0.20941313816E+02  0.00000000000E+00 0.  1.
         11    1    1    2    0    0  0.93322329830E+01  0.33868963453E+02  0.19231083278E+03  0.19549335964E+03  0.00000000000E+00 0. -1.
</event>
<event>
 7    1  0.2651429E-009  0.1006283E+03  0.7561462E-02  0.1278980E+00
         -2   -1    0    0    0  501 -0.00000000000E+00  0.00000000000E+00  0.41060162985E+03  0.41060162985E+03  0.00000000000E+00 0.  1.
          2   -1    0    0  501    0  0.00000000000E+00 -0.00000000000E+00 -0.46097516965E+02  0.46097516965E+02  0.00000000000E+00 0. -1.
         25    2    1    2    0    0 -0.16141622988E+02 -0.71435094664E+02  0.26444664423E+03  0.30156796696E+03  0.12509071233E+03 0.  0.
          5    1    3    3  502    0 -0.11854637435E+02  0.38077117952E+01 -0.10268657414E+02  0.16671797231E+02  0.41800000000E+01 0. -1.
         -5    1    3    3    0  502 -0.42869855525E+01 -0.75242806459E+02  0.27471530165E+03  0.28489616973E+03  0.41800000000E+01 0. -1.
        -11    1    1    2    0    0  0.44556259796E+02  0.71476936326E+02  0.93742409572E+02  0.12602322034E+03  0.00000000000E+00 0.  1.
         11    1    1    2    0    0 -0.28414636808E+02 -0.41841661917E-01  0.63150590849E+01  0.29107959511E+02  0.00000000000E+00 0. -1.
</event>
<event>
 7    1  0.2651429E-009  0.1957066E+03  0.7561462E-02  0.1153413E+00
          1   -1    0    0  501    0  0.00000000000E+00  0.00000000000E+00  0.16992415744E+04  0.16992415744E+04  0.00000000000E+00 0. -1.
         -1   -1    0    0    0  501 -0.00000000000E+00 -0.00000000000E+00 -0.23001316589E+02  0.23001316589E+02  0.00000000000E+00 0.  1.
         25    2    1    2    0    0 -0.45481463462E+01  0.16482417096E+03  0.92558313088E+03  0.94844031413E+03  0.12508878583E+03 0.  0.
          5    1    3    3  502    0  0.59562071919E+02  0.92074213659E+02  0.51024572036E+03  0.52191327707E+03  0.41800000000E+01 0.  1.
         -5    1    3    3    0  502 -0.64110218265E+02  0.72749957299E+02  0.41533741052E+03  0.42652703707E+03  0.41800000000E+01 0.  1.
        -11    1    1    2    0    0 -0.31647758219E+02 -0.13204173788E+03  0.60935362274E+03  0.62429835711E+03  0.00000000000E+00 0. -1.
         11    1    1    2    0    0  0.36195904565E+02 -0.32782433079E+02  0.14130350423E+03  0.14950421979E+03  0.00000000000E+00 0.  1.
</event>
<event>
 7    1  0.2651429E-009  0.2072335E+03  0.7561462E-02  0.1143776E+00
          2   -1    0    0  501    0  0.00000000000E+00  0.00000000000E+00  0.48955522092E+03  0.48955522092E+03  0.00000000000E+00 0. -1.
         -2   -1    0    0    0  501 -0.00000000000E+00 -0.00000000000E+00 -0.90825743330E+02  0.90825743330E+02  0.00000000000E+00 0.  1.
         25    2    1    2    0    0 -0.97906356875E+02 -0.14799195556E+03  0.16511890322E+03  0.27276190097E+03  0.12509008270E+03 0.  0.
          5    1    3    3  502    0 -0.12604015963E+03 -0.13316307079E+03  0.15162705760E+03  0.23796378350E+03  0.41800000000E+01 0. -1.
         -5    1    3    3    0  502  0.28133802753E+02 -0.14828884773E+02  0.13491845625E+02  0.34798117468E+02  0.41800000000E+01 0. -1.
        -11    1    1    2    0    0 -0.50224905255E+00  0.78539180852E+02  0.10858159643E+03  0.13400976930E+03  0.00000000000E+00 0. -1.
         11    1    1    2    0    0  0.98408605928E+02  0.69452774707E+02  0.12502897793E+03  0.17360929398E+03  0.00000000000E+00 0.  1.
</event>
<event>
 7    1  0.2651429E-009  0.1164639E+03  0.7561462E-02  0.1249047E+00
          1   -1    0    0  501    0  0.00000000000E+00  0.00000000000E+00  0.54733758037E+02  0.54733758037E+02  0.00000000000E+00 0. -1.
         -1   -1    0    0    0  501 -0.00000000000E+00 -0.00000000000E+00 -0.40390899024E+03  0.40390899024E+03  0.00000000000E+00 0.  1.
         25    2    1    2    0    0  0.66679089587E+02  0.32005715017E+02 -0.29486789513E+03  0.32873241703E+03  0.12508980632E+03 0.  0.
          5    1    3    3  502    0  0.96541303725E+02  0.20100666924E+02 -0.14504078955E+03  0.17543820327E+03  0.41800000000E+01 0. -1.
         -5    1    3    3    0  502 -0.29862214138E+02  0.11905048092E+02 -0.14982710558E+03  0.15329421375E+03  0.41800000000E+01 0. -1.
        -11    1    1    2    0    0  0.10872702503E+02  0.89721970318E+01 -0.38217425073E+02  0.40734353542E+02  0.00000000000E+00 0.  1.
         11    1    1    2    0    0 -0.77551792090E+02 -0.40977912049E+02 -0.16089912004E+02  0.89175977710E+02  0.00000000000E+00 0. -1.
</event>
<event>
 7    1  0.2651429E-009  0.1258922E+03  0.7561462E-02  0.1233681E+00
         -2   -1    0    0    0  501 -0.00000000000E+00  0.00000000000E+00  0.65760012322E+02  0.65760012322E+02  0.00000000000E+00 0.  1.
          2   -1    0    0  501    0  0.00000000000E+00 -0.00000000000E+00 -0.35000715481E+03  0.35000715481E+03  0.00000000000E+00 0. -1.
         25    2    1    2    0    0 -0.13266011255E+01 -0.66125701116E+02 -0.26730809860E+03  0.30244168163E+03  0.12507191128E+03 0.  0.
          5    1    3    3  502    0  0.55352979838E+02 -0.63440726180E+02 -0.15002817863E+03  0.17208894473E+03  0.41800000000E+01 0.  1.
         -5    1    3    3    0  502 -0.56679580963E+02 -0.26849749357E+01 -0.11727991997E+03  0.13035273690E+03  0.41800000000E+01 0.  1.
        -11    1    1    2    0    0  0.33826873889E+02  0.70112003288E+02 -0.34799410443E+01  0.77923426464E+02  0.00000000000E+00 0.  1.
         11    1    1    2    0    0 -0.32500272764E+02 -0.39863021722E+01 -0.13459102839E+02  0.35402059036E+02  0.00000000000E+00 0. -1.
</event>
<event>
 7    1  0.2651429E-009  0.1560576E+03  0.7561462E-02  0.1193221E+00
          1   -1    0    0  501    0  0.00000000000E+00  0.00000000000E+00  0.74768493707E+02  0.74768493707E+02  0.00000000000E+00 0. -1.
         -1   -1    0    0    0  501 -0.00000000000E+00 -0.00000000000E+00 -0.41868618970E+03  0.41868618970E+03  0.00000000000E+00 0.  1.
         25    2    1    2    0    0 -0.13928865462E+03  0.42834902221E+00 -0.17383741771E+03  0.25547713131E+03  0.12509038348E+03 0.  0.
          5    1    3    3  502    0  0.14154481977E+02 -0.91324144941E+00 -0.66604115856E+02  0.68225831024E+02  0.41800000000E+01 0. -1.
         -5    1    3    3    0  502 -0.15344313659E+03  0.13415904716E+01 -0.10723330185E+03  0.18725130029E+03  0.41800000000E+01 0. -1.
        -11    1    1    2    0    0  0.64275885718E+02 -0.18060631061E+02 -0.20711804866E+02  0.69903896457E+02  0.00000000000E+00 0.  1.
         11    1    1    2    0    0  0.75012768900E+02  0.17632282039E+02 -0.14936847342E+03  0.16807365564E+03  0.00000000000E+00 0. -1.
</event>
<event>
 7    1  0.2651429E-009  0.2526128E+03  0.7561462E-02  0.1111665E+00
         -1   -1    0    0    0  501 -0.00000000000E+00  0.00000000000E+00  0.58010602209E+03  0.58010602209E+03  0.00000000000E+00 0.  1.
          1   -1    0    0  501    0  0.00000000000E+00 -0.00000000000E+00 -0.12778322437E+03  0.12778322437E+03  0.00000000000E+00 0. -1.
         25    2    1    2    0    0 -0.15291800304E+03  0.19455068528E+03  0.26909211124E+03  0.38638291314E+03  0.12508919393E+03 0.  0.
          5    1    3    3  502    0 -0.77225755921E+02  0.74249521312E+02  0.20301620197E+03  0.22958627890E+03  0.41800000000E+01 0. -1.
         -5    1    3    3    0  502 -0.75692247118E+02  0.12030116396E+03  0.66075909270E+02  0.15679663425E+03  0.41800000000E+01 0. -1.
        -11    1    1    2    0    0  0.99560009950E+02 -0.74190933256E+02  0.48987252563E+02  0.13347749276E+03  0.00000000000E+00 0. -1.
         11    1    1    2    0    0  0.53357993089E+02 -0.12035975202E+03  0.13424343391E+03  0.18802884056E+03  0.00000000000E+00 0.  1.
</event>
<event>
 7    1  0.2651429E-009  0.1106828E+03  0.7561462E-02  0.1259311E+00
          1   -1    0    0  501    0  0.00000000000E+00  0.00000000000E+00  0.58849930912E+02  0.58849930912E+02  0.00000000000E+00 0. -1.
         -1   -1    0    0    0  501 -0.00000000000E+00 -0.00000000000E+00 -0.25934204606E+03  0.25934204606E+03  0.00000000000E+00 0.  1.
         25    2    1    2    0    0 -0.19527846441E+02 -0.56576882064E+02 -0.12394847945E+03  0.18599206386E+03  0.12509013506E+03 0.  0.
          5    1    3    3  502    0  0.23397385614E+01 -0.80697737121E+02 -0.12953951911E+03  0.15269433049E+03  0.41800000000E+01 0.  1.
         -5    1    3    3    0  502 -0.21867585002E+02  0.24120855058E+02  0.55910396650E+01  0.33297733363E+02  0.41800000000E+01 0.  1.
        -11    1    1    2    0    0  0.39157928934E+02  0.72517022063E+02 -0.60771117655E+02  0.10239721983E+03  0.00000000000E+00 0. -1.
         11    1    1    2    0    0 -0.19630082494E+02 -0.15940139999E+02 -0.15772518048E+02  0.29802693293E+02  0.00000000000E+00 0.  1.
</event>
<event>
 7    1  0.2651429E-009  0.1303154E+03  0.7561462E-02  0.1226989E+00
          2   -1    0    0  501    0  0.00000000000E+00  0.00000000000E+00  0.18789177492E+03  0.18789177492E+03  0.00000000000E+00 0. -1.
         -2   -1    0    0    0  501 -0.00000000000E+00 -0.00000000000E+00 -0.13070952242E+03  0.13070952242E+03  0.00000000000E+00 0.  1.
         25    2    1    2    0    0  0.10651647345E+03  0.10609908951E+02  0.63397702722E+02  0.17642348796E+03  0.12509056364E+03 0.  0.
          5    1    3    3  502    0  0.10817109678E+03 -0.30310872634E+02  0.73146515109E+02  0.13411793411E+03  0.41800000000E+01 0.  1.
         -5    1    3    3    0  502 -0.16546233260E+01  0.40920781585E+02 -0.97488123877E+01  0.42305553853E+02  0.41800000000E+01 0.  1.
        -11    1    1    2    0    0 -0.26593295524E+02 -0.22060087536E+01  0.41038137538E+02  0.48950981339E+02  0.00000000000E+00 0. -1.
         11    1    1    2    0    0 -0.79923177925E+02 -0.84039001975E+01 -0.47253587759E+02  0.93226828029E+02  0.00000000000E+00 0.  1.
</event>
<event>
 7    1  0.2651429E-009  0.1097316E+03  0.7561462E-02  0.1261068E+00
         -2   -1    0    0    0  501 -0.00000000000E+00  0.00000000000E+00  0.53257396816E+02  0.53257396816E+02  0.00000000000E+00 0.  1.
          2   -1    0    0  501    0  0.00000000000E+00 -0.00000000000E+00 -0.23006780875E+03  0.23006780875E+03  0.00000000000E+00 0. -1.
         25    2    1    2    0    0  0.14193888456E+02 -0.14019765260E+02 -0.86290229475E+02  0.15327016798E+03  0.12509084860E+03 0.  0.
          5    1    3    3  502    0  0.69804453944E+02 -0.11199480476E+02 -0.47181169461E+02  0.85097739718E+02  0.41800000000E+01 0. -1.
         -5    1    3    3    0  502 -0.55610565488E+02 -0.28202847838E+01 -0.39109060014E+02  0.68172428264E+02  0.41800000000E+01 0. -1.
        -11    1    1    2    0    0 -0.33640934356E+02  0.45024940753E+02 -0.61773616201E+02  0.83516090741E+02  0.00000000000E+00 0. -1.
         11    1    1    2    0    0  0.19447045900E+02 -0.31005175493E+02 -0.28746566260E+02  0.46538946844E+02  0.00000000000E+00 0.  1.
</event>
<event>
 7    1  0.2651429E-009  0.1152544E+03  0.7561462E-02  0.1251138E+00
          4   -1    0    0  501    0  0.00000000000E+00  0.00000000000E+00  0.77622017448E+02  0.77622017448E+02  0.00000000000E+00 0.  1.
         -4   -1    0    0    0  501 -0.00000000000E+00 -0.00000000000E+00 -0.24224926905E+03  0.24224926905E+03  0.00000000000E+00 0. -1.
         25    2    1    2    0    0 -0.63714767873E+02 -0.32394319320E+02 -0.14226666779E+03  0.20247354582E+03  0.12508704340E+03 0.  0.
          5    1    3    3  502    0 -0.42745880184E+02  0.30387638522E+02 -0.86731797012E+01  0.53322746495E+02  0.41800000000E+01 0.  1.
         -5    1    3    3    0  502 -0.20968887689E+02 -0.62781957842E+02 -0.13359348809E+03  0.14915079933E+03  0.41800000000E+01 0.  1.
        -11    1    1    2    0    0  0.38927676758E+02 -0.26892333414E+02  0.49572950130E+01  0.47572433069E+02  0.00000000000E+00 0.  1.
         11    1    1    2    0    0  0.24787091115E+02  0.59286652734E+02 -0.27317878825E+02  0.69825307603E+02  0.00000000000E+00 0. -1.
</event>
<event>
 7    1  0.2651429E-009  0.1188361E+03  0.7561462E-02  0.1245030E+00
         -1   -1    0    0    0  501 -0.00000000000E+00  0.00000000000E+00  0.28320496557E+03  0.28320496557E+03  0.00000000000E+00 0.  1.
          1   -1    0    0  501    0  0.00000000000E+00 -0.00000000000E+00 -0.65864138340E+02  0.65864138340E+02  0.00000000000E+00 0. -1.
         25    2    1    2    0    0 -0.42249633795E+02  0.30262166406E+02  0.42621194491E+02  0.14200742244E+03  0.12509481019E+03 0.  0.
          5    1    3    3  502    0  0.43214157016E+02 -0.19149253845E+01  0.19970427733E+02  0.47826987043E+02  0.41800000000E+01 0.  1.
         -5    1    3    3    0  502 -0.85463790811E+02  0.32177091791E+02  0.22650766759E+02  0.94180435392E+02  0.41800000000E+01 0.  1.
        -11    1    1    2    0    0 -0.28873048778E+01  0.28530955153E+02  0.90180477281E+02  0.94630177079E+02  0.00000000000E+00 0.  1.
         11    1    1    2    0    0  0.45136938673E+02 -0.58793121559E+02  0.84539155461E+02  0.11243150440E+03  0.00000000000E+00 0. -1.
</event>
<event>
 7    1  0.2651429E-009  0.9629716E+02  0.7561462E-02  0.1288281E+00
         -1   -1    0    0    0  501 -0.00000000000E+00  0.00000000000E+00  0.36536241441E+02  0.36536241441E+02  0.00000000000E+00 0.  1.
          1   -1    0    0  501    0  0.00000000000E+00 -0.00000000000E+00 -0.38551251823E+03  0.38551251823E+03  0.00000000000E+00 0. -1.
         25    2    1    2    0    0 -0.26257211579E+02 -0.36818475415E+02 -0.16743192683E+03  0.21383732270E+03  0.12509160310E+03 0.  0.
          5    1    3    3  502    0 -0.20507102538E+02  0.24173315490E+02 -0.14496847286E+03  0.14845275666E+03  0.41800000000E+01 0.  1.
         -5    1    3    3    0  502 -0.57501090411E+01 -0.60991790906E+02 -0.22463453962E+02  0.65384566036E+02  0.41800000000E+01 0.  1.
        -11    1    1    2    0    0 -0.28191630090E+01  0.61202681004E+02 -0.87665654559E+02  0.10695318056E+03  0.00000000000E+00 0.  1.
         11    1    1    2    0    0  0.29076374588E+02 -0.24384205588E+02 -0.93878695404E+02  0.10125825641E+03  0.00000000000E+00 0. -1.
</event>
<event>
 7    1  0.2651429E-009  0.1791322E+03  0.7561462E-02  0.1168646E+00
         -2   -1    0    0    0  501 -0.00000000000E+00  0.00000000000E+00  0.86783630231E+02  0.86783630231E+02  0.00000000000E+00 0.  1.
          2   -1    0    0  501    0  0.00000000000E+00 -0.00000000000E+00 -0.42250178130E+03  0.42250178130E+03  0.00000000000E+00 0. -1.
         25    2    1    2    0    0 -0.37804287351E+02  0.15201778841E+03 -0.16033109243E+03  0.25669388020E+03  0.12508843590E+03 0.  0.
          5    1    3    3  502    0 -0.64786902622E+02  0.15756928537E+03 -0.12327998798E+03  0.21033509046E+03  0.41800000000E+01 0.  1.
         -5    1    3    3    0  502  0.26982615271E+02 -0.55514969535E+01 -0.37051104450E+02  0.46358789741E+02  0.41800000000E+01 0.  1.
        -11    1    1    2    0    0  0.14836550632E+02 -0.11804351675E+03 -0.66630132639E+02  0.13635970687E+03  0.00000000000E+00 0.  1.
         11    1    1    2    0    0  0.22967736719E+02 -0.33974271665E+02 -0.10875692600E+03  0.11623182447E+03  0.00000000000E+00 0. -1.
</event>
<event>
 7    1  0.2651429E-009  0.1481192E+03  0.7561462E-02  0.1202803E+00
          2   -1    0    0  501    0  0.00000000000E+00  0.00000000000E+00  0.38890393001E+03  0.38890393001E+03  0.00000000000E+00 0. -1.
         -2   -1    0    0    0  501 -0.00000000000E+00 -0.00000000000E+00 -0.66930537028E+02  0.66930537028E+02  0.00000000000E+00 0.  1.
         25    2    1    2    0    0 -0.37777810663E+02 -0.11098754229E+03  0.20192922365E+03  0.26489106094E+03  0.12508583166E+03 0.  0.
          5    1    3    3  502    0 -0.78884714323E+02 -0.56055553736E+02  0.15077539357E+03  0.17920857950E+03  0.41800000000E+01 0. -1.
         -5    1    3    3    0  502  0.41106903660E+02 -0.54931988551E+02  0.51153830075E+02  0.85682481442E+02  0.41800000000E+01 0. -1.
        -11    1    1    2    0    0  0.65114212105E+01  0.95543986079E+02  0.12306989854E+03  0.15593989806E+03  0.00000000000E+00 0. -1.
         11    1    1    2    0    0  0.31266389452E+02  0.15443556208E+02 -0.30257292006E+01  0.35003508037E+02  0.00000000000E+00 0.  1.
</event>
<event>
 7    1  0.2651429E-009  0.2194034E+03  0.7561462E-02  0.1134329E+00
         -1   -1    0    0    0  501 -0.00000000000E+00  0.00000000000E+00  0.23224658744E+03  0.23224658744E+03  0.00000000000E+00 0.  1.
          1   -1    0    0  501    0  0.00000000000E+00 -0.00000000000E+00 -0.20986900387E+03  0.20986900387E+03  0.00000000000E+00 0. -1.
         25    2    1    2    0    0 -0.16572175270E+03 -0.96672948498E+02  0.22310988525E+02  0.23011912163E+03  0.12509065370E+03 0.  0.
          5    1    3    3  502    0 -0.11741893287E+02 -0.70003418946E+02  0.19644564297E+02  0.73768096278E+02  0.41800000000E+01 0. -1.
         -5    1    3    3    0  502 -0.15397985941E+03 -0.26669529552E+02  0.26664242287E+01  0.15635102535E+03  0.41800000000E+01 0. -1.
        -11    1    1    2    0    0  0.95324506364E+02  0.45504482729E+01  0.81081431091E+01  0.95776876529E+02  0.00000000000E+00 0.  1.
         11    1    1    2    0    0  0.70397246332E+02  0.92122500225E+02 -0.80415480658E+01  0.11621959316E+03  0.00000000000E+00 0. -1.
</event>
<event>
 7    1  0.2651429E-009  0.4275166E+03  0.7561462E-02  0.1034647E+00
         -1   -1    0    0    0  501 -0.00000000000E+00  0.00000000000E+00  0.20981747465E+04  0.20981747465E+04  0.00000000000E+00 0.  1.
          1   -1    0    0  501    0  0.00000000000E+00 -0.00000000000E+00 -0.10081142919E+03  0.10081142919E+03  0.00000000000E+00 0. -1.
         25    2    1    2    0    0  0.41912507456E+03  0.61722132266E+02  0.13481025919E+04  0.14186271024E+04  0.12508719993E+03 0.  0.
          5    1    3    3  502    0  0.27106795590E+03  0.75031151779E+02  0.10258288268E+04  0.10636962747E+04  0.41800000000E+01 0. -1.
         -5    1    3    3    0  502  0.14805711866E+03 -0.13309019512E+02  0.32227376505E+03  0.35493082766E+03  0.41800000000E+01 0. -1.
        -11    1    1    2    0    0 -0.28719509338E+03 -0.58308837998E+02  0.37437633472E+03  0.47543515041E+03  0.00000000000E+00 0. -1.
         11    1    1    2    0    0 -0.13192998118E+03 -0.34132942681E+01  0.27488439070E+03  0.30492392291E+03  0.00000000000E+00 0.  1.
</event>
<event>
 7    1  0.2651429E-009  0.9527258E+02  0.7561462E-02  0.1290563E+00
         -1   -1    0    0    0  501 -0.00000000000E+00  0.00000000000E+00  0.30115479221E+02  0.30115479221E+02  0.00000000000E+00 0.  1.
          1   -1    0    0  501    0  0.00000000000E+00 -0.00000000000E+00 -0.43582291032E+03  0.43582291032E+03  0.00000000000E+00 0. -1.
         25    2    1    2    0    0  0.83616322774E+01 -0.22304179112E+02 -0.26813329903E+03  0.29683303146E+03  0.12508792594E+03 0.  0.
          5    1    3    3  502    0 -0.33571219810E+02 -0.40546483292E+02 -0.46090535834E+02  0.70091754154E+02  0.41800000000E+01 0. -1.
         -5    1    3    3    0  502  0.41932852088E+02  0.18242304180E+02 -0.22204276320E+03  0.22674127731E+03  0.41800000000E+01 0. -1.
        -11    1    1    2    0    0  0.28767585912E+02 -0.20373164202E+02 -0.84412778677E+02  0.91477631270E+02  0.00000000000E+00 0. -1.
         11    1    1    2    0    0 -0.37129218189E+02  0.42677343314E+02 -0.53161353395E+02  0.77627726815E+02  0.00000000000E+00 0.  1.
</event>
<event>
 7    1  0.2651429E-009  0.1313347E+03  0.7561462E-02  0.1225489E+00
         -3   -1    0    0    0  501 -0.00000000000E+00  0.00000000000E+00  0.78901856375E+02  0.78901856375E+02  0.00000000000E+00 0.  1.
          3   -1    0    0  501    0  0.00000000000E+00 -0.00000000000E+00 -0.36686140803E+03  0.36686140803E+03  0.00000000000E+00 0. -1.
         25    2    1    2    0    0  0.16974523735E+02 -0.80343381983E+02 -0.28571318399E+03  0.32252668770E+03  0.12509295461E+03 0.  0.
          5    1    3    3  502    0  0.55105590003E+02 -0.91094534300E+02 -0.17522413998E+03  0.20507513711E+03  0.41800000000E+01 0. -1.
         -5    1    3    3    0  502 -0.38131066269E+02  0.10751152317E+02 -0.11048904401E+03  0.11745155060E+03  0.41800000000E+01 0. -1.
        -11    1    1    2    0    0 -0.32818181095E+02 -0.15672923642E+01  0.17892216772E+02  0.37411506742E+02  0.00000000000E+00 0.  1.
         11    1    1    2    0    0  0.15843657360E+02  0.81910674347E+02 -0.20138584440E+02  0.85825069961E+02  0.00000000000E+00 0. -1.
</event>
<event>
 7    1  0.2651429E-009  0.2180643E+03  0.7561462E-02  0.1135334E+00
          2   -1    0    0  501    0  0.00000000000E+00  0.00000000000E+00  0.99659812514E+03  0.99659812514E+03  0.00000000000E+00 0. -1.
         -2   -1    0    0    0  501 -0.00000000000E+00 -0.00000000000E+00 -0.56934929698E+02  0.56934929698E+02  0.00000000000E+00 0.  1.
         25    2    1    2    0    0 -0.19537141452E+03  0.68269094414E+02  0.57716345513E+03  0.62577460669E+03  0.12508215531E+03 0.  0.
          5    1    3    3  502    0 -0.10423851991E+03  0.18820535435E+02  0.13525691502E+03  0.17184815113E+03  0.41800000000E+01 0.  1.
         -5    1    3    3    0  502 -0.91132894614E+02  0.49448558979E+02  0.44190654011E+03  0.45392645556E+03  0.41800000000E+01 0.  1.
        -11    1    1    2    0    0  0.17594106769E+03 -0.23440637953E+02  0.26937699659E+03  0.32259679028E+03  0.00000000000E+00 0.  1.
         11    1    1    2    0    0  0.19430346829E+02 -0.44828456462E+02  0.93122743724E+02  0.10516165787E+03  0.00000000000E+00 0. -1.
</event>
<event>
 7    1  0.2651429E-009  0.1089066E+03  0.7561462E-02  0.1262608E+00
         -3   -1    0    0    0  501 -0.00000000000E+00  0.00000000000E+00  0.14972357236E+02  0.14972357236E+02  0.00000000000E+00 0.  1.
          3   -1    0    0  501    0  0.00000000000E+00 -0.00000000000E+00 -0.11338012225E+04  0.11338012225E+04  0.00000000000E+00 0. -1.
         25    2    1    2    0    0 -0.36629395815E+02 -0.28519557918E+02 -0.86458645588E+03  0.87482133260E+03  0.12509015329E+03 0.  0.
          5    1    3    3  502    0  0.36262377598E+02 -0.30384434180E+02 -0.54168910846E+03  0.54376717122E+03  0.41800000000E+01 0.  1.
         -5    1    3    3    0  502 -0.72891773413E+02  0.18648762627E+01 -0.32289734742E+03  0.33105416138E+03  0.41800000000E+01 0.  1.
        -11    1    1    2    0    0 -0.12815235909E+02 -0.22715796748E+02 -0.36478960818E+02  0.44843642533E+02  0.00000000000E+00 0.  1.
         11    1    1    2    0    0  0.49444631724E+02  0.51235354665E+02 -0.21776344857E+03  0.22910860461E+03  0.00000000000E+00 0. -1.
</event>
<event>
 7    1  0.2651429E-009  0.1670301E+03  0.7561462E-02  0.1180981E+00
         -1   -1    0    0    0  501 -0.00000000000E+00  0.00000000000E+00  0.20818837613E+03  0.20818837613E+03  0.00000000000E+00 0.  1.
          1   -1    0    0  501    0  0.00000000000E+00 -0.00000000000E+00 -0.19869593809E+03  0.19869593809E+03  0.00000000000E+00 0. -1.
         25    2    1    2    0    0  0.13568468237E+03 -0.93725691541E+02  0.54276910184E+02  0.21398219203E+03  0.12509019643E+03 0.  0.
          5    1    3    3  502    0  0.86131526080E+02 -0.75177333562E+02  0.93692403252E+02  0.14787160002E+03  0.41800000000E+01 0. -1.
         -5    1    3    3    0  502  0.49553156291E+02 -0.18548357979E+02 -0.39415493068E+02  0.66110592010E+02  0.41800000000E+01 0. -1.
        -11    1    1    2    0    0 -0.19199732465E+02  0.24330576116E+02 -0.48159671023E+02  0.57270940047E+02  0.00000000000E+00 0.  1.
         11    1    1    2    0    0 -0.11648494991E+03  0.69395115425E+02  0.33751988772E+01  0.13563118213E+03  0.00000000000E+00 0. -1.
</event>
<event>
 7    1  0.3308666E-009  0.7734897E+02  0.7561462E-02  0.1336748E+00
          1   -1    0    0  501    0  0.00000000000E+00  0.00000000000E+00  0.96167532257E+03  0.96167532257E+03  0.00000000000E+00 0. -1.
         -1   -1    0    0    0  501 -0.00000000000E+00 -0.00000000000E+00 -0.14429739613E+02  0.14429739613E+02  0.00000000000E+00 0.  1.
         25    2    1    2    0    0  0.13972934125E+02  0.84146712253E+01  0.71651919128E+03  0.72753963512E+03  0.12509244432E+03 0.  0.
          5    1    3    3  502    0  0.38210661046E+02  0.16013122206E+02  0.77299627475E+02  0.87801933397E+02  0.41800000000E+01 0.  1.
         -5    1    3    3    0  502 -0.24237726920E+02 -0.75984509806E+01  0.63921956380E+03  0.63973770172E+03  0.41800000000E+01 0.  1.
        -11    1    1    2    0    0 -0.21995323082E+02  0.35996612211E+02  0.15277843808E+03  0.15849543044E+03  0.00000000000E+00 0. -1.
         11    1    1    2    0    0  0.80223889568E+01 -0.44411283436E+02  0.77947953608E+02  0.90069996629E+02  0.00000000000E+00 0.  1.
</event>
<event>
 7    1  0.2651429E-009  0.9728158E+02  0.7561462E-02  0.1286119E+00
         -1   -1    0    0    0  501 -0.00000000000E+00  0.00000000000E+00  0.30560074211E+03  0.30560074211E+03  0.00000000000E+00 0.  1.
          1   -1    0    0  501    0  0.00000000000E+00 -0.00000000000E+00 -0.52250242142E+02  0.52250242142E+02  0.00000000000E+00 0. -1.
         25    2    1    2    0    0  0.11811478620E+02  0.28508519812E+01  0.22942635224E+03  0.26161175650E+03  0.12512642269E+03 0.  0.
          5    1    3    3  502    0 -0.13530939005E+02  0.58405492187E+02  0.79389283202E+02  0.99571173114E+02  0.41800000000E+01 0.  1.
         -5    1    3    3    0  502  0.25342417625E+02 -0.55554640206E+02  0.15003706904E+03  0.16204058339E+03  0.41800000000E+01 0.  1.
        -11    1    1    2    0    0  0.27897572337E+02 -0.15077993562E+02 -0.18618628497E+02  0.36773275069E+02  0.00000000000E+00 0. -1.
         11    1    1    2    0    0 -0.39709050957E+02  0.12227141581E+02  0.42542776225E+02  0.59465952680E+02  0.00000000000E+00 0.  1.
</event>
<event>
 7    1  0.2651429E-009  0.4456381E+02  0.7561462E-02  0.1477083E+00
          1   -1    0    0  501    0  0.00000000000E+00  0.00000000000E+00  0.55731167411E+02  0.55731167411E+02  0.00000000000E+00 0. -1.
         -1   -1    0    0    0  501 -0.00000000000E+00 -0.00000000000E+00 -0.29240687376E+03  0.29240687376E+03  0.00000000000E+00 0.  1.
         25    2    1    2    0    0  0.18675528764E+01  0.26271438105E+02 -0.19338495418E+03  0.23181801463E+03  0.12509266640E+03 0.  0.
          5    1    3    3  502    0  0.73695246337E+01  0.16844819054E+02 -0.21036275294E+03  0.21120610325E+03  0.41800000000E+01 0.  1.
         -5    1    3    3    0  502 -0.55019717573E+01  0.94266190509E+01  0.16977798760E+02  0.20611911379E+02  0.41800000000E+01 0.  1.
        -11    1    1    2    0    0  0.24740369394E+02 -0.18412560280E+02  0.26850622532E+02  0.40890881431E+02  0.00000000000E+00 0. -1.
         11    1    1    2    0    0 -0.26607922270E+02 -0.78588778242E+01 -0.70141374695E+02  0.75429145112E+02  0.00000000000E+00 0.  1.
</event>
<event>
 7    1  0.2651429E-009  0.9652837E+02  0.7561462E-02  0.1287770E+00
         -2   -1    0    0    0  501 -0.00000000000E+00  0.00000000000E+00  0.44275486550E+03  0.44275486550E+03  0.00000000000E+00 0.  1.
          2   -1    0    0  501    0  0.00000000000E+00 -0.00000000000E+00 -0.52618811224E+02  0.52618811224E+02  0.00000000000E+00 0. -1.
         25    2    1    2    0    0 -0.31688861317E+02 -0.59287760044E+02  0.33929907652E+03  0.36782190804E+03  0.12509944158E+03 0.  0.
          5    1    3    3  502    0  0.21557448638E+02 -0.15383179259E+02  0.26491302966E+03  0.26626631683E+03  0.41800000000E+01 0.  1.
         -5    1    3    3    0  502 -0.53246309955E+02 -0.43904580785E+02  0.74386046859E+02  0.10155559121E+03  0.41800000000E+01 0.  1.
        -11    1    1    2    0    0 -0.21986797055E+02  0.25551174484E+02 -0.14335523136E+02  0.36630437969E+02  0.00000000000E+00 0. -1.
         11    1    1    2    0    0  0.53675658372E+02  0.33736585561E+02  0.65172500892E+02  0.90921330717E+02  0.00000000000E+00 0.  1.
</event>
<event>
 7    1  0.2651429E-009  0.9576010E+02  0.7561462E-02  0.1289473E+00
          1   -1    0    0  501    0  0.00000000000E+00  0.00000000000E+00  0.97062539430E+03  0.97062539430E+03  0.00000000000E+00 0. -1.
         -1   -1    0    0    0  501 -0.00000000000E+00 -0.00000000000E+00 -0.17426060291E+02  0.17426060291E+02  0.00000000000E+00 0.  1.
         25    2    1    2    0    0 -0.31641910366E+02  0.59571448924E+02  0.60380149882E+03  0.62029687867E+03  0.12506798026E+03 0.  0.
          5    1    3    3  502    0  0.68622491054E+01  0.35917208840E+02  0.38813764766E+02  0.53489410999E+02  0.41800000000E+01 0.  1.
         -5    1    3    3    0  502 -0.38504159472E+02  0.23654240084E+02  0.56498773406E+03  0.56680746767E+03  0.41800000000E+01 0.  1.
        -11    1    1    2    0    0 -0.29632222286E+02 -0.12948281419E+02  0.16127654681E+03  0.16448662906E+03  0.00000000000E+00 0. -1.
         11    1    1    2    0    0  0.61274132652E+02 -0.46623167505E+02  0.18812128837E+03  0.20326794686E+03  0.00000000000E+00 0.  1.
</event>
<event>
 7    1  0.2651429E-009  0.1118072E+03  0.7561462E-02  0.1257259E+00
         -2   -1    0    0    0  501 -0.00000000000E+00  0.00000000000E+00  0.14395206661E+03  0.14395206661E+03  0.00000000000E+00 0. -1.
          2   -1    0    0  501    0  0.00000000000E+00 -0.00000000000E+00 -0.11427637817E+03  0.11427637817E+03  0.00000000000E+00 0.  1.
         25    2    1    2    0    0 -0.60773801780E+02  0.31751920396E+02  0.23387084992E+02  0.14456019719E+03  0.12509618474E+03 0.  0.
          5    1    3    3  502    0 -0.78997501053E+02  0.74227882557E+01  0.57949488641E+02  0.98342862435E+02  0.41800000000E+01 0.  1.
         -5    1    3    3    0  502  0.18223699273E+02  0.24329132141E+02 -0.34562403649E+02  0.46217334755E+02  0.41800000000E+01 0.  1.
        -11    1    1    2    0    0 -0.12100614224E+02 -0.38435276643E+02  0.12429846968E+01  0.40314270006E+02  0.00000000000E+00 0.  1.
         11    1    1    2    0    0  0.72874416004E+02  0.66833562463E+01  0.50456187478E+01  0.73353977582E+02  0.00000000000E+00 0. -1.
</event>
<event>
 7    1  0.2651429E-009  0.1330136E+03  0.7561462E-02  0.1223051E+00
         -1   -1    0    0    0  501 -0.00000000000E+00  0.00000000000E+00  0.23234863411E+02  0.23234863411E+02  0.00000000000E+00 0.  1.
          1   -1    0    0  501    0  0.00000000000E+00 -0.00000000000E+00 -0.17502941622E+04  0.17502941622E+04  0.00000000000E+00 0. -1.
         25    2    1    2    0    0  0.86362561374E+02  0.63398365191E+02 -0.14858409860E+04  0.14949410364E+04  0.12508965575E+03 0.  0.
          5    1    3    3  502    0  0.59185052398E+02  0.85716286601E+02 -0.64631217694E+03  0.65466560524E+03  0.41800000000E+01 0. -1.
         -5    1    3    3    0  502  0.27177508976E+02 -0.22317921411E+02 -0.83952880909E+03  0.84027543121E+03  0.41800000000E+01 0. -1.
        -11    1    1    2    0    0 -0.21448475646E+02 -0.57278931248E+02 -0.58703043424E+02  0.84775942222E+02  0.00000000000E+00 0.  1.
         11    1    1    2    0    0 -0.64914085728E+02 -0.61194339425E+01 -0.18251526929E+03  0.19381204690E+03  0.00000000000E+00 0. -1.
</event>
<event>
 7    1  0.2651429E-009  0.9071130E+02  0.7561462E-02  0.1301138E+00
         -2   -1    0    0    0  501 -0.00000000000E+00  0.00000000000E+00  0.33612651843E+03  0.33612651843E+03  0.00000000000E+00 0.  1.
          2   -1    0    0  501    0  0.00000000000E+00 -0.00000000000E+00 -0.42920231814E+02  0.42920231814E+02  0.00000000000E+00 0. -1.
         25    2    1    2    0    0 -0.50019382749E+02 -0.14807619994E+02  0.16010119621E+03  0.20976542960E+03  0.12509171903E+03 0.  0.
          5    1    3    3  502    0 -0.33459457007E+02  0.26176871690E+02  0.15975851515E+03  0.16536329531E+03  0.41800000000E+01 0. -1.
         -5    1    3    3    0  502 -0.16559925741E+02 -0.40984491683E+02  0.34268105791E+00  0.44402134289E+02  0.41800000000E+01 0. -1.
        -11    1    1    2    0    0  0.61612687770E+01  0.42184983370E+02  0.97763612875E+02  0.10665485482E+03  0.00000000000E+00 0.  1.
         11    1    1    2    0    0  0.43858113972E+02 -0.27377363377E+02  0.35341477534E+02  0.62626465818E+02  0.00000000000E+00 0. -1.
</event>
<event>
 7    1  0.2651429E-009  0.1132694E+03  0.7561462E-02  0.1254633E+00
         -1   -1    0    0    0  501 -0.00000000000E+00  0.00000000000E+00  0.18401288035E+03  0.18401288035E+03  0.00000000000E+00 0.  1.
          1   -1    0    0  501    0  0.00000000000E+00 -0.00000000000E+00 -0.74301200319E+02  0.74301200319E+02  0.00000000000E+00 0. -1.
         25    2    1    2    0    0 -0.21135706761E+02 -0.15274449567E+02  0.33056965171E+02  0.13198584222E+03  0.12508985847E+03 0.  0.
          5    1    3    3  502    0  0.24677167228E+02  0.44296705436E+02  0.30869786504E+01  0.50972174096E+02  0.41800000000E+01 0.  1.
         -5    1    3    3    0  502 -0.45812873990E+02 -0.59571155003E+02  0.29969986521E+02  0.81013668129E+02  0.41800000000E+01 0.  1.
        -11    1    1    2    0    0  0.52350504722E+02 -0.17437678562E+02  0.40886049507E+02  0.68675447014E+02  0.00000000000E+00 0. -1.
         11    1    1    2    0    0 -0.31214797961E+02  0.32712128129E+02  0.35768665349E+02  0.57652791427E+02  0.00000000000E+00 0.  1.
</event>
<event>
 7    1  0.2651429E-009  0.7366725E+02  0.7561462E-02  0.1348049E+00
         -1   -1    0    0    0  501 -0.00000000000E+00  0.00000000000E+00  0.29045583305E+02  0.29045583305E+02  0.00000000000E+00 0.  1.
          1   -1    0    0  501    0  0.00000000000E+00 -0.00000000000E+00 -0.48064034230E+03  0.48064034230E+03  0.00000000000E+00 0. -1.
         25    2    1    2    0    0  0.19911207077E+02  0.38782543940E+02 -0.23379624347E+03  0.26871466856E+03  0.12508536188E+03 0.  0.
          5    1    3    3  502    0  0.37819304210E+01  0.55963034754E+02 -0.30439987923E+02  0.63954902247E+02  0.41800000000E+01 0. -1.
         -5    1    3    3    0  502  0.16129276656E+02 -0.17180490815E+02 -0.20335625555E+03  0.20475976631E+03  0.41800000000E+01 0. -1.
        -11    1    1    2    0    0 -0.37198731974E+02 -0.22920468462E+02 -0.21246433864E+03  0.21691055468E+03  0.00000000000E+00 0. -1.
         11    1    1    2    0    0  0.17287524897E+02 -0.15862075478E+02 -0.53341768819E+01  0.24060702370E+02  0.00000000000E+00 0.  1.
</event>
<event>
 7    1  0.2651429E-009  0.1129437E+03  0.7561462E-02  0.1255214E+00
         -1   -1    0    0    0  501 -0.00000000000E+00  0.00000000000E+00  0.59587826269E+03  0.59587826269E+03  0.00000000000E+00 0.  1.
          1   -1    0    0  501    0  0.00000000000E+00 -0.00000000000E+00 -0.27448147927E+02  0.27448147927E+02  0.00000000000E+00 0. -1.
         25    2    1    2    0    0 -0.28429077795E+02  0.32555428718E+02  0.33803280270E+03  0.36301815361E+03  0.12509170935E+03 0.  0.
          5    1    3    3  502    0  0.41754534604E+02  0.40811036131E+02  0.11532811649E+03  0.12933301467E+03  0.41800000000E+01 0. -1.
         -5    1    3    3    0  502 -0.70183612398E+02 -0.82556074131E+01  0.22270468621E+03  0.23368513894E+03  0.41800000000E+01 0. -1.
        -11    1    1    2    0    0  0.63730326063E+01 -0.60570577147E+02  0.21121385783E+03  0.21981970817E+03  0.00000000000E+00 0.  1.
         11    1    1    2    0    0  0.22056045188E+02  0.28015148429E+02  0.19183454243E+02  0.40488548845E+02  0.00000000000E+00 0. -1.
</event>
<event>
 7    1  0.2651429E-009  0.1075903E+03  0.7561462E-02  0.1265098E+00
         -2   -1    0    0    0  501 -0.00000000000E+00  0.00000000000E+00  0.45366107130E+03  0.45366107130E+03  0.00000000000E+00 0.  1.
          2   -1    0    0  501    0  0.00000000000E+00 -0.00000000000E+00 -0.41683610133E+02  0.41683610133E+02  0.00000000000E+00 0. -1.
         25    2    1    2    0    0 -0.52636046128E+02  0.48621576622E+02  0.14676773188E+03  0.20572444040E+03  0.12508863734E+03 0.  0.
          5    1    3    3  502    0 -0.18495827403E+02 -0.23210052681E+02 -0.85596421478E+01  0.31169569302E+02  0.41800000000E+01 0.  1.
         -5    1    3    3    0  502 -0.34140218725E+02  0.71831629303E+02  0.15532737402E+03  0.17455487110E+03  0.41800000000E+01 0.  1.
        -11    1    1    2    0    0 -0.20489928909E+02 -0.87727866890E+01  0.17657797132E+02  0.28435836062E+02  0.00000000000E+00 0.  1.
         11    1    1    2    0    0  0.73125975037E+02 -0.39848789933E+02  0.24755193216E+03  0.26118440497E+03  0.00000000000E+00 0. -1.
</event>
<event>
 7    1  0.2651429E-009  0.1191027E+03  0.7561462E-02  0.1244585E+00
         -2   -1    0    0    0  501 -0.00000000000E+00  0.00000000000E+00  0.27788361835E+03  0.27788361835E+03  0.00000000000E+00 0.  1.
          2   -1    0    0  501    0  0.00000000000E+00 -0.00000000000E+00 -0.11121596895E+03  0.11121596895E+03  0.00000000000E+00 0. -1.
         25    2    1    2    0    0  0.58776594235E+02 -0.73197019755E+02  0.19796004513E+03  0.25228730110E+03  0.12509280994E+03 0.  0.
          5    1    3    3  502    0  0.46811888133E+02 -0.77575564213E+01  0.17565457999E+03  0.18199872643E+03  0.41800000000E+01 0.  1.
         -5    1    3    3    0  502  0.11964706102E+02 -0.65439463334E+02  0.22305465137E+02  0.70288574666E+02  0.41800000000E+01 0.  1.
        -11    1    1    2    0    0 -0.78368604094E+02  0.67715672645E+02 -0.51674788952E+01  0.10370030505E+03  0.00000000000E+00 0.  1.
         11    1    1    2    0    0  0.19592009859E+02  0.54813471103E+01 -0.26124916832E+02  0.33111981154E+02  0.00000000000E+00 0. -1.
</event>
<event>
 7    1  0.2651429E-009  0.1119015E+03  0.7561462E-02  0.1257089E+00
          2   -1    0    0  501    0  0.00000000000E+00  0.00000000000E+00  0.37767548941E+03  0.37767548941E+03  0.00000000000E+00 0.  1.
         -2   -1    0    0    0  501 -0.00000000000E+00 -0.00000000000E+00 -0.49925051136E+02  0.49925051136E+02  0.00000000000E+00 0. -1.
         25    2    1    2    0    0  0.74863654747E+02 -0.27713580230E+02  0.14167145347E+03  0.20516001635E+03  0.12508885742E+03 0.  0.
          5    1    3    3  502    0  0.36697955573E+02 -0.60198921320E+02  0.19846696435E+02  0.73362209827E+02  0.41800000000E+01 0. -1.
         -5    1    3    3    0  502  0.38165699175E+02  0.32485341090E+02  0.12182475703E+03  0.13179780653E+03  0.41800000000E+01 0. -1.
        -11    1    1    2    0    0 -0.78097426575E+02  0.32059237856E+01  0.18106694973E+03  0.19721745934E+03  0.00000000000E+00 0.  1.
         11    1    1    2    0    0  0.32337718281E+01  0.24507656444E+02  0.50120350714E+01  0.25223064845E+02  0.00000000000E+00 0. -1.
</event>
<event>
 7    1  0.2651429E-009  0.9085107E+02  0.7561462E-02  0.1300804E+00
         -1   -1    0    0    0  501 -0.00000000000E+00  0.00000000000E+00  0.22377263799E+03  0.22377263799E+03  0.00000000000E+00 0.  1.
          1   -1    0    0  501    0  0.00000000000E+00 -0.00000000000E+00 -0.90378080906E+02  0.90378080906E+02  0.00000000000E+00 0. -1.
         25    2    1    2    0    0 -0.67032974393E+02  0.37500021962E+02  0.18494046791E+02  0.14794893880E+03  0.12508871821E+03 0.  0.
          5    1    3    3  502    0 -0.46794457309E+02  0.73953080306E+01 -0.50821220771E+02  0.69603740535E+02  0.41800000000E+01 0.  1.
         -5    1    3    3    0  502 -0.20238517084E+02  0.30104713932E+02  0.69315267562E+02  0.78345198269E+02  0.41800000000E+01 0.  1.
        -11    1    1    2    0    0  0.57928567077E+02  0.11296329273E+01  0.16721306128E+02  0.60304204106E+02  0.00000000000E+00 0. -1.
         11    1    1    2    0    0  0.91044073154E+01 -0.38629654890E+02  0.98179204164E+02  0.10589757599E+03  0.00000000000E+00 0.  1.
</event>
<event>
 7    1  0.2651429E-009  0.1274622E+03  0.7561462E-02  0.1231271E+00
         -2   -1    0    0    0  501 -0.00000000000E+00  0.00000000000E+00  0.11176386924E+03  0.11176386924E+03  0.00000000000E+00 0.  1.
          2   -1    0    0  501    0  0.00000000000E+00 -0.00000000000E+00 -0.22292810011E+03  0.22292810011E+03  0.00000000000E+00 0. -1.
         25    2    1    2    0    0 -0.13207000979E+02  0.96368674672E+02 -0.10491938170E+03  0.19004277068E+03  0.12508729631E+03 0.  0.
          5    1    3    3  502    0  0.14032349271E+02  0.11520388626E+03 -0.51467828311E+02  0.12702461173E+03  0.41800000000E+01 0. -1.
         -5    1    3    3    0  502 -0.27239350250E+02 -0.18835211583E+02 -0.53451553391E+02  0.63018158949E+02  0.41800000000E+01 0. -1.
        -11    1    1    2    0    0  0.27293598908E+02 -0.75075136934E+02  0.41862313914E+02  0.90186861867E+02  0.00000000000E+00 0.  1.
         11    1    1    2    0    0 -0.14086597929E+02 -0.21293537737E+02 -0.48107163082E+02  0.54462336807E+02  0.00000000000E+00 0. -1.
</event>
<event>
 7    1  0.2651429E-009  0.1051831E+03  0.7561462E-02  0.1269759E+00
          2   -1    0    0  501    0  0.00000000000E+00  0.00000000000E+00  0.62882879744E+02  0.62882879744E+02  0.00000000000E+00 0. -1.
         -2   -1    0    0    0  501 -0.00000000000E+00 -0.00000000000E+00 -0.31124329760E+03  0.31124329760E+03  0.00000000000E+00 0.  1.
         25    2    1    2    0    0 -0.85753493423E+02 -0.27509870985E+02 -0.12045146343E+03  0.19561223489E+03  0.12508052111E+03 0.  0.
          5    1    3    3  502    0 -0.30043858015E+02 -0.49062585456E+02 -0.12281480619E+03  0.13568610731E+03  0.41800000000E+01 0.  1.
         -5    1    3    3    0  502 -0.55709635409E+02  0.21552714470E+02  0.23633427661E+01  0.59926127586E+02  0.41800000000E+01 0.  1.
        -11    1    1    2    0    0  0.69514034647E+02  0.31130410086E+02 -0.13901242012E+03  0.15851106079E+03  0.00000000000E+00 0.  1.
         11    1    1    2    0    0  0.16239458777E+02 -0.36205391003E+01  0.11103465686E+02  0.20002881667E+02  0.00000000000E+00 0. -1.
</event>
<event>
 7    1  0.2651429E-009  0.1305369E+03  0.7561462E-02  0.1226661E+00
         -1   -1    0    0    0  501 -0.00000000000E+00  0.00000000000E+00  0.13660916459E+03  0.13660916459E+03  0.00000000000E+00 0.  1.
          1   -1    0    0  501    0  0.00000000000E+00 -0.00000000000E+00 -0.18852088641E+03  0.18852088641E+03  0.00000000000E+00 0. -1.
         25    2    1    2    0    0 -0.51000179148E+02  0.65032634908E+02 -0.11493788835E+03  0.18891208770E+03  0.12508715691E+03 0.  0.
          5    1    3    3  502    0 -0.55151520662E+02  0.94987224168E+02 -0.57938696442E+02  0.12425227536E+03  0.41800000000E+01 0. -1.
         -5    1    3    3    0  502  0.41513415134E+01 -0.29954589260E+02 -0.56999191906E+02  0.64659812342E+02  0.41800000000E+01 0. -1.
        -11    1    1    2    0    0  0.74935622499E+02 -0.60404013229E+02  0.47691908619E+02  0.10741745892E+03  0.00000000000E+00 0.  1.
         11    1    1    2    0    0 -0.23935443351E+02 -0.46286216782E+01  0.15334257902E+02  0.28800504378E+02  0.00000000000E+00 0. -1.
</event>
<event>
 7    1  0.3937513E-009  0.8276507E+02  0.7561462E-02  0.1321383E+00
          2   -1    0    0  501    0  0.00000000000E+00  0.00000000000E+00  0.24126233102E+03  0.24126233102E+03  0.00000000000E+00 0. -1.
         -2   -1    0    0    0  501 -0.00000000000E+00 -0.00000000000E+00 -0.63567080786E+02  0.63567080786E+02  0.00000000000E+00 0.  1.
         25    2    1    2    0    0  0.21022587303E+02 -0.52095580924E+02  0.74700855894E+02  0.15615294091E+03  0.12509046469E+03 0.  0.
          5    1    3    3  502    0 -0.14076845726E+02 -0.67783235051E+02  0.90804840696E+02  0.11426161225E+03  0.41800000000E+01 0.  1.
         -5    1    3    3    0  502  0.35099433030E+02  0.15687654126E+02 -0.16103984802E+02  0.41891328667E+02  0.41800000000E+01 0.  1.
        -11    1    1    2    0    0 -0.84223654303E+01  0.36466968948E+02 -0.59508027394E+01  0.37897072670E+02  0.00000000000E+00 0.  1.
         11    1    1    2    0    0 -0.12600221873E+02  0.15628611976E+02  0.10894519708E+03  0.11077939823E+03  0.00000000000E+00 0. -1.
</event>
<event>
 7    1  0.2651429E-009  0.1023592E+03  0.7561462E-02  0.1275412E+00
         -2   -1    0    0    0  501 -0.00000000000E+00  0.00000000000E+00  0.42175816571E+03  0.42175816571E+03  0.00000000000E+00 0.  1.
          2   -1    0    0  501    0  0.00000000000E+00 -0.00000000000E+00 -0.52631530419E+02  0.52631530419E+02  0.00000000000E+00 0. -1.
         25    2    1    2    0    0  0.21504659071E+02  0.81904792487E+02  0.29396658474E+03  0.33051073979E+03  0.12510056267E+03 0.  0.
          5    1    3    3  502    0  0.17061813597E+02  0.37954166902E+02  0.28126404824E+03  0.28435639873E+03  0.41800000000E+01 0. -1.
         -5    1    3    3    0  502  0.44428454745E+01  0.43950625584E+02  0.12702536500E+02  0.46154341060E+02  0.41800000000E+01 0. -1.
        -11    1    1    2    0    0 -0.50875868276E+02 -0.30493445527E+02  0.56191799032E+02  0.81705094526E+02  0.00000000000E+00 0. -1.
         11    1    1    2    0    0  0.29371209205E+02 -0.51411346960E+02  0.18968251517E+02  0.62173861807E+02  0.00000000000E+00 0.  1.
</event>
<event>
 7    1  0.2651429E-009  0.1653170E+03  0.7561462E-02  0.1182821E+00
          2   -1    0    0  501    0  0.00000000000E+00  0.00000000000E+00  0.10167876164E+04  0.10167876164E+04  0.00000000000E+00 0. -1.
         -2   -1    0    0    0  501 -0.00000000000E+00 -0.00000000000E+00 -0.40625681229E+02  0.40625681229E+02  0.00000000000E+00 0.  1.
         25    2    1    2    0    0 -0.21150200968E+02  0.15218277896E+03  0.31407664292E+03  0.37134737745E+03  0.12509119832E+03 0.  0.
          5    1    3    3  502    0 -0.27084384759E+02  0.15588047562E+03  0.32273784763E+03  0.35945719810E+03  0.41800000000E+01 0.  1.
         -5    1    3    3    0  502  0.59341837913E+01 -0.36976966559E+01 -0.86612047104E+01  0.11890179345E+02  0.41800000000E+01 0.  1.
        -11    1    1    2    0    0  0.39581445483E+02 -0.74330085979E+02  0.19844915859E+03  0.21557764507E+03  0.00000000000E+00 0.  1.
         11    1    1    2    0    0 -0.18431244515E+02 -0.77852692984E+02  0.46363613364E+03  0.47048827509E+03  0.00000000000E+00 0. -1.
</event>
<event>
 7    1  0.2651429E-009  0.1816833E+03  0.7561462E-02  0.1166184E+00
          2   -1    0    0  501    0  0.00000000000E+00  0.00000000000E+00  0.39968400235E+02  0.39968400235E+02  0.00000000000E+00 0. -1.
         -2   -1    0    0    0  501 -0.00000000000E+00 -0.00000000000E+00 -0.90916534921E+03  0.90916534921E+03  0.00000000000E+00 0.  1.
         25    2    1    2    0    0 -0.15170794386E+03 -0.66410573606E+02 -0.41530568839E+03  0.46427640400E+03  0.12509236581E+03 0.  0.
          5    1    3    3  502    0 -0.16602543634E+03 -0.53234830110E+02 -0.29790051556E+03  0.34519644004E+03  0.41800000000E+01 0. -1.
         -5    1    3    3    0  502  0.14317492480E+02 -0.13175743496E+02 -0.11740517284E+03  0.11907996396E+03  0.41800000000E+01 0. -1.
        -11    1    1    2    0    0  0.27208479496E+02  0.27354521344E+02 -0.13207314702E+03  0.13759319517E+03  0.00000000000E+00 0.  1.
         11    1    1    2    0    0  0.12449946437E+03  0.39056052262E+02 -0.32181811356E+03  0.34726415027E+03  0.00000000000E+00 0. -1.
</event>
<event>
 7    1  0.2651429E-009  0.1463069E+03  0.7561462E-02  0.1205086E+00
         -2   -1    0    0    0  501 -0.00000000000E+00  0.00000000000E+00  0.18129617202E+02  0.18129617202E+02  0.00000000000E+00 0.  1.
          2   -1    0    0  501    0  0.00000000000E+00 -0.00000000000E+00 -0.12551289248E+04  0.12551289248E+04  0.00000000000E+00 0. -1.
         25    2    1    2    0    0 -0.86158530804E+02  0.55653057616E+02 -0.63785959789E+03  0.65805278262E+03  0.12509213740E+03 0.  0.
          5    1    3    3  502    0 -0.53033980042E+02  0.90408363820E+02 -0.32517781239E+03  0.34167873414E+03  0.41800000000E+01 0.  1.
         -5    1    3    3    0  502 -0.33124550762E+02 -0.34755306204E+02 -0.31268178549E+03  0.31637404848E+03  0.41800000000E+01 0.  1.
        -11    1    1    2    0    0 -0.16338982519E+02 -0.29527534878E+02 -0.13281317941E+03  0.13703349331E+03  0.00000000000E+00 0.  1.
         11    1    1    2    0    0  0.10249751332E+03 -0.26125522738E+02 -0.46632653032E+03  0.47817226609E+03  0.00000000000E+00 0. -1.
</event>
<event>
 7    1  0.2651429E-009  0.1606308E+03  0.7561462E-02  0.1187986E+00
          2   -1    0    0  501    0  0.00000000000E+00  0.00000000000E+00  0.55496529853E+03  0.55496529853E+03  0.00000000000E+00 0. -1.
         -2   -1    0    0    0  501 -0.00000000000E+00 -0.00000000000E+00 -0.53117301610E+02  0.53117301610E+02  0.00000000000E+00 0.  1.
         25    2    1    2    0    0 -0.87930516942E+02  0.91700379045E+02  0.32763966489E+03  0.37300956893E+03  0.12509057989E+03 0.  0.
          5    1    3    3  502    0  0.19470695329E+02 -0.15113833333E+02  0.67132623585E+02  0.71636565272E+02  0.41800000000E+01 0.  1.
         -5    1    3    3    0  502 -0.10740121227E+03  0.10681421238E+03  0.26050704131E+03  0.30137300366E+03  0.41800000000E+01 0.  1.
        -11    1    1    2    0    0 -0.56027656438E+01 -0.34801723565E+02  0.81613823180E+01  0.36182303787E+02  0.00000000000E+00 0. -1.
         11    1    1    2    0    0  0.93533282585E+02 -0.56898655480E+02  0.16604694970E+03  0.19889072742E+03  0.00000000000E+00 0.  1.
</event>
<event>
 7    1  0.2651429E-009  0.1273998E+03  0.7561462E-02  0.1231366E+00
          1   -1    0    0  501    0  0.00000000000E+00  0.00000000000E+00  0.35427630473E+02  0.35427630473E+02  0.00000000000E+00 0. -1.
         -1   -1    0    0    0  501 -0.00000000000E+00 -0.00000000000E+00 -0.69691593304E+03  0.69691593304E+03  0.00000000000E+00 0.  1.
         25    2    1    2    0    0 -0.46101777816E+02 -0.73093027966E+02 -0.52945759590E+03  0.55085480742E+03  0.12509080042E+03 0.  0.
          5    1    3    3  502    0 -0.82689581808E+02 -0.27570248079E+02 -0.23610211531E+03  0.25171286572E+03  0.41800000000E+01 0.  1.
         -5    1    3    3    0  502  0.36587803992E+02 -0.45522779887E+02 -0.29335548059E+03  0.29914194170E+03  0.41800000000E+01 0.  1.
        -11    1    1    2    0    0  0.54462139045E+02  0.24577441676E+02 -0.11463979850E+03  0.12927667473E+03  0.00000000000E+00 0.  1.
         11    1    1    2    0    0 -0.83603612287E+01  0.48515586290E+02 -0.17390908164E+02  0.52212081357E+02  0.00000000000E+00 0. -1.
</event>
<event>
 7    1  0.2651429E-009  0.1005291E+03  0.7561462E-02  0.1279187E+00
         -1   -1    0    0    0  501 -0.00000000000E+00  0.00000000000E+00  0.87482501681E+02  0.87482501681E+02  0.00000000000E+00 0.  1.
          1   -1    0    0  501    0  0.00000000000E+00 -0.00000000000E+00 -0.17760101941E+03  0.17760101941E+03  0.00000000000E+00 0. -1.
         25    2    1    2    0    0  0.54010317791E+02  0.10321645557E+02 -0.64459619578E+02  0.15108608450E+03  0.12509321156E+03 0.  0.
          5    1    3    3  502    0  0.24322744389E+02  0.66620252764E+02 -0.46181223987E+02  0.84735068430E+02  0.41800000000E+01 0. -1.
         -5    1    3    3    0  502  0.29687573402E+02 -0.56298607206E+02 -0.18278395591E+02  0.66351016068E+02  0.41800000000E+01 0. -1.
        -11    1    1    2    0    0 -0.47409509812E+01 -0.15950387418E+02  0.33137500114E+02  0.37080795418E+02  0.00000000000E+00 0.  1.
         11    1    1    2    0    0 -0.49269366809E+02  0.56287418609E+01 -0.58796398263E+02  0.76916641174E+02  0.00000000000E+00 0. -1.
</event>
<event>
 7    1  0.2651429E-009  0.9151303E+02  0.7561462E-02  0.1299228E+00
         -1   -1    0    0    0  501 -0.00000000000E+00  0.00000000000E+00  0.24793985348E+03  0.24793985348E+03  0.00000000000E+00 0.  1.
          1   -1    0    0  501    0  0.00000000000E+00 -0.00000000000E+00 -0.88751015680E+02  0.88751015680E+02  0.00000000000E+00 0. -1.
         25    2    1    2    0    0  0.37465252233E+02  0.10306127023E+02 -0.18965881442E+02  0.13234723569E+03  0.12508487021E+03 0.  0.
          5    1    3    3  502    0  0.61078159871E+02  0.30062194274E+02 -0.52917393228E+02  0.86324967674E+02  0.41800000000E+01 0.  1.
         -5    1    3    3    0  502 -0.23612907638E+02 -0.19756067251E+02  0.33951511787E+02  0.46022268012E+02  0.41800000000E+01 0.  1.
        -11    1    1    2    0    0 -0.59026354012E+02  0.17445768126E+01  0.62120035985E+02  0.85709117876E+02  0.00000000000E+00 0. -1.
         11    1    1    2    0    0  0.21561101779E+02 -0.12050703835E+02  0.11603468325E+03  0.11863451560E+03  0.00000000000E+00 0.  1.
</event>
<event>
 7    1  0.2651429E-009  0.2482595E+03  0.7561462E-02  0.1114410E+00
          2   -1    0    0  501    0  0.00000000000E+00  0.00000000000E+00  0.33101311693E+03  0.33101311693E+03  0.00000000000E+00 0. -1.
         -2   -1    0    0    0  501 -0.00000000000E+00 -0.00000000000E+00 -0.28093163928E+03  0.28093163928E+03  0.00000000000E+00 0.  1.
         25    2    1    2    0    0 -0.24071646575E+03 -0.19697899388E+02  0.17663636149E+03  0.32429537970E+03  0.12503865390E+03 0.  0.
          5    1    3    3  502    0 -0.22383207328E+03 -0.39558008804E+02  0.10986519088E+03  0.25249448639E+03  0.41800000000E+01 0.  1.
         -5    1    3    3    0  502 -0.16884392475E+02  0.19860109417E+02  0.66771170615E+02  0.71800893313E+02  0.41800000000E+01 0.  1.
        -11    1    1    2    0    0  0.44594584699E+02 -0.59421506917E+01  0.11509807513E+02  0.46437719672E+02  0.00000000000E+00 0. -1.
         11    1    1    2    0    0  0.19612188105E+03  0.25640050079E+02 -0.13806469136E+03  0.24121165684E+03  0.00000000000E+00 0.  1.
</event>
<event>
 7    1  0.2651429E-009  0.1050658E+03  0.7561462E-02  0.1269990E+00
         -2   -1    0    0    0  501 -0.00000000000E+00  0.00000000000E+00  0.13005395595E+03  0.13005395595E+03  0.00000000000E+00 0.  1.
          2   -1    0    0  501    0  0.00000000000E+00 -0.00000000000E+00 -0.10864103691E+03  0.10864103691E+03  0.00000000000E+00 0. -1.
         25    2    1    2    0    0  0.23949845629E+02  0.28937679109E+02  0.40960877422E+02  0.13688066158E+03  0.12509011814E+03 0.  0.
          5    1    3    3  502    0 -0.31953837629E+02 -0.18279222260E+02  0.50856500099E+02  0.62920852727E+02  0.41800000000E+01 0.  1.
         -5    1    3    3    0  502  0.55903683258E+02  0.47216901370E+02 -0.98956226767E+01  0.73959808849E+02  0.41800000000E+01 0.  1.
        -11    1    1    2    0    0  0.35590072736E+02 -0.66095409278E+01 -0.96200036419E+01  0.37455090158E+02  0.00000000000E+00 0. -1.
         11    1    1    2    0    0 -0.59539918365E+02 -0.22328138182E+02 -0.99279547387E+01  0.64359241131E+02  0.00000000000E+00 0.  1.
</event>
<event>
 7    1  0.2651429E-009  0.1850876E+03  0.7561462E-02  0.1162968E+00
         -1   -1    0    0    0  501 -0.00000000000E+00  0.00000000000E+00  0.66821935784E+02  0.66821935784E+02  0.00000000000E+00 0.  1.
          1   -1    0    0  501    0  0.00000000000E+00 -0.00000000000E+00 -0.64787706778E+03  0.64787706778E+03  0.00000000000E+00 0. -1.
         25    2    1    2    0    0  0.58200398599E+02 -0.17257925413E+03 -0.26863961834E+03  0.34782908080E+03  0.12508772742E+03 0.  0.
          5    1    3    3  502    0  0.31265337262E+02 -0.86904693578E+02 -0.23378758342E+03  0.25140416393E+03  0.41800000000E+01 0. -1.
         -5    1    3    3    0  502  0.26935061336E+02 -0.85674560547E+02 -0.34852034923E+02  0.96424916865E+02  0.41800000000E+01 0. -1.
        -11    1    1    2    0    0 -0.30973147046E+01  0.80142137848E+02 -0.95372025261E+02  0.12461211345E+03  0.00000000000E+00 0.  1.
         11    1    1    2    0    0 -0.55103083894E+02  0.92437116277E+02 -0.21704348839E+03  0.24225780931E+03  0.00000000000E+00 0. -1.
</event>
<event>
 7    1  0.2651429E-009  0.1127169E+03  0.7561462E-02  0.1255620E+00
         -2   -1    0    0    0  501 -0.00000000000E+00  0.00000000000E+00  0.13653100785E+03  0.13653100785E+03  0.00000000000E+00 0.  1.
          2   -1    0    0  501    0  0.00000000000E+00 -0.00000000000E+00 -0.13469032235E+03  0.13469032235E+03  0.00000000000E+00 0. -1.
         25    2    1    2    0    0 -0.34409228462E+01  0.75451149232E+02 -0.24633395619E+02  0.14818620038E+03  0.12509048699E+03 0.  0.
          5    1    3    3  502    0  0.34451077798E+02  0.58361413190E+02  0.34201667577E+02  0.76027348869E+02  0.41800000000E+01 0.  1.
         -5    1    3    3    0  502 -0.37892000644E+02  0.17089736042E+02 -0.58835063196E+02  0.72158851516E+02  0.41800000000E+01 0.  1.
        -11    1    1    2    0    0  0.18036540851E+02  0.15414589026E+02  0.19552795512E+02  0.30744725939E+02  0.00000000000E+00 0.  1.
         11    1    1    2    0    0 -0.14595618005E+02 -0.90865738258E+02  0.69212856087E+01  0.92290403882E+02  0.00000000000E+00 0. -1.
</event>
<event>
 7    1  0.2651429E-009  0.1740035E+03  0.7561462E-02  0.1173736E+00
         -1   -1    0    0    0  501 -0.00000000000E+00  0.00000000000E+00  0.82178082832E+02  0.82178082832E+02  0.00000000000E+00 0.  1.
          1   -1    0    0  501    0  0.00000000000E+00 -0.00000000000E+00 -0.40479633798E+03  0.40479633798E+03  0.00000000000E+00 0. -1.
         25    2    1    2    0    0 -0.14107511010E+03  0.24397303452E+02 -0.13456340681E+03  0.23292328251E+03  0.12509408450E+03 0.  0.
          5    1    3    3  502    0 -0.34349895973E+02  0.63767233997E+02 -0.75391607860E+02  0.10463050426E+03  0.41800000000E+01 0. -1.
         -5    1    3    3    0  502 -0.10672521412E+03 -0.39369930545E+02 -0.59171798950E+02  0.12829277825E+03  0.41800000000E+01 0. -1.
        -11    1    1    2    0    0  0.10432759781E+03 -0.51128419842E+02 -0.16828575902E+03  0.20449562262E+03  0.00000000000E+00 0. -1.
         11    1    1    2    0    0  0.36747512282E+02  0.26731116390E+02 -0.19769089316E+02  0.49555515684E+02  0.00000000000E+00 0.  1.
</event>
<event>
 7    1  0.2651429E-009  0.1539309E+03  0.7561462E-02  0.1195724E+00
          1   -1    0    0  501    0  0.00000000000E+00  0.00000000000E+00  0.71329454930E+02  0.71329454930E+02  0.00000000000E+00 0. -1.
         -1   -1    0    0    0  501 -0.00000000000E+00 -0.00000000000E+00 -0.37767411153E+03  0.37767411153E+03  0.00000000000E+00 0.  1.
         25    2    1    2    0    0  0.42720836347E+02 -0.11382399058E+03 -0.14514919933E+03  0.22694412585E+03  0.12511744683E+03 0.  0.
          5    1    3    3  502    0  0.73474014984E+02 -0.11491682836E+03 -0.89429575094E+02  0.16315461875E+03  0.41800000000E+01 0.  1.
         -5    1    3    3    0  502 -0.30753178637E+02  0.10928377777E+01 -0.55719624241E+02  0.63789507101E+02  0.41800000000E+01 0.  1.
        -11    1    1    2    0    0  0.18831735859E+02  0.40113235659E+02 -0.14308507014E+02  0.46566504308E+02  0.00000000000E+00 0. -1.
         11    1    1    2    0    0 -0.61552572205E+02  0.73710754925E+02 -0.14688695025E+03  0.17549293630E+03  0.00000000000E+00 0.  1.
</event>
<event>
 7    1  0.2651429E-009  0.9345934E+02  0.7561462E-02  0.1294684E+00
          2   -1    0    0  501    0  0.00000000000E+00  0.00000000000E+00  0.26522382534E+03  0.26522382534E+03  0.00000000000E+00 0. -1.
         -2   -1    0    0    0  501 -0.00000000000E+00 -0.00000000000E+00 -0.62296548091E+02  0.62296548091E+02  0.00000000000E+00 0.  1.
         25    2    1    2    0    0  0.15097398408E+02  0.18083669020E+02  0.29245733263E+02  0.13060446467E+03  0.12508901931E+03 0.  0.
          5    1    3    3  502    0  0.41253675263E+02 -0.40871685039E+02 -0.31503044073E+01  0.58307436733E+02  0.41800000000E+01 0. -1.
         -5    1    3    3    0  502 -0.26156276855E+02  0.58955354058E+02  0.32396037670E+02  0.72297027932E+02  0.41800000000E+01 0. -1.
        -11    1    1    2    0    0 -0.25757373494E+02  0.14654203280E+02  0.15487502627E+03  0.15768469084E+03  0.00000000000E+00 0. -1.
         11    1    1    2    0    0  0.10659975086E+02 -0.32737872300E+02  0.18806517723E+02  0.39231217932E+02  0.00000000000E+00 0.  1.
</event>
<event>
 7    1  0.2651429E-009  0.5840080E+02  0.7561462E-02  0.1404668E+00
          1   -1    0    0  501    0  0.00000000000E+00  0.00000000000E+00  0.35455182001E+03  0.35455182001E+03  0.00000000000E+00 0. -1.
         -1   -1    0    0    0  501 -0.00000000000E+00 -0.00000000000E+00 -0.16295975179E+03  0.16295975179E+03  0.00000000000E+00 0.  1.
         25    2    1    2    0    0 -0.20972762033E+02  0.13405077490E+02  0.32767260925E+03  0.35161946649E+03  0.12508939808E+03 0.  0.
          5    1    3    3  502    0  0.13981121236E+02  0.28004613460E+02  0.12199979004E+02  0.33853242293E+02  0.41800000000E+01 0. -1.
         -5    1    3    3    0  502 -0.34953883269E+02 -0.14599535970E+02  0.31547263025E+03  0.31776622420E+03  0.41800000000E+01 0. -1.
        -11    1    1    2    0    0  0.74428250227E+01 -0.26955458653E+02 -0.14286573349E+03  0.14557681890E+03  0.00000000000E+00 0.  1.
         11    1    1    2    0    0  0.13529937011E+02  0.13550381163E+02  0.67851924556E+01  0.20315286408E+02  0.00000000000E+00 0. -1.
</event>
<event>
 7    1  0.2651429E-009  0.1389284E+03  0.7561462E-02  0.1214778E+00
          1   -1    0    0  501    0  0.00000000000E+00  0.00000000000E+00  0.60931983009E+03  0.60931983009E+03  0.00000000000E+00 0. -1.
         -1   -1    0    0    0  501 -0.00000000000E+00 -0.00000000000E+00 -0.42360342319E+02  0.42360342319E+02  0.00000000000E+00 0.  1.
         25    2    1    2    0    0  0.75229198349E+01  0.11581976543E+03  0.35124287435E+03  0.39050590091E+03  0.12510990957E+03 0.  0.
          5    1    3    3  502    0  0.31043248536E+02  0.12728143732E+03  0.21575766215E+03  0.25245413196E+03  0.41800000000E+01 0.  1.
         -5    1    3    3    0  502 -0.23520328701E+02 -0.11461671890E+02  0.13548521220E+03  0.13805176895E+03  0.41800000000E+01 0.  1.
        -11    1    1    2    0    0 -0.19985864482E+02 -0.72608424637E+02  0.52314784158E+02  0.91696536187E+02  0.00000000000E+00 0.  1.
         11    1    1    2    0    0  0.12462944647E+02 -0.43211340791E+02  0.16340182925E+03  0.16947773531E+03  0.00000000000E+00 0. -1.
</event>
<event>
 7    1  0.2651429E-009  0.3063612E+03  0.7561462E-02  0.1082103E+00
         -1   -1    0    0    0  501 -0.00000000000E+00  0.00000000000E+00  0.10992795971E+03  0.10992795971E+03  0.00000000000E+00 0.  1.
          1   -1    0    0  501    0  0.00000000000E+00 -0.00000000000E+00 -0.11048999506E+04  0.11048999506E+04  0.00000000000E+00 0. -1.
         25    2    1    2    0    0  0.17752157777E+03  0.24581485337E+03 -0.73598364499E+03  0.80576573967E+03  0.12509056249E+03 0.  0.
          5    1    3    3  502    0  0.12258968641E+03  0.11769359167E+03 -0.26732708425E+03  0.31679844555E+03  0.41800000000E+01 0. -1.
         -5    1    3    3    0  502  0.54931891361E+02  0.12812126170E+03 -0.46865656074E+03  0.48896729411E+03  0.41800000000E+01 0. -1.
        -11    1    1    2    0    0 -0.10776409852E+03 -0.14450473063E+03 -0.94091407505E+02  0.20334185765E+03  0.00000000000E+00 0.  1.
         11    1    1    2    0    0 -0.69757479243E+02 -0.10131012274E+03 -0.16489693836E+03  0.20572031295E+03  0.00000000000E+00 0. -1.
</event>
<event>
 7    1  0.2651429E-009  0.9619978E+02  0.7561462E-02  0.1288497E+00
         -2   -1    0    0    0  501 -0.00000000000E+00  0.00000000000E+00  0.29641388601E+02  0.29641388601E+02  0.00000000000E+00 0.  1.
          2   -1    0    0  501    0  0.00000000000E+00 -0.00000000000E+00 -0.49157252197E+03  0.49157252197E+03  0.00000000000E+00 0. -1.
         25    2    1    2    0    0  0.11278797195E+02 -0.46842475021E+02 -0.20650178918E+03  0.24619447401E+03  0.12508917366E+03 0.  0.
          5    1    3    3  502    0 -0.13260795315E+02 -0.85662426181E+02 -0.11898660155E+03  0.14727248114E+03  0.41800000000E+01 0.  1.
         -5    1    3    3    0  502  0.24539592510E+02  0.38819951160E+02 -0.87515187621E+02  0.98921992868E+02  0.41800000000E+01 0.  1.
        -11    1    1    2    0    0 -0.15230895319E+02  0.30541029290E+01  0.30116526144E+00  0.15537001558E+02  0.00000000000E+00 0.  1.
         11    1    1    2    0    0  0.39520981233E+01  0.43788372092E+02 -0.25573050946E+03  0.25948243501E+03  0.00000000000E+00 0. -1.
</event>
<event>
 7    1  0.2651429E-009  0.1792681E+03  0.7561462E-02  0.1168513E+00
         -1   -1    0    0    0  501 -0.00000000000E+00  0.00000000000E+00  0.95597745401E+02  0.95597745401E+02  0.00000000000E+00 0.  1.
          1   -1    0    0  501    0  0.00000000000E+00 -0.00000000000E+00 -0.45737595462E+03  0.45737595462E+03  0.00000000000E+00 0. -1.
         25    2    1    2    0    0  0.16775438866E+03 -0.15947609932E+02 -0.11010181979E+03  0.23701156721E+03  0.12512478209E+03 0.  0.
          5    1    3    3  502    0  0.12177873469E+03 -0.11356270886E+02 -0.13674734120E+03  0.18351112456E+03  0.41800000000E+01 0.  1.
         -5    1    3    3    0  502  0.45975653971E+02 -0.45913390456E+01  0.26645521414E+02  0.53500442650E+02  0.41800000000E+01 0.  1.
        -11    1    1    2    0    0  0.10334325956E+02  0.46084310194E+01 -0.25244464623E+02  0.27664398123E+02  0.00000000000E+00 0. -1.
         11    1    1    2    0    0 -0.17808871462E+03  0.11339178912E+02 -0.22643192481E+03  0.28829773469E+03  0.00000000000E+00 0.  1.
</event>
<event>
 7    1  0.2651429E-009  0.4126327E+02  0.7561462E-02  0.1499116E+00
         -3   -1    0    0    0  501 -0.00000000000E+00  0.00000000000E+00  0.28753620007E+03  0.28753620007E+03  0.00000000000E+00 0.  1.
          3   -1    0    0  501    0  0.00000000000E+00 -0.00000000000E+00 -0.40101613779E+02  0.40101613779E+02  0.00000000000E+00 0. -1.
         25    2    1    2    0    0  0.19942465088E+02 -0.12632654668E+02  0.14356501266E+03  0.19187377350E+03  0.12508935294E+03 0.  0.
          5    1    3    3  502    0 -0.36897762851E+01 -0.42095190662E+01 -0.22660849947E+02  0.23713308924E+02  0.41800000000E+01 0. -1.
         -5    1    3    3    0  502  0.23632241373E+02 -0.84231356018E+01  0.16622586261E+03  0.16816046457E+03  0.41800000000E+01 0. -1.
        -11    1    1    2    0    0  0.83383201187E+01  0.19322414211E+02  0.10459760300E+03  0.10669368223E+03  0.00000000000E+00 0.  1.
         11    1    1    2    0    0 -0.28280785207E+02 -0.66897595435E+01 -0.72802937316E+00  0.29070358124E+02  0.00000000000E+00 0. -1.
</event>
<event>
 7    1  0.2651429E-009  0.1465230E+03  0.7561462E-02  0.1204812E+00
          2   -1    0    0  501    0  0.00000000000E+00  0.00000000000E+00  0.89500846606E+03  0.89500846606E+03  0.00000000000E+00 0. -1.
         -2   -1    0    0    0  501 -0.00000000000E+00 -0.00000000000E+00 -0.35953896809E+02  0.35953896809E+02  0.00000000000E+00 0.  1.
         25    2    1    2    0    0  0.10631985080E+03 -0.58967913561E+02  0.25903502014E+03  0.31229422208E+03  0.12508962380E+03 0.  0.
          5    1    3    3  502    0  0.16489295093E+02  0.18713749723E+02  0.14638043724E+03  0.14854900231E+03  0.41800000000E+01 0. -1.
         -5    1    3    3    0  502  0.89830555704E+02 -0.77681663284E+02  0.11265458290E+03  0.16374521977E+03  0.41800000000E+01 0. -1.
        -11    1    1    2    0    0 -0.66671467281E+02  0.79920134972E+02  0.46066484147E+03  0.47227577610E+03  0.00000000000E+00 0. -1.
         11    1    1    2    0    0 -0.39648383516E+02 -0.20952221411E+02  0.13935470763E+03  0.14639236468E+03  0.00000000000E+00 0.  1.
</event>
<event>
 7    1  0.2651429E-009  0.7668738E+02  0.7561462E-02  0.1338724E+00
         -2   -1    0    0    0  501 -0.00000000000E+00  0.00000000000E+00  0.25480503299E+02  0.25480503299E+02  0.00000000000E+00 0. -1.
          2   -1    0    0  501    0  0.00000000000E+00 -0.00000000000E+00 -0.60639062227E+03  0.60639062227E+03  0.00000000000E+00 0.  1.
         25    2    1    2    0    0  0.31047205654E+02 -0.40498947141E+02 -0.24516944400E+03  0.27992784748E+03  0.12508976706E+03 0.  0.
          5    1    3    3  502    0  0.19963064113E+02 -0.37199009306E+02 -0.25840326088E+03  0.26186257437E+03  0.41800000000E+01 0. -1.
         -5    1    3    3    0  502  0.11084141541E+02 -0.32999378345E+01  0.13233816876E+02  0.18065273110E+02  0.41800000000E+01 0. -1.
        -11    1    1    2    0    0 -0.56034410258E+02  0.46660682335E+02 -0.18200879890E+03  0.19607212267E+03  0.00000000000E+00 0.  1.
         11    1    1    2    0    0  0.24987204604E+02 -0.61617351945E+01 -0.15373187607E+03  0.15587115542E+03  0.00000000000E+00 0. -1.
</event>
<event>
 7    1  0.2651429E-009  0.1181369E+03  0.7561462E-02  0.1246203E+00
          2   -1    0    0  501    0  0.00000000000E+00  0.00000000000E+00  0.36660789678E+03  0.36660789678E+03  0.00000000000E+00 0. -1.
         -2   -1    0    0    0  501 -0.00000000000E+00 -0.00000000000E+00 -0.10076759436E+03  0.10076759436E+03  0.00000000000E+00 0.  1.
         25    2    1    2    0    0  0.31914307641E+02 -0.85297716621E+02  0.29699025670E+03  0.33488059426E+03  0.12509027277E+03 0.  0.
          5    1    3    3  502    0  0.29127569081E+02 -0.10747095453E+03  0.29065140600E+03  0.31127822532E+03  0.41800000000E+01 0. -1.
         -5    1    3    3    0  502  0.27867385606E+01  0.22173237911E+02  0.63388507020E+01  0.23602368938E+02  0.41800000000E+01 0. -1.
        -11    1    1    2    0    0 -0.22187142080E+02  0.88985043691E+02  0.79324133590E+01  0.92051781385E+02  0.00000000000E+00 0.  1.
         11    1    1    2    0    0 -0.97271655612E+01 -0.36873270703E+01 -0.39082367641E+02  0.40443115498E+02  0.00000000000E+00 0. -1.
</event>
<event>
 7    1  0.3318920E-009  0.9295630E+02  0.7561462E-02  0.1295846E+00
         -3   -1    0    0    0  501 -0.00000000000E+00  0.00000000000E+00  0.51982335070E+02  0.51982335070E+02  0.00000000000E+00 0.  1.
          3   -1    0    0  501    0  0.00000000000E+00 -0.00000000000E+00 -0.46107797759E+03  0.46107797759E+03  0.00000000000E+00 0. -1.
         25    2    1    2    0    0 -0.84111421241E+02 -0.69681978392E+01 -0.33765629380E+03  0.36984004184E+03  0.12508635751E+03 0.  0.
          5    1    3    3  502    0  0.32423801814E+00  0.13656458874E+02 -0.23427766322E+03  0.23471280298E+03  0.41800000000E+01 0. -1.
         -5    1    3    3    0  502 -0.84435659259E+02 -0.20624656713E+02 -0.10337863058E+03  0.13512723885E+03  0.41800000000E+01 0. -1.
        -11    1    1    2    0    0  0.31013162250E+02 -0.30343212861E+00 -0.82815309916E+02  0.88432368849E+02  0.00000000000E+00 0. -1.
         11    1    1    2    0    0  0.53098258991E+02  0.72716299678E+01  0.11375961194E+02  0.54787901980E+02  0.00000000000E+00 0.  1.
</event>
<event>
 7    1  0.2651429E-009  0.4462490E+03  0.7561462E-02  0.1028847E+00
         -1   -1    0    0    0  501 -0.00000000000E+00  0.00000000000E+00  0.89140354353E+02  0.89140354353E+02  0.00000000000E+00 0.  1.
          1   -1    0    0  501    0  0.00000000000E+00 -0.00000000000E+00 -0.23611532400E+04  0.23611532400E+04  0.00000000000E+00 0. -1.
         25    2    1    2    0    0 -0.43813407946E+02 -0.43615042421E+03 -0.93257704368E+03  0.10380247298E+04  0.12509432462E+03 0.  0.
          5    1    3    3  502    0 -0.76115237205E+02 -0.21414127300E+03 -0.53916424876E+03  0.58512013610E+03  0.41800000000E+01 0.  1.
         -5    1    3    3    0  502  0.32301829259E+02 -0.22200915121E+03 -0.39341279492E+03  0.45290459371E+03  0.41800000000E+01 0.  1.
        -11    1    1    2    0    0 -0.44787814677E+01  0.18511832653E+03 -0.68761972152E+03  0.71211637794E+03  0.00000000000E+00 0.  1.
         11    1    1    2    0    0  0.48292189414E+02  0.25103209767E+03 -0.65181612041E+03  0.70015248657E+03  0.00000000000E+00 0. -1.
</event>
<event>
 7    1  0.2651429E-009  0.1193884E+03  0.7561462E-02  0.1244109E+00
         -1   -1    0    0    0  501 -0.00000000000E+00  0.00000000000E+00  0.47097102130E+03  0.47097102130E+03  0.00000000000E+00 0.  1.
          1   -1    0    0  501    0  0.00000000000E+00 -0.00000000000E+00 -0.34085973052E+02  0.34085973052E+02  0.00000000000E+00 0. -1.
         25    2    1    2    0    0 -0.60348437647E+02  0.23589568909E+02  0.19952075769E+03  0.24424271574E+03  0.12509024645E+03 0.  0.
          5    1    3    3  502    0 -0.82564011212E+02  0.56609126619E+02  0.13145516562E+03  0.16528563801E+03  0.41800000000E+01 0.  1.
         -5    1    3    3    0  502  0.22215573565E+02 -0.33019557711E+02  0.68065592074E+02  0.78957077736E+02  0.41800000000E+01 0.  1.
        -11    1    1    2    0    0  0.15755614266E+02  0.26918128424E+02  0.13286936971E+03  0.13648111381E+03  0.00000000000E+00 0. -1.
         11    1    1    2    0    0  0.44592823381E+02 -0.50507697333E+02  0.10449492085E+03  0.12433316480E+03  0.00000000000E+00 0.  1.
</event>
<event>
 7    1  0.2651429E-009  0.9998182E+02  0.7561462E-02  0.1280334E+00
          1   -1    0    0  501    0  0.00000000000E+00  0.00000000000E+00  0.48174856636E+03  0.48174856636E+03  0.00000000000E+00 0. -1.
         -1   -1    0    0    0  501 -0.00000000000E+00 -0.00000000000E+00 -0.34807916687E+02  0.34807916687E+02  0.00000000000E+00 0.  1.
         25    2    1    2    0    0 -0.34409738368E+02 -0.33733412785E+01  0.38159102806E+03  0.40305650378E+03  0.12508965993E+03 0.  0.
          5    1    3    3  502    0 -0.33954304935E+02 -0.50489478689E+02  0.31803054259E+03  0.32382554054E+03  0.41800000000E+01 0.  1.
         -5    1    3    3    0  502 -0.45543343301E+00  0.47116137411E+02  0.63560485464E+02  0.79230963244E+02  0.41800000000E+01 0.  1.
        -11    1    1    2    0    0  0.58529496707E+02  0.20581802193E+02  0.52211273334E+02  0.81088406258E+02  0.00000000000E+00 0.  1.
         11    1    1    2    0    0 -0.24119758339E+02 -0.17208460915E+02  0.13138348286E+02  0.32411573011E+02  0.00000000000E+00 0. -1.
</event>
<event>
 7    1  0.2828013E-009  0.1079038E+03  0.7561462E-02  0.1264502E+00
          2   -1    0    0  501    0  0.00000000000E+00  0.00000000000E+00  0.22515826408E+03  0.22515826408E+03  0.00000000000E+00 0. -1.
         -2   -1    0    0    0  501 -0.00000000000E+00 -0.00000000000E+00 -0.68755670456E+02  0.68755670456E+02  0.00000000000E+00 0.  1.
         25    2    1    2    0    0  0.64852490564E+01  0.58217950778E+02  0.66299375420E+02  0.15321452318E+03  0.12509074580E+03 0.  0.
          5    1    3    3  502    0 -0.27763963987E+02  0.85123185335E+02  0.25017207518E+02  0.93059805769E+02  0.41800000000E+01 0.  1.
         -5    1    3    3    0  502  0.34249213043E+02 -0.26905234556E+02  0.41282167902E+02  0.60154717415E+02  0.41800000000E+01 0.  1.
        -11    1    1    2    0    0  0.23666818681E+02 -0.41934125561E+02  0.94588019022E+02  0.10613897746E+03  0.00000000000E+00 0. -1.
         11    1    1    2    0    0 -0.30152067737E+02 -0.16283825217E+02 -0.44848008195E+01  0.34560433893E+02  0.00000000000E+00 0.  1.
</event>
<event>
 7    1  0.2651429E-009  0.7012369E+02  0.7561462E-02  0.1359673E+00
          1   -1    0    0  501    0  0.00000000000E+00  0.00000000000E+00  0.20733684281E+02  0.20733684281E+02  0.00000000000E+00 0. -1.
         -1   -1    0    0    0  501 -0.00000000000E+00 -0.00000000000E+00 -0.68986636865E+03  0.68986636865E+03  0.00000000000E+00 0.  1.
         25    2    1    2    0    0 -0.30882799107E+02 -0.45154907616E+00 -0.52096786427E+03  0.53666490142E+03  0.12509096542E+03 0.  0.
          5    1    3    3  502    0 -0.50431711592E+02  0.13952100603E+02 -0.84333888356E+02  0.99336276206E+02  0.41800000000E+01 0.  1.
         -5    1    3    3    0  502  0.19548912485E+02 -0.14403649679E+02 -0.43663397592E+03  0.43732862521E+03  0.41800000000E+01 0.  1.
        -11    1    1    2    0    0  0.47605572283E+01 -0.25708817644E+02 -0.13026012421E+03  0.13285821830E+03  0.00000000000E+00 0.  1.
         11    1    1    2    0    0  0.26122241879E+02  0.26160366721E+02 -0.17904695885E+02  0.41076933217E+02  0.00000000000E+00 0. -1.
</event>
<event>
 7    1  0.2651429E-009  0.1021196E+03  0.7561462E-02  0.1275901E+00
          4   -1    0    0  501    0  0.00000000000E+00  0.00000000000E+00  0.26341019443E+03  0.26341019443E+03  0.00000000000E+00 0. -1.
         -4   -1    0    0    0  501 -0.00000000000E+00 -0.00000000000E+00 -0.53881641696E+02  0.53881641696E+02  0.00000000000E+00 0.  1.
         25    2    1    2    0    0  0.40760398555E+02 -0.25152172620E+02  0.10327369045E+03  0.16913622889E+03  0.12509023506E+03 0.  0.
          5    1    3    3  502    0 -0.30666482975E+02  0.62313508312E+01  0.82437591040E+02  0.88276224023E+02  0.41800000000E+01 0.  1.
         -5    1    3    3    0  502  0.71426881529E+02 -0.31383523452E+02  0.20836099406E+02  0.80860004871E+02  0.41800000000E+01 0.  1.
        -11    1    1    2    0    0  0.31508707878E+01  0.45875138485E+02  0.22147882450E+02  0.51039053819E+02  0.00000000000E+00 0. -1.
         11    1    1    2    0    0 -0.43911269342E+02 -0.20722965865E+02  0.84106979842E+02  0.97116553417E+02  0.00000000000E+00 0.  1.
</event>
<event>
 7    1  0.2651429E-009  0.9253110E+02  0.7561462E-02  0.1296835E+00
         -2   -1    0    0    0  501 -0.00000000000E+00  0.00000000000E+00  0.11856121055E+02  0.11856121055E+02  0.00000000000E+00 0.  1.
          2   -1    0    0  501    0  0.00000000000E+00 -0.00000000000E+00 -0.12243891967E+04  0.12243891967E+04  0.00000000000E+00 0. -1.
         25    2    1    2    0    0  0.40984967802E+02  0.19666420980E+02 -0.84464289160E+03  0.85506469922E+03  0.12508992694E+03 0.  0.
          5    1    3    3  502    0  0.41273074583E+02 -0.23073544958E+02 -0.11851598262E+03  0.12766896921E+03  0.41800000000E+01 0.  1.
         -5    1    3    3    0  502 -0.28810678091E+00  0.42739965938E+02 -0.72612690898E+03  0.72739573001E+03  0.41800000000E+01 0.  1.
        -11    1    1    2    0    0 -0.25994765757E+02 -0.52484170422E+02 -0.16450691109E+03  0.17462199113E+03  0.00000000000E+00 0. -1.
         11    1    1    2    0    0 -0.14990202044E+02  0.32817749442E+02 -0.20338327296E+03  0.20655862741E+03  0.00000000000E+00 0.  1.
</event>
<event>
 7    1  0.2651429E-009  0.1314343E+03  0.7561462E-02  0.1225343E+00
         -2   -1    0    0    0  501 -0.00000000000E+00  0.00000000000E+00  0.22282721750E+02  0.22282721750E+02  0.00000000000E+00 0.  1.
          2   -1    0    0  501    0  0.00000000000E+00 -0.00000000000E+00 -0.90877097389E+03  0.90877097389E+03  0.00000000000E+00 0. -1.
         25    2    1    2    0    0  0.71767268970E+02  0.36369444949E+02 -0.35464923855E+03  0.38457390413E+03  0.12509087862E+03 0.  0.
          5    1    3    3  502    0  0.38710289161E+02 -0.44568440978E+02 -0.11296009139E+03  0.12752367257E+03  0.41800000000E+01 0. -1.
         -5    1    3    3    0  502  0.33056979809E+02  0.80937885927E+02 -0.24168914716E+03  0.25705023156E+03  0.41800000000E+01 0. -1.
        -11    1    1    2    0    0 -0.77223115934E+02  0.21530831686E+01 -0.44013933761E+03  0.44686763355E+03  0.00000000000E+00 0. -1.
         11    1    1    2    0    0  0.54558469646E+01 -0.38522528117E+02 -0.91699675980E+02  0.99612157960E+02  0.00000000000E+00 0.  1.
</event>
<event>
 7    1  0.2651429E-009  0.1301439E+03  0.7561462E-02  0.1227242E+00
          3   -1    0    0  501    0  0.00000000000E+00  0.00000000000E+00  0.96587320511E+02  0.96587320511E+02  0.00000000000E+00 0. -1.
         -3   -1    0    0    0  501 -0.00000000000E+00 -0.00000000000E+00 -0.80595497018E+03  0.80595497018E+03  0.00000000000E+00 0.  1.
         25    2    1    2    0    0 -0.22096258500E+02 -0.86585127691E+02 -0.75270324214E+03  0.76824132308E+03  0.12508929124E+03 0.  0.
          5    1    3    3  502    0  0.18615027266E+02 -0.10607982591E+03 -0.56001174268E+03  0.57028946425E+03  0.41800000000E+01 0. -1.
         -5    1    3    3    0  502 -0.40711285766E+02  0.19494698215E+02 -0.19269149946E+03  0.19795185882E+03  0.41800000000E+01 0. -1.
        -11    1    1    2    0    0  0.33453138387E+02  0.18657640467E+02  0.52324463709E+02  0.64846507371E+02  0.00000000000E+00 0. -1.
         11    1    1    2    0    0 -0.11356879888E+02  0.67927487224E+02 -0.89888712410E+01  0.69454460242E+02  0.00000000000E+00 0.  1.
</event>
<event>
 7    1  0.2651429E-009  0.9062214E+02  0.7561462E-02  0.1301352E+00
         -2   -1    0    0    0  501 -0.00000000000E+00  0.00000000000E+00  0.13213780430E+03  0.13213780430E+03  0.00000000000E+00 0.  1.
          2   -1    0    0  501    0  0.00000000000E+00 -0.00000000000E+00 -0.96033502204E+02  0.96033502204E+02  0.00000000000E+00 0. -1.
         25    2    1    2    0    0 -0.30302453161E+02 -0.10159261040E+02  0.13075398743E+02  0.12976821386E+03  0.12508946407E+03 0.  0.
          5    1    3    3  502    0  0.23053365415E+02  0.13569861460E+02 -0.41618667253E+02  0.49650625988E+02  0.41800000000E+01 0. -1.
         -5    1    3    3    0  502 -0.53355818576E+02 -0.23729122500E+02  0.54694065996E+02  0.80117587868E+02  0.41800000000E+01 0. -1.
        -11    1    1    2    0    0 -0.29800284873E+02  0.18304387789E+02  0.98847935272E+01  0.36343042442E+02  0.00000000000E+00 0.  1.
         11    1    1    2    0    0  0.60102738034E+02 -0.81451267490E+01  0.13144109831E+02  0.62060050211E+02  0.00000000000E+00 0. -1.
</event>
<event>
 7    1  0.2651429E-009  0.1246701E+03  0.7561462E-02  0.1235586E+00
         -2   -1    0    0    0  501 -0.00000000000E+00  0.00000000000E+00  0.87598753577E+02  0.87598753577E+02  0.00000000000E+00 0.  1.
          2   -1    0    0  501    0  0.00000000000E+00 -0.00000000000E+00 -0.26832635152E+03  0.26832635152E+03  0.00000000000E+00 0. -1.
         25    2    1    2    0    0  0.87702259290E+02 -0.41933928140E+02 -0.41655136996E+02  0.16380624039E+03  0.12508874185E+03 0.  0.
          5    1    3    3  502    0 -0.14279513813E+01 -0.26200557055E+02  0.35816567788E+02  0.44596044256E+02  0.41800000000E+01 0. -1.
         -5    1    3    3    0  502  0.89130210671E+02 -0.15733371085E+02 -0.77471704784E+02  0.11921019613E+03  0.41800000000E+01 0. -1.
        -11    1    1    2    0    0 -0.91699384567E+02  0.16814890437E+01 -0.10306526763E+03  0.13796395880E+03  0.00000000000E+00 0.  1.
         11    1    1    2    0    0  0.39971252770E+01  0.40252439097E+02 -0.36007193316E+02  0.54154905910E+02  0.00000000000E+00 0. -1.
</event>
<event>
 7    1  0.2651429E-009  0.1138760E+03  0.7561462E-02  0.1253556E+00
          2   -1    0    0  501    0  0.00000000000E+00  0.00000000000E+00  0.76400871316E+03  0.76400871316E+03  0.00000000000E+00 0. -1.
         -2   -1    0    0    0  501 -0.00000000000E+00 -0.00000000000E+00 -0.31266140588E+02  0.31266140588E+02  0.00000000000E+00 0.  1.
         25    2    1    2    0    0  0.91566846201E+02  0.21739944581E+02  0.54261307020E+03  0.56474161059E+03  0.12508809003E+03 0.  0.
          5    1    3    3  502    0  0.50491122841E+02  0.27765922252E+02  0.50582793965E+03  0.50911656510E+03  0.41800000000E+01 0.  1.
         -5    1    3    3    0  502  0.41075723360E+02 -0.60259776703E+01  0.36785130544E+02  0.55625045489E+02  0.41800000000E+01 0.  1.
        -11    1    1    2    0    0  0.10414517377E+02  0.16354692149E+02  0.15833925218E+02  0.25033004520E+02  0.00000000000E+00 0.  1.
         11    1    1    2    0    0 -0.10198136358E+03 -0.38094636730E+02  0.17429557716E+03  0.20550023864E+03  0.00000000000E+00 0. -1.
</event>
<event>
 7    1  0.2651429E-009  0.3409557E+03  0.7561462E-02  0.1066390E+00
          1   -1    0    0  501    0  0.00000000000E+00  0.00000000000E+00  0.40140625620E+03  0.40140625620E+03  0.00000000000E+00 0. -1.
         -1   -1    0    0    0  501 -0.00000000000E+00 -0.00000000000E+00 -0.33112604043E+03  0.33112604043E+03  0.00000000000E+00 0.  1.
         25    2    1    2    0    0 -0.29360025381E+03  0.15843487200E+03 -0.66565997143E+02  0.36246589468E+03  0.12509106736E+03 0.  0.
          5    1    3    3  502    0 -0.25710058543E+03  0.17071488138E+03 -0.31557906205E+02  0.31025417902E+03  0.41800000000E+01 0. -1.
         -5    1    3    3    0  502 -0.36499668375E+02 -0.12280009379E+02 -0.35008090938E+02  0.52211715668E+02  0.41800000000E+01 0. -1.
        -11    1    1    2    0    0  0.19007873712E+03 -0.11578596787E+03  0.49356321563E+02  0.22797447914E+03  0.00000000000E+00 0.  1.
         11    1    1    2    0    0  0.10352151669E+03 -0.42648904127E+02  0.87489891351E+02  0.14209192282E+03  0.00000000000E+00 0. -1.
</event>
<event>
 7    1  0.2651429E-009  0.1423636E+03  0.7561462E-02  0.1210183E+00
          2   -1    0    0  501    0  0.00000000000E+00  0.00000000000E+00  0.93319292106E+02  0.93319292106E+02  0.00000000000E+00 0. -1.
         -2   -1    0    0    0  501 -0.00000000000E+00 -0.00000000000E+00 -0.25227438857E+03  0.25227438857E+03  0.00000000000E+00 0.  1.
         25    2    1    2    0    0 -0.58526942340E+02 -0.88379472356E+02 -0.56646610696E+02  0.17347235520E+03  0.12508990927E+03 0.  0.
          5    1    3    3  502    0 -0.44522817556E+02 -0.11546915317E+03 -0.67259168930E+02  0.14091371410E+03  0.41800000000E+01 0. -1.
         -5    1    3    3    0  502 -0.14004124784E+02  0.27089680815E+02  0.10612558233E+02  0.32558641094E+02  0.41800000000E+01 0. -1.
        -11    1    1    2    0    0  0.27936864194E+02  0.94828646685E+02 -0.49032133602E+02  0.11034985609E+03  0.00000000000E+00 0. -1.
         11    1    1    2    0    0  0.30590078146E+02 -0.64491743288E+01 -0.53276352163E+02  0.61771469387E+02  0.00000000000E+00 0.  1.
</event>
<event>
 7    1  0.2651429E-009  0.1289310E+03  0.7561462E-02  0.1229051E+00
          1   -1    0    0  501    0  0.00000000000E+00  0.00000000000E+00  0.52719657587E+02  0.52719657587E+02  0.00000000000E+00 0. -1.
         -1   -1    0    0    0  501 -0.00000000000E+00 -0.00000000000E+00 -0.58047334494E+03  0.58047334494E+03  0.00000000000E+00 0.  1.
         25    2    1    2    0    0  0.74219713962E+02  0.47984927950E+02 -0.90268249497E+02  0.17778488465E+03  0.12509192257E+03 0.  0.
          5    1    3    3  502    0 -0.62225005278E+01  0.54816381247E+02 -0.78581590993E+02  0.96104599312E+02  0.41800000000E+01 0.  1.
         -5    1    3    3    0  502  0.80442214490E+02 -0.68314532966E+01 -0.11686658503E+02  0.81680285339E+02  0.41800000000E+01 0.  1.
        -11    1    1    2    0    0 -0.42491298602E+02 -0.70830316996E+02 -0.34948952513E+03  0.35911749113E+03  0.00000000000E+00 0.  1.
         11    1    1    2    0    0 -0.31728415360E+02  0.22845389046E+02 -0.87995912730E+02  0.96290626745E+02  0.00000000000E+00 0. -1.
</event>
<event>
 7    1  0.2651429E-009  0.2091171E+03  0.7561462E-02  0.1142267E+00
          1   -1    0    0  501    0  0.00000000000E+00  0.00000000000E+00  0.55589166573E+03  0.55589166573E+03  0.00000000000E+00 0. -1.
         -1   -1    0    0    0  501 -0.00000000000E+00 -0.00000000000E+00 -0.10078509620E+03  0.10078509620E+03  0.00000000000E+00 0.  1.
         25    2    1    2    0    0  0.97063004355E+02  0.15411947974E+03  0.37619165807E+03  0.43628106228E+03  0.12508781254E+03 0.  0.
          5    1    3    3  502    0  0.77436695492E+02  0.14771279911E+02  0.11371668931E+03  0.13843262024E+03  0.41800000000E+01 0.  1.
         -5    1    3    3    0  502  0.19626308863E+02  0.13934819983E+03  0.26247496876E+03  0.29784844203E+03  0.41800000000E+01 0.  1.
        -11    1    1    2    0    0 -0.65577776240E+02 -0.33102062942E+02  0.17949897742E+01  0.73480700159E+02  0.00000000000E+00 0.  1.
         11    1    1    2    0    0 -0.31485228115E+02 -0.12101741680E+03  0.77119921679E+02  0.14691499950E+03  0.00000000000E+00 0. -1.
</event>
<event>
 7    1  0.2651429E-009  0.9694976E+02  0.7561462E-02  0.1286844E+00
         -2   -1    0    0    0  501 -0.00000000000E+00  0.00000000000E+00  0.10165379684E+02  0.10165379684E+02  0.00000000000E+00 0.  1.
          2   -1    0    0  501    0  0.00000000000E+00 -0.00000000000E+00 -0.15049579591E+04  0.15049579591E+04  0.00000000000E+00 0. -1.
         25    2    1    2    0    0 -0.29943040353E+02  0.19845472614E+02 -0.11075707087E+04  0.11151881060E+04  0.12506481696E+03 0.  0.
          5    1    3    3  502    0 -0.18220716406E+02  0.58539848343E+02 -0.28203017270E+03  0.28864753431E+03  0.41800000000E+01 0.  1.
         -5    1    3    3    0  502 -0.11722323947E+02 -0.38694375729E+02 -0.82554053602E+03  0.82654057166E+03  0.41800000000E+01 0.  1.
        -11    1    1    2    0    0 -0.65435129172E+01 -0.46282743510E+02 -0.27604989943E+03  0.27997938654E+03  0.00000000000E+00 0. -1.
         11    1    1    2    0    0  0.36486553270E+02  0.26437270895E+02 -0.11117197130E+03  0.11995584631E+03  0.00000000000E+00 0.  1.
</event>
<event>
 7    1  0.2651429E-009  0.1042445E+03  0.7561462E-02  0.1271615E+00
          2   -1    0    0  501    0  0.00000000000E+00  0.00000000000E+00  0.39429931909E+03  0.39429931909E+03  0.00000000000E+00 0. -1.
         -2   -1    0    0    0  501 -0.00000000000E+00 -0.00000000000E+00 -0.34385823881E+02  0.34385823881E+02  0.00000000000E+00 0.  1.
         25    2    1    2    0    0  0.51786737391E+01  0.10287423247E+02  0.28235771690E+03  0.30904197788E+03  0.12509362117E+03 0.  0.
          5    1    3    3  502    0  0.27737747191E+02 -0.48359735451E+02  0.83802163308E+02  0.10073887833E+03  0.41800000000E+01 0.  1.
         -5    1    3    3    0  502 -0.22559073452E+02  0.58647158698E+02  0.19855555360E+03  0.20830309955E+03  0.41800000000E+01 0.  1.
        -11    1    1    2    0    0 -0.30494078225E+02 -0.40176384029E+02  0.54204544977E+02  0.74041632455E+02  0.00000000000E+00 0. -1.
         11    1    1    2    0    0  0.25315404486E+02  0.29888960782E+02  0.23351233328E+02  0.45601532637E+02  0.00000000000E+00 0.  1.
</event>
<event>
 7    1  0.2651429E-009  0.1002262E+03  0.7561462E-02  0.1279821E+00
          1   -1    0    0  501    0  0.00000000000E+00  0.00000000000E+00  0.76278466304E+03  0.76278466304E+03  0.00000000000E+00 0. -1.
         -1   -1    0    0    0  501 -0.00000000000E+00 -0.00000000000E+00 -0.15340916705E+02  0.15340916705E+02  0.00000000000E+00 0.  1.
         25    2    1    2    0    0  0.43422796535E+01 -0.12090375415E+02  0.48881407457E+03  0.50472963104E+03  0.12509104038E+03 0.  0.
          5    1    3    3  502    0 -0.34775225996E+02 -0.47732054635E+02  0.36849154051E+03  0.37321730026E+03  0.41800000000E+01 0. -1.
         -5    1    3    3    0  502  0.39117505649E+02  0.35641679220E+02  0.12032253405E+03  0.13151233078E+03  0.41800000000E+01 0. -1.
        -11    1    1    2    0    0  0.40465334469E+02  0.15252458609E+02  0.11281620262E+03  0.12082043023E+03  0.00000000000E+00 0.  1.
         11    1    1    2    0    0 -0.44807614122E+02 -0.31620831942E+01  0.14581346915E+03  0.15257551848E+03  0.00000000000E+00 0. -1.
</event>
<event>
 7    1  0.2651429E-009  0.1065443E+03  0.7561462E-02  0.1267107E+00
         -1   -1    0    0    0  501 -0.00000000000E+00  0.00000000000E+00  0.20437134029E+03  0.20437134029E+03  0.00000000000E+00 0.  1.
          1   -1    0    0  501    0  0.00000000000E+00 -0.00000000000E+00 -0.85099926417E+02  0.85099926417E+02  0.00000000000E+00 0. -1.
         25    2    1    2    0    0 -0.21814101949E+02 -0.31694702547E+02  0.13486000225E+03  0.18792481889E+03  0.12509239838E+03 0.  0.
          5    1    3    3  502    0  0.39536554454E+02  0.16201981381E+02  0.85477011892E+02  0.95652680573E+02  0.41800000000E+01 0. -1.
         -5    1    3    3    0  502 -0.61350656402E+02 -0.47896683928E+02  0.49382990359E+02  0.92272138314E+02  0.41800000000E+01 0. -1.
        -11    1    1    2    0    0 -0.75069572598E+01  0.54532020253E+02  0.10630511318E+02  0.56063387438E+02  0.00000000000E+00 0.  1.
         11    1    1    2    0    0  0.29321059208E+02 -0.22837317707E+02 -0.26219099694E+02  0.45483060384E+02  0.00000000000E+00 0. -1.
</event>
<event>
 7    1  0.3070680E-009  0.1123155E+03  0.7561462E-02  0.1256341E+00
         -2   -1    0    0    0  501 -0.00000000000E+00  0.00000000000E+00  0.12336386107E+03  0.12336386107E+03  0.00000000000E+00 0.  1.
          2   -1    0    0  501    0  0.00000000000E+00 -0.00000000000E+00 -0.15463296437E+03  0.15463296437E+03  0.00000000000E+00 0. -1.
         25    2    1    2    0    0  0.68830133064E+02  0.30376246468E+02 -0.57673399634E+02  0.15694812659E+03  0.12508473068E+03 0.  0.
          5    1    3    3  502    0 -0.16788996241E+01  0.44843200095E+02 -0.70541475654E+02  0.83709637952E+02  0.41800000000E+01 0. -1.
         -5    1    3    3    0  502  0.70509032688E+02 -0.14466953626E+02  0.12868076019E+02  0.73238488640E+02  0.41800000000E+01 0. -1.
        -11    1    1    2    0    0 -0.75630899092E+02  0.71745301546E+00  0.41000778725E+02  0.86032618770E+02  0.00000000000E+00 0.  1.
         11    1    1    2    0    0  0.68007660283E+01 -0.31093699484E+02 -0.14596482390E+02  0.35016080082E+02  0.00000000000E+00 0. -1.
</event>
<event>
 7    1  0.2651429E-009  0.1411012E+03  0.7561462E-02  0.1211855E+00
         -2   -1    0    0    0  501 -0.00000000000E+00  0.00000000000E+00  0.12315456285E+03  0.12315456285E+03  0.00000000000E+00 0. -1.
          2   -1    0    0  501    0  0.00000000000E+00 -0.00000000000E+00 -0.24171319954E+03  0.24171319954E+03  0.00000000000E+00 0.  1.
         25    2    1    2    0    0  0.83400243205E+02  0.71227207775E+02  0.17878776475E+02  0.16732239838E+03  0.12509284016E+03 0.  0.
          5    1    3    3  502    0  0.14413087665E+02  0.88597587812E+02  0.30611913985E+02  0.94930665962E+02  0.41800000000E+01 0.  1.
         -5    1    3    3    0  502  0.68987155540E+02 -0.17370380037E+02 -0.12733137510E+02  0.72391732421E+02  0.41800000000E+01 0.  1.
        -11    1    1    2    0    0 -0.77150563528E+02 -0.35705203147E+02 -0.13727653634E+03  0.16146801049E+03  0.00000000000E+00 0.  1.
         11    1    1    2    0    0 -0.62496796769E+01 -0.35522004628E+02  0.83912317346E+00  0.36077353514E+02  0.00000000000E+00 0. -1.
</event>
<event>
 7    1  0.2651429E-009  0.9967388E+02  0.7561462E-02  0.1280983E+00
         -2   -1    0    0    0  501 -0.00000000000E+00  0.00000000000E+00  0.76580401186E+02  0.76580401186E+02  0.00000000000E+00 0.  1.
          2   -1    0    0  501    0  0.00000000000E+00 -0.00000000000E+00 -0.18757741150E+03  0.18757741150E+03  0.00000000000E+00 0. -1.
         25    2    1    2    0    0  0.42818911853E+02 -0.22750560610E+02 -0.50426817804E+02  0.14332356938E+03  0.12509090441E+03 0.  0.
          5    1    3    3  502    0  0.71031368426E+02  0.13911345881E+02 -0.62065198463E+02  0.95438682435E+02  0.41800000000E+01 0.  1.
         -5    1    3    3    0  502 -0.28212456573E+02 -0.36661906491E+02  0.11638380659E+02  0.47884886946E+02  0.41800000000E+01 0.  1.
        -11    1    1    2    0    0 -0.25211342197E+02  0.45266779701E+02  0.22018627537E+01  0.51860787879E+02  0.00000000000E+00 0.  1.
         11    1    1    2    0    0 -0.17607569657E+02 -0.22516219091E+02 -0.62772055266E+02  0.68973455428E+02  0.00000000000E+00 0. -1.
</event>
<event>
 7    1  0.2651429E-009  0.1075372E+03  0.7561462E-02  0.1265200E+00
          1   -1    0    0  501    0  0.00000000000E+00  0.00000000000E+00  0.62986611084E+03  0.62986611084E+03  0.00000000000E+00 0. -1.
         -1   -1    0    0    0  501 -0.00000000000E+00 -0.00000000000E+00 -0.27848547620E+02  0.27848547620E+02  0.00000000000E+00 0.  1.
         25    2    1    2    0    0  0.69857647796E+02  0.28307627140E+02  0.31194826524E+03  0.34443248710E+03  0.12506240552E+03 0.  0.
          5    1    3    3  502    0  0.74678941962E+02  0.41060497305E+02  0.97714850190E+02  0.12972499050E+03  0.41800000000E+01 0. -1.
         -5    1    3    3    0  502 -0.48212941665E+01 -0.12752870165E+02  0.21423341505E+03  0.21470749661E+03  0.41800000000E+01 0. -1.
        -11    1    1    2    0    0 -0.65700002450E+01 -0.48588972830E+02  0.90361981439E+02  0.10280729971E+03  0.00000000000E+00 0.  1.
         11    1    1    2    0    0 -0.63287647551E+02  0.20281345690E+02  0.19970731654E+03  0.21047487165E+03  0.00000000000E+00 0. -1.
</event>
<event>
 6    1  0.2651429E-009  0.1213672E+03  0.7561462E-02  0.1240859E+00
         -2   -1    0    0    0  501 -0.00000000000E+00  0.00000000000E+00  0.24305047544E+02  0.24305047544E+02  0.00000000000E+00 0.  1.
          2   -1    0    0  501    0  0.00000000000E+00 -0.00000000000E+00 -0.75924200342E+03  0.75924200342E+03  0.00000000000E+00 0. -1.
          5    1    1    2  502    0 -0.50404008466E+02 -0.22988547338E+02 -0.20380546582E+03  0.21124198843E+03  0.41800000000E+01 0. -1.
         -5    1    1    2    0  502 -0.73163482833E+00  0.86178924258E+02 -0.15498698705E+03  0.17738596571E+03  0.41800000000E+01 0. -1.
        -11    1    1    2    0    0  0.13475583543E+02  0.11195032759E+02 -0.11718271059E+02  0.21076953929E+02  0.00000000000E+00 0. -1.
         11    1    1    2    0    0  0.37660059751E+02 -0.74385409678E+02 -0.36442623195E+03  0.37384214290E+03  0.00000000000E+00 0.  1.
</event>
<event>
 7    1  0.2651429E-009  0.1074560E+03  0.7561462E-02  0.1265355E+00
          2   -1    0    0  501    0  0.00000000000E+00  0.00000000000E+00  0.31474354260E+02  0.31474354260E+02  0.00000000000E+00 0. -1.
         -2   -1    0    0    0  501 -0.00000000000E+00 -0.00000000000E+00 -0.70651657105E+03  0.70651657105E+03  0.00000000000E+00 0.  1.
         25    2    1    2    0    0 -0.62678771951E+02  0.47248186838E+02 -0.52695391555E+03  0.54725500002E+03  0.12508631545E+03 0.  0.
          5    1    3    3  502    0 -0.73839105559E+02  0.33086267571E+02 -0.52178484382E+03  0.52803769776E+03  0.41800000000E+01 0. -1.
         -5    1    3    3    0  502  0.11160333608E+02  0.14161919267E+02 -0.51690717324E+01  0.19217302260E+02  0.41800000000E+01 0. -1.
        -11    1    1    2    0    0  0.67150614874E+01 -0.58006336882E+02 -0.48125144932E+02  0.75669391064E+02  0.00000000000E+00 0. -1.
         11    1    1    2    0    0  0.55963710463E+02  0.10758150044E+02 -0.99963156299E+02  0.11506653422E+03  0.00000000000E+00 0.  1.
</event>
<event>
 7    1  0.2651429E-009  0.7065687E+02  0.7561462E-02  0.1357873E+00
          2   -1    0    0  501    0  0.00000000000E+00  0.00000000000E+00  0.37944773371E+02  0.37944773371E+02  0.00000000000E+00 0.  1.
         -2   -1    0    0    0  501 -0.00000000000E+00 -0.00000000000E+00 -0.38050403861E+03  0.38050403861E+03  0.00000000000E+00 0. -1.
         25    2    1    2    0    0  0.31672986736E+02 -0.18513339195E+02 -0.13086720856E+03  0.18471121792E+03  0.12508431528E+03 0.  0.
          5    1    3    3  502    0  0.21539667947E+02  0.32082417912E+01  0.21218755461E+02  0.30691335813E+02  0.41800000000E+01 0.  1.
         -5    1    3    3    0  502  0.10133318789E+02 -0.21721580986E+02 -0.15208596402E+03  0.15401988210E+03  0.41800000000E+01 0.  1.
        -11    1    1    2    0    0  0.27063901814E+01  0.48869841714E+02 -0.75010734262E+02  0.89566713859E+02  0.00000000000E+00 0.  1.
         11    1    1    2    0    0 -0.34379376917E+02 -0.30356502519E+02 -0.13668132241E+03  0.14417088020E+03  0.00000000000E+00 0. -1.
</event>
<event>
 7    1  0.2651429E-009  0.7877054E+02  0.7561462E-02  0.1332577E+00
          2   -1    0    0  501    0  0.00000000000E+00  0.00000000000E+00  0.34477439338E+02  0.34477439338E+02  0.00000000000E+00 0.  1.
         -2   -1    0    0    0  501 -0.00000000000E+00 -0.00000000000E+00 -0.35631257535E+03  0.35631257535E+03  0.00000000000E+00 0. -1.
         25    2    1    2    0    0 -0.64545460638E+01  0.10173205094E+01 -0.22768356311E+03  0.25986660311E+03  0.12509256731E+03 0.  0.
          5    1    3    3  502    0  0.16542599904E+02 -0.25841739002E+02 -0.22159021973E+03  0.22374349369E+03  0.41800000000E+01 0.  1.
         -5    1    3    3    0  502 -0.22997145968E+02  0.26859059512E+02 -0.60933433718E+01  0.36123109417E+02  0.41800000000E+01 0.  1.
        -11    1    1    2    0    0 -0.29767860956E+02 -0.31708965981E+02 -0.45750239204E+02  0.63124230346E+02  0.00000000000E+00 0.  1.
         11    1    1    2    0    0  0.36222407020E+02  0.30691645472E+02 -0.48401333699E+02  0.67799181234E+02  0.00000000000E+00 0. -1.
</event>
<event>
 7    1  0.2651430E-009  0.1403969E+03  0.7561462E-02  0.1212796E+00
          2   -1    0    0  501    0  0.00000000000E+00  0.00000000000E+00  0.65081323967E+03  0.65081323967E+03  0.00000000000E+00 0.  1.
         -2   -1    0    0    0  501 -0.00000000000E+00 -0.00000000000E+00 -0.46616579758E+02  0.46616579758E+02  0.00000000000E+00 0. -1.
         25    2    1    2    0    0  0.11312978462E+03 -0.53844703031E+02  0.21645478049E+03  0.27963794483E+03  0.12508840064E+03 0.  0.
          5    1    3    3  502    0  0.20298963298E+02 -0.81337978486E+01 -0.14471671161E+02  0.26553874381E+02  0.41800000000E+01 0. -1.
         -5    1    3    3    0  502  0.92830821327E+02 -0.45710905183E+02  0.23092645165E+03  0.25308407045E+03  0.41800000000E+01 0. -1.
        -11    1    1    2    0    0 -0.10877935218E+03  0.81661355206E+01  0.25538582503E+03  0.27770767519E+03  0.00000000000E+00 0. -1.
         11    1    1    2    0    0 -0.43504324404E+01  0.45678567511E+02  0.13235605439E+03  0.14008419942E+03  0.00000000000E+00 0.  1.
</event>
<event>
 7    1  0.2651429E-009  0.1086544E+03  0.7561462E-02  0.1263082E+00
          3   -1    0    0  501    0  0.00000000000E+00  0.00000000000E+00  0.53392017532E+02  0.53392017532E+02  0.00000000000E+00 0. -1.
         -3   -1    0    0    0  501 -0.00000000000E+00 -0.00000000000E+00 -0.35167314753E+03  0.35167314753E+03  0.00000000000E+00 0.  1.
         25    2    1    2    0    0 -0.34951425044E+02 -0.70783093175E+02 -0.20271809739E+03  0.25094658167E+03  0.12509081282E+03 0.  0.
          5    1    3    3  502    0 -0.74252705726E+02 -0.46929868366E+02 -0.17810395404E+03  0.19863123546E+03  0.41800000000E+01 0.  1.
         -5    1    3    3    0  502  0.39301280682E+02 -0.23853224809E+02 -0.24614143345E+02  0.52315346215E+02  0.41800000000E+01 0.  1.
        -11    1    1    2    0    0 -0.55078825187E+00  0.26239671286E+02  0.14649254549E+02  0.30057018744E+02  0.00000000000E+00 0. -1.
         11    1    1    2    0    0  0.35502213296E+02  0.44543421889E+02 -0.11021228716E+03  0.12406156465E+03  0.00000000000E+00 0.  1.
</event>
<event>
 7    1  0.2651429E-009  0.3700213E+03  0.7561462E-02  0.1054685E+00
         -2   -1    0    0    0  501 -0.00000000000E+00  0.00000000000E+00  0.37217164120E+03  0.37217164120E+03  0.00000000000E+00 0.  1.
          2   -1    0    0  501    0  0.00000000000E+00 -0.00000000000E+00 -0.39684879814E+03  0.39684879814E+03  0.00000000000E+00 0. -1.
         25    2    1    2    0    0  0.21031254053E+03 -0.30186108056E+03  0.93367132978E+01  0.38869765279E+03  0.12508882608E+03 0.  0.
          5    1    3    3  502    0  0.19181116159E+03 -0.28133973379E+03  0.44890136467E+02  0.34347658474E+03  0.41800000000E+01 0. -1.
         -5    1    3    3    0  502  0.18501378946E+02 -0.20521346771E+02 -0.35553423169E+02  0.45221068046E+02  0.41800000000E+01 0. -1.
        -11    1    1    2    0    0 -0.11967034912E+03  0.12631579739E+03 -0.52876695619E+02  0.18185878606E+03  0.00000000000E+00 0.  1.
         11    1    1    2    0    0 -0.90642191411E+02  0.17554528317E+03  0.18862825382E+02  0.19846400048E+03  0.00000000000E+00 0. -1.
</event>
<event>
 7    1  0.2651429E-009  0.1002873E+03  0.7561462E-02  0.1279693E+00
         -1   -1    0    0    0  501 -0.00000000000E+00  0.00000000000E+00  0.40515174569E+02  0.40515174569E+02  0.00000000000E+00 0.  1.
          1   -1    0    0  501    0  0.00000000000E+00 -0.00000000000E+00 -0.32428881684E+03  0.32428881684E+03  0.00000000000E+00 0. -1.
         25    2    1    2    0    0 -0.39011885923E+02 -0.54359410556E+01 -0.16296271768E+03  0.20918018246E+03  0.12509206482E+03 0.  0.
          5    1    3    3  502    0 -0.21666322453E+02  0.44925969560E+02 -0.14405741038E+03  0.15250502338E+03  0.41800000000E+01 0.  1.
         -5    1    3    3    0  502 -0.17345563470E+02 -0.50361910616E+02 -0.18905307298E+02  0.56675159082E+02  0.41800000000E+01 0.  1.
        -11    1    1    2    0    0  0.24037357401E+02 -0.41427157016E+02 -0.48496989426E+02  0.68161293067E+02  0.00000000000E+00 0.  1.
         11    1    1    2    0    0  0.14974528522E+02  0.46863098071E+02 -0.72313935168E+02  0.87462515884E+02  0.00000000000E+00 0. -1.
</event>
<event>
 7    1  0.2651429E-009  0.1139288E+03  0.7561462E-02  0.1253463E+00
          1   -1    0    0  501    0  0.00000000000E+00  0.00000000000E+00  0.11168965440E+04  0.11168965440E+04  0.00000000000E+00 0. -1.
         -1   -1    0    0    0  501 -0.00000000000E+00 -0.00000000000E+00 -0.17180173374E+02  0.17180173374E+02  0.00000000000E+00 0.  1.
         25    2    1    2    0    0  0.35791267460E+01  0.46900538976E+02  0.89922538507E+03  0.90910172344E+03  0.12508868733E+03 0.  0.
          5    1    3    3  502    0 -0.46209213059E+02 -0.19522809852E+02  0.31629121469E+03  0.32027181638E+03  0.41800000000E+01 0. -1.
         -5    1    3    3    0  502  0.49788339805E+02  0.66423348828E+02  0.58293417039E+03  0.58882990706E+03  0.41800000000E+01 0. -1.
        -11    1    1    2    0    0 -0.41044836829E+02 -0.37909889478E+02  0.15813927617E+03  0.16771961430E+03  0.00000000000E+00 0. -1.
         11    1    1    2    0    0  0.37465710082E+02 -0.89906494979E+01  0.42351709380E+02  0.57255379641E+02  0.00000000000E+00 0.  1.
</event>
<event>
 7    1  0.2651429E-009  0.1935299E+03  0.7561462E-02  0.1155316E+00
          1   -1    0    0  501    0  0.00000000000E+00  0.00000000000E+00  0.35554098179E+02  0.35554098179E+02  0.00000000000E+00 0. -1.
         -1   -1    0    0    0  501 -0.00000000000E+00 -0.00000000000E+00 -0.13078629397E+04  0.13078629397E+04  0.00000000000E+00 0.  1.
         25    2    1    2    0    0  0.80695095989E+02  0.15043688490E+03 -0.89036575282E+03  0.91517298573E+03  0.12508982832E+03 0.  0.
          5    1    3    3  502    0  0.10240494533E+03  0.74837700866E+02 -0.43853017247E+03  0.45652342642E+03  0.41800000000E+01 0.  1.
         -5    1    3    3    0  502 -0.21709849339E+02  0.75599184036E+02 -0.45183558035E+03  0.45864955931E+03  0.41800000000E+01 0.  1.
        -11    1    1    2    0    0 -0.44272075822E+02 -0.13455999387E+03 -0.34892216315E+03  0.37658078095E+03  0.00000000000E+00 0.  1.
         11    1    1    2    0    0 -0.36423020168E+02 -0.15876891033E+02 -0.33020925559E+02  0.51663271206E+02  0.00000000000E+00 0. -1.
</event>
<event>
 7    1  0.2651429E-009  0.1090227E+03  0.7561462E-02  0.1262391E+00
          1   -1    0    0  501    0  0.00000000000E+00  0.00000000000E+00  0.26536718604E+03  0.26536718604E+03  0.00000000000E+00 0. -1.
         -1   -1    0    0    0  501 -0.00000000000E+00 -0.00000000000E+00 -0.65791291014E+02  0.65791291014E+02  0.00000000000E+00 0.  1.
         25    2    1    2    0    0  0.51108702252E+02 -0.52213674710E+02  0.14730896130E+03  0.20660622657E+03  0.12509130868E+03 0.  0.
          5    1    3    3  502    0 -0.15811913264E+02 -0.72854633951E+02  0.78437577576E+02  0.10829469177E+03  0.41800000000E+01 0.  1.
         -5    1    3    3    0  502  0.66920615516E+02  0.20640959242E+02  0.68871383725E+02  0.98311534805E+02  0.41800000000E+01 0.  1.
        -11    1    1    2    0    0 -0.25049101098E+02  0.22176195529E+02 -0.22187365806E+02  0.40143745657E+02  0.00000000000E+00 0.  1.
         11    1    1    2    0    0 -0.26059601154E+02  0.30037479181E+02  0.74454299530E+02  0.84408504822E+02  0.00000000000E+00 0. -1.
</event>
<event>
 7    1  0.2651429E-009  0.1129073E+03  0.7561462E-02  0.1255279E+00
         -1   -1    0    0    0  501 -0.00000000000E+00  0.00000000000E+00  0.18773109266E+03  0.18773109266E+03  0.00000000000E+00 0.  1.
          1   -1    0    0  501    0  0.00000000000E+00 -0.00000000000E+00 -0.77852458342E+02  0.77852458342E+02  0.00000000000E+00 0. -1.
         25    2    1    2    0    0 -0.43481278592E+02 -0.25636737974E+02  0.80374005162E+02  0.15702116975E+03  0.12509117924E+03 0.  0.
          5    1    3    3  502    0 -0.59043449317E+02 -0.64936965447E+02  0.72293788357E+02  0.11378401744E+03  0.41800000000E+01 0.  1.
         -5    1    3    3    0  502  0.15562170725E+02  0.39300227473E+02  0.80802168050E+01  0.43237152319E+02  0.41800000000E+01 0.  1.
        -11    1    1    2    0    0  0.61547792127E+02  0.39121697328E+02  0.40564574979E+02  0.83451319108E+02  0.00000000000E+00 0.  1.
         11    1    1    2    0    0 -0.18066513535E+02 -0.13484959354E+02 -0.11059945824E+02  0.25111062138E+02  0.00000000000E+00 0. -1.
</event>
<event>
 7    1  0.2651429E-009  0.1301722E+03  0.7561462E-02  0.1227200E+00
          2   -1    0    0  501    0  0.00000000000E+00  0.00000000000E+00  0.17895124432E+03  0.17895124432E+03  0.00000000000E+00 0. -1.
         -2   -1    0    0    0  501 -0.00000000000E+00 -0.00000000000E+00 -0.20617831278E+03  0.20617831278E+03  0.00000000000E+00 0.  1.
         25    2    1    2    0    0 -0.47154610335E+02 -0.91935420834E+02 -0.13403619742E+03  0.21045004887E+03  0.12509133452E+03 0.  0.
          5    1    3    3  502    0 -0.85553974378E+02 -0.61683849160E+02 -0.59366965746E+02  0.12110445409E+03  0.41800000000E+01 0.  1.
         -5    1    3    3    0  502  0.38399364043E+02 -0.30251571674E+02 -0.74669231671E+02  0.89345594776E+02  0.41800000000E+01 0.  1.
        -11    1    1    2    0    0  0.25038279363E+01  0.25850283400E+02 -0.14315219218E+02  0.29655215518E+02  0.00000000000E+00 0.  1.
         11    1    1    2    0    0  0.44650782399E+02  0.66085137434E+02  0.12112434817E+03  0.14502429272E+03  0.00000000000E+00 0. -1.
</event>
<event>
 7    1  0.2651429E-009  0.2000745E+03  0.7561462E-02  0.1149676E+00
          1   -1    0    0  501    0  0.00000000000E+00  0.00000000000E+00  0.64308267916E+03  0.64308267916E+03  0.00000000000E+00 0. -1.
         -1   -1    0    0    0  501 -0.00000000000E+00 -0.00000000000E+00 -0.10051681408E+03  0.10051681408E+03  0.00000000000E+00 0.  1.
         25    2    1    2    0    0  0.16406177949E+03  0.29981945491E+01  0.50351560492E+03  0.54415155059E+03  0.12509072289E+03 0.  0.
          5    1    3    3  502    0  0.11284236249E+02 -0.43350535906E+02  0.14129972107E+03  0.14828919895E+03  0.41800000000E+01 0.  1.
         -5    1    3    3    0  502  0.15277754324E+03  0.46348730455E+02  0.36221588385E+03  0.39586235164E+03  0.41800000000E+01 0.  1.
        -11    1    1    2    0    0 -0.23022167999E+02 -0.43063667521E+02  0.12995049415E+02  0.50530891433E+02  0.00000000000E+00 0. -1.
         11    1    1    2    0    0 -0.14103961149E+03  0.40065472971E+02  0.26055210753E+02  0.14891705121E+03  0.00000000000E+00 0.  1.
</event>
<event>
 7    1  0.2651429E-009  0.1082367E+03  0.7561462E-02  0.1263871E+00
         -3   -1    0    0    0  501 -0.00000000000E+00  0.00000000000E+00  0.45184023021E+02  0.45184023021E+02  0.00000000000E+00 0.  1.
          3   -1    0    0  501    0  0.00000000000E+00 -0.00000000000E+00 -0.44519457094E+03  0.44519457094E+03  0.00000000000E+00 0. -1.
         25    2    1    2    0    0  0.45418179212E+02  0.78578457625E+02 -0.20317433359E+03  0.25527612302E+03  0.12509478066E+03 0.  0.
          5    1    3    3  502    0  0.68972741786E+02  0.60211176732E+02 -0.20551449429E+03  0.22502512010E+03  0.41800000000E+01 0.  1.
         -5    1    3    3    0  502 -0.23554562574E+02  0.18367280892E+02  0.23401607038E+01  0.30251002918E+02  0.41800000000E+01 0.  1.
        -11    1    1    2    0    0 -0.31597729159E+02 -0.27968002783E+02 -0.17191990827E+03  0.17702282488E+03  0.00000000000E+00 0. -1.
         11    1    1    2    0    0 -0.13820450053E+02 -0.50610454841E+02 -0.24916306055E+02  0.58079646059E+02  0.00000000000E+00 0.  1.
</event>
<event>
 7    1  0.2651429E-009  0.2192564E+03  0.7561462E-02  0.1134439E+00
          2   -1    0    0  501    0  0.00000000000E+00  0.00000000000E+00  0.60034101683E+03  0.60034101683E+03  0.00000000000E+00 0.  1.
         -2   -1    0    0    0  501 -0.00000000000E+00 -0.00000000000E+00 -0.99679126402E+02  0.99679126402E+02  0.00000000000E+00 0. -1.
         25    2    1    2    0    0  0.76620493919E+02  0.19423635838E+03  0.16440222160E+03  0.29372444061E+03  0.12508994178E+03 0.  0.
          5    1    3    3  502    0  0.22874910613E+02  0.11249750171E+03  0.15834021965E+03  0.19562220474E+03  0.41800000000E+01 0.  1.
         -5    1    3    3    0  502  0.53745583306E+02  0.81738856672E+02  0.60620019521E+01  0.98102235870E+02  0.41800000000E+01 0.  1.
        -11    1    1    2    0    0 -0.11693157488E+02  0.74351779880E+01  0.92805534887E+01  0.16677544088E+02  0.00000000000E+00 0. -1.
         11    1    1    2    0    0 -0.64927336431E+02 -0.20167153637E+03  0.32697911534E+03  0.38961815854E+03  0.00000000000E+00 0.  1.
</event>
<event>
 7    1  0.2651429E-009  0.1322609E+03  0.7561462E-02  0.1224139E+00
          2   -1    0    0  501    0  0.00000000000E+00  0.00000000000E+00  0.44351988774E+02  0.44351988774E+02  0.00000000000E+00 0. -1.
         -2   -1    0    0    0  501 -0.00000000000E+00 -0.00000000000E+00 -0.55801898795E+03  0.55801898795E+03  0.00000000000E+00 0.  1.
         25    2    1    2    0    0  0.67126776054E+01 -0.92144306163E+02 -0.41110348092E+03  0.43953315438E+03  0.12509072139E+03 0.  0.
          5    1    3    3  502    0  0.68567141125E+01  0.30567101451E+02 -0.10725841587E+03  0.11181771950E+03  0.41800000000E+01 0. -1.
         -5    1    3    3    0  502 -0.14403650715E+00 -0.12271140761E+03 -0.30384506505E+03  0.32771543488E+03  0.41800000000E+01 0. -1.
        -11    1    1    2    0    0  0.23183266336E+02  0.15556770837E+02  0.40437684954E+01  0.28210441693E+02  0.00000000000E+00 0. -1.
         11    1    1    2    0    0 -0.29895943942E+02  0.76587535326E+02 -0.10660728675E+03  0.13462738065E+03  0.00000000000E+00 0.  1.
</event>
<event>
 7    1  0.2651429E-009  0.1006249E+03  0.7561462E-02  0.1278987E+00
         -3   -1    0    0    0  501 -0.00000000000E+00  0.00000000000E+00  0.85015153044E+02  0.85015153044E+02  0.00000000000E+00 0.  1.
          3   -1    0    0  501    0  0.00000000000E+00 -0.00000000000E+00 -0.21028362048E+03  0.21028362048E+03  0.00000000000E+00 0. -1.
         25    2    1    2    0    0  0.51518980354E+02 -0.47431252298E+02 -0.35769400888E+02  0.14774988380E+03  0.12508656639E+03 0.  0.
          5    1    3    3  502    0  0.61662064364E+02 -0.44084803799E+02 -0.75097240664E+02  0.10678365073E+03  0.41800000000E+01 0. -1.
         -5    1    3    3    0  502 -0.10143084011E+02 -0.33464484981E+01  0.39327839775E+02  0.40966233073E+02  0.41800000000E+01 0. -1.
        -11    1    1    2    0    0 -0.63514607287E+02 -0.14518926486E+01 -0.32011767482E+02  0.71140470820E+02  0.00000000000E+00 0.  1.
         11    1    1    2    0    0  0.11995626934E+02  0.48883144946E+02 -0.57487299069E+02  0.76408418906E+02  0.00000000000E+00 0. -1.
</event>
<event>
 7    1  0.2651429E-009  0.1061152E+03  0.7561462E-02  0.1267938E+00
          1   -1    0    0  501    0  0.00000000000E+00  0.00000000000E+00  0.19767506179E+02  0.19767506179E+02  0.00000000000E+00 0. -1.
         -1   -1    0    0    0  501 -0.00000000000E+00 -0.00000000000E+00 -0.97928196845E+03  0.97928196845E+03  0.00000000000E+00 0.  1.
         25    2    1    2    0    0  0.69457370233E+02 -0.10093398628E+02 -0.41480491668E+03  0.43890547803E+03  0.12509475116E+03 0.  0.
          5    1    3    3  502    0  0.48489922497E+02 -0.35429533179E+02 -0.69225855481E+02  0.91739936081E+02  0.41800000000E+01 0. -1.
         -5    1    3    3    0  502  0.20967447737E+02  0.25336134552E+02 -0.34557906119E+03  0.34716554195E+03  0.41800000000E+01 0. -1.
        -11    1    1    2    0    0 -0.60750409184E+02  0.49598497732E+02 -0.45534872727E+03  0.46205312099E+03  0.00000000000E+00 0.  1.
         11    1    1    2    0    0 -0.87069610497E+01 -0.39505099104E+02 -0.89360818327E+02  0.98090875611E+02  0.00000000000E+00 0. -1.
</event>
<event>
 7    1  0.2651429E-009  0.1116968E+03  0.7561462E-02  0.1257459E+00
         -2   -1    0    0    0  501 -0.00000000000E+00  0.00000000000E+00  0.20755521712E+03  0.20755521712E+03  0.00000000000E+00 0. -1.
          2   -1    0    0  501    0  0.00000000000E+00 -0.00000000000E+00 -0.10836393058E+03  0.10836393058E+03  0.00000000000E+00 0.  1.
         25    2    1    2    0    0 -0.49372856691E+02 -0.11471733678E+02  0.14857625890E+03  0.20072826970E+03  0.12509058277E+03 0.  0.
          5    1    3    3  502    0  0.26613378552E+02 -0.35780864942E+02  0.19324050761E+02  0.48779437797E+02  0.41800000000E+01 0.  1.
         -5    1    3    3    0  502 -0.75986235243E+02  0.24309131265E+02  0.12925220814E+03  0.15194883191E+03  0.41800000000E+01 0.  1.
        -11    1    1    2    0    0 -0.63035776454E+01 -0.29131984704E+02  0.10048113521E+01  0.29823099600E+02  0.00000000000E+00 0. -1.
         11    1    1    2    0    0  0.55676434337E+02  0.40603718381E+02 -0.50389783711E+02  0.85367778402E+02  0.00000000000E+00 0.  1.
</event>
<event>
 7    1  0.2651429E-009  0.1038600E+03  0.7561462E-02  0.1272382E+00
          2   -1    0    0  501    0  0.00000000000E+00  0.00000000000E+00  0.47612930690E+02  0.47612930690E+02  0.00000000000E+00 0. -1.
         -2   -1    0    0    0  501 -0.00000000000E+00 -0.00000000000E+00 -0.40669116750E+03  0.40669116750E+03  0.00000000000E+00 0.  1.
         25    2    1    2    0    0  0.13168456271E+02 -0.85241754817E+02 -0.18278016955E+03  0.23768795963E+03  0.12508961094E+03 0.  0.
          5    1    3    3  502    0 -0.13909693729E+01 -0.99418041265E+02 -0.19100173476E+03  0.21537181061E+03  0.41800000000E+01 0. -1.
         -5    1    3    3    0  502  0.14559425644E+02  0.14176286448E+02  0.82215652072E+01  0.22316149018E+02  0.41800000000E+01 0. -1.
        -11    1    1    2    0    0  0.13080763775E+01  0.38578971854E+02 -0.55284058088E+01  0.38995017680E+02  0.00000000000E+00 0. -1.
         11    1    1    2    0    0 -0.14476532649E+02  0.46662782963E+02 -0.17076966145E+03  0.17762112088E+03  0.00000000000E+00 0.  1.
</event>
<event>
 7    1  0.2651429E-009  0.9276060E+02  0.7561462E-02  0.1296301E+00
          2   -1    0    0  501    0  0.00000000000E+00  0.00000000000E+00  0.47524000847E+03  0.47524000847E+03  0.00000000000E+00 0. -1.
         -2   -1    0    0    0  501 -0.00000000000E+00 -0.00000000000E+00 -0.33189424360E+02  0.33189424360E+02  0.00000000000E+00 0.  1.
         25    2    1    2    0    0 -0.19560787290E+02  0.43039660476E+02  0.32872054025E+03  0.35488231051E+03  0.12509685830E+03 0.  0.
          5    1    3    3  502    0 -0.31230975998E+02 -0.32062284852E+02  0.20296982173E+03  0.20788839531E+03  0.41800000000E+01 0. -1.
         -5    1    3    3    0  502  0.11670188708E+02  0.75101945328E+02  0.12575071851E+03  0.14699391519E+03  0.41800000000E+01 0. -1.
        -11    1    1    2    0    0  0.32595592674E+02 -0.20785788673E+02  0.12068735461E+03  0.12672789447E+03  0.00000000000E+00 0. -1.
         11    1    1    2    0    0 -0.13034805384E+02 -0.22253871803E+02 -0.73573107475E+01  0.26819227861E+02  0.00000000000E+00 0.  1.
</event>
<event>
 7    1  0.2651429E-009  0.1088391E+03  0.7561462E-02  0.1262735E+00
         -2   -1    0    0    0  501 -0.00000000000E+00  0.00000000000E+00  0.31211396597E+03  0.31211396597E+03  0.00000000000E+00 0.  1.
          2   -1    0    0  501    0  0.00000000000E+00 -0.00000000000E+00 -0.42837541529E+02  0.42837541529E+02  0.00000000000E+00 0. -1.
         25    2    1    2    0    0 -0.76225090604E+01  0.57589144307E+01  0.93713542087E+02  0.15658986875E+03  0.12508753449E+03 0.  0.
          5    1    3    3  502    0  0.20243690244E+02  0.60419969754E+02  0.50818802093E+02  0.81611290799E+02  0.41800000000E+01 0.  1.
         -5    1    3    3    0  502 -0.27866199305E+02 -0.54661055323E+02  0.42894739994E+02  0.74978577953E+02  0.41800000000E+01 0.  1.
        -11    1    1    2    0    0  0.94817384426E+01  0.42744988414E+02  0.81998672696E+02  0.92956009608E+02  0.00000000000E+00 0.  1.
         11    1    1    2    0    0 -0.18592293821E+01 -0.48503902845E+02  0.93564209660E+02  0.10540562914E+03  0.00000000000E+00 0. -1.
</event>
<event>
 7    1  0.2651429E-009  0.7185160E+02  0.7561462E-02  0.1353907E+00
         -1   -1    0    0    0  501 -0.00000000000E+00  0.00000000000E+00  0.63268840773E+02  0.63268840773E+02  0.00000000000E+00 0.  1.
          1   -1    0    0  501    0  0.00000000000E+00 -0.00000000000E+00 -0.23106610924E+03  0.23106610924E+03  0.00000000000E+00 0. -1.
         25    2    1    2    0    0  0.45809499412E+02  0.43470593184E+01 -0.12344396978E+03  0.18166853914E+03  0.12509051633E+03 0.  0.
          5    1    3    3  502    0 -0.20453288891E+02  0.20524701023E+02  0.10660393163E+02  0.31156327783E+02  0.41800000000E+01 0. -1.
         -5    1    3    3    0  502  0.66262788303E+02 -0.16177641705E+02 -0.13410436295E+03  0.15051221135E+03  0.41800000000E+01 0. -1.
        -11    1    1    2    0    0 -0.20698043727E+02 -0.65000557927E+00  0.28664827668E+02  0.35362464091E+02  0.00000000000E+00 0.  1.
         11    1    1    2    0    0 -0.25111455685E+02 -0.36970537391E+01 -0.73018126350E+02  0.77303946785E+02  0.00000000000E+00 0. -1.
</event>
<event>
 7    1  0.2651429E-009  0.1458457E+03  0.7561462E-02  0.1205673E+00
          2   -1    0    0  501    0  0.00000000000E+00  0.00000000000E+00  0.71877704014E+02  0.71877704014E+02  0.00000000000E+00 0. -1.
         -2   -1    0    0    0  501 -0.00000000000E+00 -0.00000000000E+00 -0.34324432257E+03  0.34324432257E+03  0.00000000000E+00 0.  1.
         25    2    1    2    0    0  0.10714944591E+03  0.14704300142E+02 -0.10142047387E+03  0.19398422726E+03  0.12508616113E+03 0.  0.
          5    1    3    3  502    0  0.98346891721E+02  0.60715189906E+02 -0.55609409090E+02  0.12832896858E+03  0.41800000000E+01 0. -1.
         -5    1    3    3    0  502  0.88025541888E+01 -0.46010889764E+02 -0.45811064780E+02  0.65655258688E+02  0.41800000000E+01 0. -1.
        -11    1    1    2    0    0 -0.83832381398E+02 -0.41452560745E+02 -0.75330403503E+02  0.12008685463E+03  0.00000000000E+00 0. -1.
         11    1    1    2    0    0 -0.23317064512E+02  0.26748260603E+02 -0.94615741181E+02  0.10105094469E+03  0.00000000000E+00 0.  1.
</event>
<event>
 7    1  0.2677625E-009  0.1546980E+03  0.7561462E-02  0.1194816E+00
          1   -1    0    0  501    0  0.00000000000E+00  0.00000000000E+00  0.25483489886E+03  0.25483489886E+03  0.00000000000E+00 0. -1.
         -1   -1    0    0    0  501 -0.00000000000E+00 -0.00000000000E+00 -0.11435499886E+03  0.11435499886E+03  0.00000000000E+00 0.  1.
         25    2    1    2    0    0  0.34088811127E+02  0.12498427985E+03  0.96380706216E+02  0.20425901998E+03  0.12509751979E+03 0.  0.
          5    1    3    3  502    0  0.54603205021E+02  0.14179030844E+03  0.72827304433E+02  0.16854462387E+03  0.41800000000E+01 0.  1.
         -5    1    3    3    0  502 -0.20514393893E+02 -0.16806028585E+02  0.23553401783E+02  0.35714396105E+02  0.41800000000E+01 0.  1.
        -11    1    1    2    0    0 -0.27236557039E+02 -0.69520665897E+02 -0.22508053607E+02  0.77984392691E+02  0.00000000000E+00 0.  1.
         11    1    1    2    0    0 -0.68522540887E+01 -0.55463613954E+02  0.66607247393E+02  0.86946485060E+02  0.00000000000E+00 0. -1.
</event>
<event>
 7    1  0.2651429E-009  0.6597882E+02  0.7561462E-02  0.1374327E+00
          1   -1    0    0  501    0  0.00000000000E+00  0.00000000000E+00  0.16981193698E+03  0.16981193698E+03  0.00000000000E+00 0. -1.
         -1   -1    0    0    0  501 -0.00000000000E+00 -0.00000000000E+00 -0.80052271242E+02  0.80052271242E+02  0.00000000000E+00 0.  1.
         25    2    1    2    0    0  0.24087430801E+02  0.61353433683E+01  0.18210797056E+02  0.12882714984E+03  0.12508778775E+03 0.  0.
          5    1    3    3  502    0 -0.58770534125E+01 -0.12915519894E+02  0.66846672509E+02  0.68463862266E+02  0.41800000000E+01 0. -1.
         -5    1    3    3    0  502  0.29964484214E+02  0.19050863262E+02 -0.48635875452E+02  0.60363287570E+02  0.41800000000E+01 0. -1.
        -11    1    1    2    0    0  0.27186900251E+02 -0.12164718384E+02 -0.34529793434E+01  0.29983845400E+02  0.00000000000E+00 0.  1.
         11    1    1    2    0    0 -0.51274331052E+02  0.60293750160E+01  0.75001848021E+02  0.91053212983E+02  0.00000000000E+00 0. -1.
</event>
<event>
 7    1  0.2651429E-009  0.2042998E+03  0.7561462E-02  0.1146161E+00
         -1   -1    0    0    0  501 -0.00000000000E+00  0.00000000000E+00  0.28548227168E+03  0.28548227168E+03  0.00000000000E+00 0. -1.
          1   -1    0    0  501    0  0.00000000000E+00 -0.00000000000E+00 -0.16609656471E+03  0.16609656471E+03  0.00000000000E+00 0.  1.
         25    2    1    2    0    0 -0.58197624145E+02  0.17874894096E+03  0.59855866881E+02  0.23359452309E+03  0.12508208932E+03 0.  0.
          5    1    3    3  502    0 -0.89277198186E+02  0.93558293573E+02  0.60453427620E+02  0.14281338076E+03  0.41800000000E+01 0. -1.
         -5    1    3    3    0  502  0.31079574041E+02  0.85190647390E+02 -0.59756073949E+00  0.90781142338E+02  0.41800000000E+01 0. -1.
        -11    1    1    2    0    0  0.26608094139E+02 -0.61621808189E+02 -0.23346513317E+02  0.71065445909E+02  0.00000000000E+00 0.  1.
         11    1    1    2    0    0  0.31589530006E+02 -0.11712713277E+03  0.82876353408E+02  0.14691886738E+03  0.00000000000E+00 0. -1.
</event>
<event>
 7    1  0.2651429E-009  0.1499851E+03  0.7561462E-02  0.1200491E+00
         -3   -1    0    0    0  501 -0.00000000000E+00  0.00000000000E+00  0.48209427406E+03  0.48209427406E+03  0.00000000000E+00 0.  1.
          3   -1    0    0  501    0  0.00000000000E+00 -0.00000000000E+00 -0.57861928018E+02  0.57861928018E+02  0.00000000000E+00 0. -1.
         25    2    1    2    0    0  0.51513150844E+02 -0.11470666777E+03  0.20232172108E+03  0.26905968541E+03  0.12509121131E+03 0.  0.
          5    1    3    3  502    0  0.45309144580E+02 -0.13837029426E+03  0.14022630983E+03  0.20218839552E+03  0.41800000000E+01 0.  1.
         -5    1    3    3    0  502  0.62040062637E+01  0.23663626482E+02  0.62095411258E+02  0.66871289888E+02  0.41800000000E+01 0.  1.
        -11    1    1    2    0    0 -0.53856395354E+02  0.91540268980E+02  0.97009690043E+02  0.14384370729E+03  0.00000000000E+00 0. -1.
         11    1    1    2    0    0  0.23432445102E+01  0.23166398794E+02  0.12490093491E+03  0.12705280937E+03  0.00000000000E+00 0.  1.
</event>
<event>
 7    1  0.2651429E-009  0.7602211E+02  0.7561462E-02  0.1340735E+00
          2   -1    0    0  501    0  0.00000000000E+00  0.00000000000E+00  0.11951486260E+03  0.11951486260E+03  0.00000000000E+00 0. -1.
         -2   -1    0    0    0  501 -0.00000000000E+00 -0.00000000000E+00 -0.10975852405E+03  0.10975852405E+03  0.00000000000E+00 0.  1.
         25    2    1    2    0    0  0.14123108699E+01 -0.32579291642E+02  0.28657254787E+02  0.13241233767E+03  0.12509350122E+03 0.  0.
          5    1    3    3  502    0 -0.16551803467E+01 -0.75750163525E+02  0.42254577408E+02  0.86854755817E+02  0.41800000000E+01 0.  1.
         -5    1    3    3    0  502  0.30674912166E+01  0.43170871883E+02 -0.13597322621E+02  0.45557581850E+02  0.41800000000E+01 0.  1.
        -11    1    1    2    0    0  0.47899311332E-01  0.22001307882E+02 -0.54988563544E+02  0.59226699752E+02  0.00000000000E+00 0.  1.
         11    1    1    2    0    0 -0.14602101812E+01  0.10577983760E+02  0.36087647309E+02  0.37634349237E+02  0.00000000000E+00 0. -1.
</event>
<event>
 7    1  0.2651429E-009  0.1242028E+03  0.7561462E-02  0.1236320E+00
          2   -1    0    0  501    0  0.00000000000E+00  0.00000000000E+00  0.20377452070E+03  0.20377452070E+03  0.00000000000E+00 0.  1.
         -2   -1    0    0    0  501 -0.00000000000E+00 -0.00000000000E+00 -0.10904016425E+03  0.10904016425E+03  0.00000000000E+00 0. -1.
         25    2    1    2    0    0 -0.96836242967E+02 -0.10177832904E+02  0.82783087838E+02  0.17883319731E+03  0.12508967421E+03 0.  0.
          5    1    3    3  502    0 -0.10298730470E+03 -0.39906152553E+02  0.95096851395E+02  0.14580730258E+03  0.41800000000E+01 0. -1.
         -5    1    3    3    0  502  0.61510617345E+01  0.29728319648E+02 -0.12313763557E+02  0.33025894727E+02  0.41800000000E+01 0. -1.
        -11    1    1    2    0    0  0.81269639979E+02 -0.98534447756E+01  0.44132977556E+02  0.93003034705E+02  0.00000000000E+00 0.  1.
         11    1    1    2    0    0  0.15566602988E+02  0.20031277680E+02 -0.32181708946E+02  0.40978452933E+02  0.00000000000E+00 0. -1.
</event>
<event>
 7    1  0.2651429E-009  0.1101055E+03  0.7561462E-02  0.1260375E+00
         -2   -1    0    0    0  501 -0.00000000000E+00  0.00000000000E+00  0.17564914428E+03  0.17564914428E+03  0.00000000000E+00 0.  1.
          2   -1    0    0  501    0  0.00000000000E+00 -0.00000000000E+00 -0.11028294239E+03  0.11028294239E+03  0.00000000000E+00 0. -1.
         25    2    1    2    0    0  0.76631630257E+01 -0.81626752564E+02  0.65528259762E+02  0.16329124851E+03  0.12509367774E+03 0.  0.
          5    1    3    3  502    0 -0.34713522146E+02 -0.85094433409E+02  0.90037598851E+01  0.92437174930E+02  0.41800000000E+01 0.  1.
         -5    1    3    3    0  502  0.42376685172E+02  0.34676808445E+01  0.56524499877E+02  0.70854073581E+02  0.41800000000E+01 0.  1.
        -11    1    1    2    0    0 -0.16324154410E+02  0.60329315116E+02  0.41523515811E+02  0.75035369292E+02  0.00000000000E+00 0.  1.
         11    1    1    2    0    0  0.86609913841E+01  0.21297437449E+02 -0.41685573676E+02  0.47605468870E+02  0.00000000000E+00 0. -1.
</event>
<event>
 7    1  0.2651429E-009  0.9047076E+02  0.7561462E-02  0.1301716E+00
          3   -1    0    0  501    0  0.00000000000E+00  0.00000000000E+00  0.28826558509E+03  0.28826558509E+03  0.00000000000E+00 0. -1.
         -3   -1    0    0    0  501 -0.00000000000E+00 -0.00000000000E+00 -0.47812048265E+02  0.47812048265E+02  0.00000000000E+00 0.  1.
         25    2    1    2    0    0 -0.20356732755E+02 -0.27348149383E+02  0.97156498993E+02  0.16201525334E+03  0.12508892507E+03 0.  0.
          5    1    3    3  502    0  0.35071549736E+02  0.18585413049E+02 -0.13531067243E+01  0.39934126720E+02  0.41800000000E+01 0. -1.
         -5    1    3    3    0  502 -0.55428282490E+02 -0.45933562431E+02  0.98509605717E+02  0.12208112662E+03  0.41800000000E+01 0. -1.
        -11    1    1    2    0    0 -0.20149755840E+02  0.18725910562E+02  0.28713349775E+01  0.27657132016E+02  0.00000000000E+00 0.  1.
         11    1    1    2    0    0  0.40506488595E+02  0.86222388204E+01  0.14042570285E+03  0.14640524800E+03  0.00000000000E+00 0. -1.
</event>
<event>
 7    1  0.2651429E-009  0.9413928E+02  0.7561462E-02  0.1293126E+00
         -2   -1    0    0    0  501 -0.00000000000E+00  0.00000000000E+00  0.57750675021E+02  0.57750675021E+02  0.00000000000E+00 0.  1.
          2   -1    0    0  501    0  0.00000000000E+00 -0.00000000000E+00 -0.30765909726E+03  0.30765909726E+03  0.00000000000E+00 0. -1.
         25    2    1    2    0    0  0.50426685906E+02 -0.10138388651E+02 -0.21892593480E+03  0.25733413026E+03  0.12508657839E+03 0.  0.
          5    1    3    3  502    0  0.22069342056E+02  0.57028528649E+02 -0.85032854001E+02  0.10482064490E+03  0.41800000000E+01 0. -1.
         -5    1    3    3    0  502  0.28357343849E+02 -0.67166917300E+02 -0.13389308080E+03  0.15251348535E+03  0.41800000000E+01 0. -1.
        -11    1    1    2    0    0 -0.41506969022E+02  0.14887442290E+01  0.26498729837E+02  0.49266900854E+02  0.00000000000E+00 0.  1.
         11    1    1    2    0    0 -0.89197168838E+01  0.86496444217E+01 -0.57481217281E+02  0.58808741170E+02  0.00000000000E+00 0. -1.
</event>
<event>
 7    1  0.2651429E-009  0.8519915E+02  0.7561462E-02  0.1314913E+00
         -2   -1    0    0    0  501 -0.00000000000E+00  0.00000000000E+00  0.74256637405E+03  0.74256637405E+03  0.00000000000E+00 0.  1.
          2   -1    0    0  501    0  0.00000000000E+00 -0.00000000000E+00 -0.22437238033E+02  0.22437238033E+02  0.00000000000E+00 0. -1.
         25    2    1    2    0    0  0.22311414865E+02 -0.44850179493E+02  0.25014540928E+03  0.28413121653E+03  0.12509390307E+03 0.  0.
          5    1    3    3  502    0 -0.13574802778E+02 -0.48845765890E+01  0.22354115161E+03  0.22404520353E+03  0.41800000000E+01 0. -1.
         -5    1    3    3    0  502  0.35886217643E+02 -0.39965602904E+02  0.26604257670E+02  0.60086013001E+02  0.41800000000E+01 0. -1.
        -11    1    1    2    0    0  0.34045076080E+02  0.11078955028E+02  0.18220073117E+03  0.18568499371E+03  0.00000000000E+00 0.  1.
         11    1    1    2    0    0 -0.56356490945E+02  0.33771224464E+02  0.28778299557E+03  0.29518740185E+03  0.00000000000E+00 0. -1.
</event>
<event>
 7    1  0.2651429E-009  0.1277486E+03  0.7561462E-02  0.1230835E+00
          4   -1    0    0  501    0  0.00000000000E+00  0.00000000000E+00  0.11337925813E+03  0.11337925813E+03  0.00000000000E+00 0.  1.
         -4   -1    0    0    0  501 -0.00000000000E+00 -0.00000000000E+00 -0.16632102245E+03  0.16632102245E+03  0.00000000000E+00 0. -1.
         25    2    1    2    0    0  0.48981651149E+02  0.50353906962E+02 -0.76923036185E+02  0.16278762900E+03  0.12509172860E+03 0.  0.
          5    1    3    3  502    0  0.84071138750E+02  0.63768504647E+02 -0.54452458782E+02  0.11881465071E+03  0.41800000000E+01 0.  1.
         -5    1    3    3    0  502 -0.35089487601E+02 -0.13414597686E+02 -0.22470577403E+02  0.43972978293E+02  0.41800000000E+01 0.  1.
        -11    1    1    2    0    0 -0.70282981654E+02 -0.56220399936E+02  0.95156953315E+01  0.90504029395E+02  0.00000000000E+00 0. -1.
         11    1    1    2    0    0  0.21301330505E+02  0.58664929746E+01  0.14465576537E+02  0.26408622183E+02  0.00000000000E+00 0.  1.
</event>
<event>
 7    1  0.2651429E-009  0.1204533E+03  0.7561462E-02  0.1242351E+00
         -1   -1    0    0    0  501 -0.00000000000E+00  0.00000000000E+00  0.78278137619E+02  0.78278137619E+02  0.00000000000E+00 0.  1.
          1   -1    0    0  501    0  0.00000000000E+00 -0.00000000000E+00 -0.20748735891E+03  0.20748735891E+03  0.00000000000E+00 0. -1.
         25    2    1    2    0    0 -0.54738182840E+02 -0.31332568010E+02 -0.96482672274E+02  0.17009979099E+03  0.12508810641E+03 0.  0.
          5    1    3    3  502    0 -0.93174136308E+02 -0.25845844561E+02 -0.86475559544E+02  0.12978798926E+03  0.41800000000E+01 0.  1.
         -5    1    3    3    0  502  0.38435953468E+02 -0.54867234487E+01 -0.10007112730E+02  0.40311801726E+02  0.41800000000E+01 0.  1.
        -11    1    1    2    0    0  0.36428667732E+02 -0.26086793754E+02  0.41715172264E+01  0.44999668855E+02  0.00000000000E+00 0.  1.
         11    1    1    2    0    0  0.18309515108E+02  0.57419361763E+02 -0.36898066248E+02  0.70666036691E+02  0.00000000000E+00 0. -1.
</event>
<event>
 7    1  0.2651429E-009  0.1444611E+03  0.7561462E-02  0.1207449E+00
         -1   -1    0    0    0  501 -0.00000000000E+00  0.00000000000E+00  0.12469701907E+03  0.12469701907E+03  0.00000000000E+00 0.  1.
          1   -1    0    0  501    0  0.00000000000E+00 -0.00000000000E+00 -0.20256218994E+03  0.20256218994E+03  0.00000000000E+00 0. -1.
         25    2    1    2    0    0  0.11325070408E+02  0.10801029784E+03  0.58172649785E+00  0.16565258214E+03  0.12508380353E+03 0.  0.
          5    1    3    3  502    0  0.56077296616E+02  0.98566231097E+02  0.20973518548E+02  0.11540071919E+03  0.41800000000E+01 0. -1.
         -5    1    3    3    0  502 -0.44752226208E+02  0.94440667442E+01 -0.20391792050E+02  0.50251862953E+02  0.41800000000E+01 0. -1.
        -11    1    1    2    0    0 -0.18852515662E+02 -0.11658816658E+03 -0.87545100735E+02  0.14701143695E+03  0.00000000000E+00 0. -1.
         11    1    1    2    0    0  0.75274452535E+01  0.85778687357E+01  0.90982033660E+01  0.14595189912E+02  0.00000000000E+00 0.  1.
</event>
<event>
 7    1  0.2651429E-009  0.9323315E+02  0.7561462E-02  0.1295206E+00
         -2   -1    0    0    0  501 -0.00000000000E+00  0.00000000000E+00  0.27356315048E+02  0.27356315048E+02  0.00000000000E+00 0.  1.
          2   -1    0    0  501    0  0.00000000000E+00 -0.00000000000E+00 -0.45782651667E+03  0.45782651667E+03  0.00000000000E+00 0. -1.
         25    2    1    2    0    0  0.21638975907E+02 -0.31866990259E+01 -0.20712684360E+03  0.24295456705E+03  0.12508793699E+03 0.  0.
          5    1    3    3  502    0 -0.24458350834E+02  0.50111018159E+02 -0.10209116139E+03  0.11640190162E+03  0.41800000000E+01 0. -1.
         -5    1    3    3    0  502  0.46097326741E+02 -0.53297717185E+02 -0.10503568221E+03  0.12655266543E+03  0.41800000000E+01 0. -1.
        -11    1    1    2    0    0 -0.40408239257E+02  0.64101545528E+01 -0.21887625605E+03  0.22266731090E+03  0.00000000000E+00 0. -1.
         11    1    1    2    0    0  0.18769263349E+02 -0.32234555269E+01 -0.44671019668E+01  0.19560953765E+02  0.00000000000E+00 0.  1.
</event>
<event>
 7    1  0.2651429E-009  0.1673561E+03  0.7561462E-02  0.1180633E+00
          2   -1    0    0  501    0  0.00000000000E+00  0.00000000000E+00  0.54355165659E+03  0.54355165659E+03  0.00000000000E+00 0. -1.
         -2   -1    0    0    0  501 -0.00000000000E+00 -0.00000000000E+00 -0.71914278596E+02  0.71914278596E+02  0.00000000000E+00 0.  1.
         25    2    1    2    0    0  0.87628741158E+02  0.11970701371E+03  0.26281349139E+03  0.32669010604E+03  0.12508768413E+03 0.  0.
          5    1    3    3  502    0  0.97599561813E+01 -0.20015744955E+02  0.82785667679E+02  0.85830215914E+02  0.41800000000E+01 0. -1.
         -5    1    3    3    0  502  0.77868784976E+02  0.13972275867E+03  0.18002782371E+03  0.24085989013E+03  0.41800000000E+01 0. -1.
        -11    1    1    2    0    0 -0.65612858791E+02 -0.61968788548E+02  0.20826614073E+03  0.22698009465E+03  0.00000000000E+00 0. -1.
         11    1    1    2    0    0 -0.22015882366E+02 -0.57738225163E+02  0.55774587664E+00  0.61795734495E+02  0.00000000000E+00 0.  1.
</event>
<event>
 7    1  0.2651429E-009  0.3910651E+02  0.7561462E-02  0.1514891E+00
          3   -1    0    0  501    0  0.00000000000E+00  0.00000000000E+00  0.31343062523E+02  0.31343062523E+02  0.00000000000E+00 0. -1.
         -3   -1    0    0    0  501 -0.00000000000E+00 -0.00000000000E+00 -0.30597211869E+03  0.30597211869E+03  0.00000000000E+00 0.  1.
         25    2    1    2    0    0  0.97561260529E+01  0.27597337255E+02 -0.17751295628E+03  0.21912304822E+03  0.12508903067E+03 0.  0.
          5    1    3    3  502    0  0.39258024357E+01  0.21112539580E+02  0.14898557256E+02  0.26468673193E+02  0.41800000000E+01 0. -1.
         -5    1    3    3    0  502  0.58303236172E+01  0.64847976747E+01 -0.19241151354E+03  0.19265437502E+03  0.41800000000E+01 0. -1.
        -11    1    1    2    0    0 -0.17391398910E+02  0.65050356895E+00 -0.84590861766E+02  0.86362594943E+02  0.00000000000E+00 0.  1.
         11    1    1    2    0    0  0.76352728567E+01 -0.28247840823E+02 -0.12525238122E+02  0.31829538055E+02  0.00000000000E+00 0. -1.
</event>
<event>
 7    1  0.2651429E-009  0.1808474E+03  0.7561462E-02  0.1166985E+00
          2   -1    0    0  501    0  0.00000000000E+00  0.00000000000E+00  0.79427871456E+03  0.79427871456E+03  0.00000000000E+00 0. -1.
         -2   -1    0    0    0  501 -0.00000000000E+00 -0.00000000000E+00 -0.48620340633E+02  0.48620340633E+02  0.00000000000E+00 0.  1.
         25    2    1    2    0    0 -0.84056287089E+02  0.13968024817E+03  0.34150451868E+03  0.39855507334E+03  0.12507909128E+03 0.  0.
          5    1    3    3  502    0  0.26962552301E+02  0.45236318033E+02  0.50601811395E+02  0.73152712951E+02  0.41800000000E+01 0. -1.
         -5    1    3    3    0  502 -0.11101883939E+03  0.94443930142E+02  0.29090270729E+03  0.32540236039E+03  0.41800000000E+01 0. -1.
        -11    1    1    2    0    0  0.50885833342E+02 -0.87474142788E+02  0.34199846660E+03  0.35665676056E+03  0.00000000000E+00 0. -1.
         11    1    1    2    0    0  0.33170453747E+02 -0.52206105387E+02  0.62155388645E+02  0.87687221298E+02  0.00000000000E+00 0.  1.
</event>
<event>
 7    1  0.2651429E-009  0.2863871E+03  0.7561462E-02  0.1092251E+00
         -1   -1    0    0    0  501 -0.00000000000E+00  0.00000000000E+00  0.64506775441E+03  0.64506775441E+03  0.00000000000E+00 0.  1.
          1   -1    0    0  501    0  0.00000000000E+00 -0.00000000000E+00 -0.13757224334E+03  0.13757224334E+03  0.00000000000E+00 0. -1.
         25    2    1    2    0    0 -0.25496147382E+03 -0.98436979331E+02  0.20071234808E+03  0.36142365958E+03  0.12508566265E+03 0.  0.
          5    1    3    3  502    0 -0.17840043558E+03 -0.12549418149E+03  0.13211808639E+03  0.25504541978E+03  0.41800000000E+01 0. -1.
         -5    1    3    3    0  502 -0.76561038247E+02  0.27057202156E+02  0.68594261694E+02  0.10637823980E+03  0.41800000000E+01 0. -1.
        -11    1    1    2    0    0  0.74084310772E+02  0.27990012449E+02  0.33450648201E+02  0.85970179507E+02  0.00000000000E+00 0.  1.
         11    1    1    2    0    0  0.18087716305E+03  0.70446966883E+02  0.27333251478E+03  0.33524615866E+03  0.00000000000E+00 0. -1.
</event>
<event>
 7    1  0.2651429E-009  0.1877718E+03  0.7561462E-02  0.1160486E+00
         -2   -1    0    0    0  501 -0.00000000000E+00  0.00000000000E+00  0.91838918245E+02  0.91838918245E+02  0.00000000000E+00 0.  1.
          2   -1    0    0  501    0  0.00000000000E+00 -0.00000000000E+00 -0.43407550993E+03  0.43407550993E+03  0.00000000000E+00 0. -1.
         25    2    1    2    0    0 -0.16511609508E+03 -0.26322292356E+02 -0.18170671352E+03  0.27680599172E+03  0.12509212360E+03 0.  0.
          5    1    3    3  502    0  0.32178491427E+00 -0.27651107718E+02 -0.74611577090E+02  0.79680908249E+02  0.41800000000E+01 0.  1.
         -5    1    3    3    0  502 -0.16543787999E+03  0.13288153615E+01 -0.10709513643E+03  0.19712508347E+03  0.41800000000E+01 0.  1.
        -11    1    1    2    0    0  0.14047395967E+03  0.48817567794E+02 -0.15584517717E+03  0.21541543008E+03  0.00000000000E+00 0. -1.
         11    1    1    2    0    0  0.24642135412E+02 -0.22495275438E+02 -0.46847009910E+01  0.33693006367E+02  0.00000000000E+00 0.  1.
</event>
<event>
 6    1  0.2651429E-009  0.1103823E+03  0.7561462E-02  0.1259864E+00
          1   -1    0    0  501    0  0.00000000000E+00  0.00000000000E+00  0.12107736497E+03  0.12107736497E+03  0.00000000000E+00 0. -1.
         -1   -1    0    0    0  501 -0.00000000000E+00 -0.00000000000E+00 -0.15645088250E+03  0.15645088250E+03  0.00000000000E+00 0.  1.
          5    1    1    2  502    0  0.10163863129E+03 -0.16693081925E+02  0.31823493511E+02  0.10788548324E+03  0.41800000000E+01 0.  1.
         -5    1    1    2    0  502 -0.31776929749E+02 -0.15686228924E+02 -0.18461789816E+02  0.40176375214E+02  0.41800000000E+01 0.  1.
        -11    1    1    2    0    0 -0.50881613245E+02  0.36442533937E+02  0.13713483295E+02  0.64070714607E+02  0.00000000000E+00 0. -1.
         11    1    1    2    0    0 -0.18980088299E+02 -0.40632230874E+01 -0.62448704527E+02  0.65395674404E+02  0.00000000000E+00 0.  1.
</event>
<event>
 7    1  0.2651429E-009  0.9953056E+02  0.7561462E-02  0.1281286E+00
         -1   -1    0    0    0  501 -0.00000000000E+00  0.00000000000E+00  0.32564415612E+02  0.32564415612E+02  0.00000000000E+00 0.  1.
          1   -1    0    0  501    0  0.00000000000E+00 -0.00000000000E+00 -0.40520053688E+03  0.40520053688E+03  0.00000000000E+00 0. -1.
         25    2    1    2    0    0  0.19291714178E+02  0.32451127973E+02 -0.21104688576E+03  0.24822050823E+03  0.12508951505E+03 0.  0.
          5    1    3    3  502    0 -0.38731827151E+02  0.54680838989E+02 -0.12650638593E+03  0.14321831820E+03  0.41800000000E+01 0. -1.
         -5    1    3    3    0  502  0.58023541329E+02 -0.22229711016E+02 -0.84540499830E+02  0.10500219003E+03  0.41800000000E+01 0. -1.
        -11    1    1    2    0    0  0.73192186934E+01 -0.41036564055E+02 -0.15541667131E+03  0.16090964009E+03  0.00000000000E+00 0. -1.
         11    1    1    2    0    0 -0.26610932871E+02  0.85854360824E+01 -0.61725641942E+01  0.28634804168E+02  0.00000000000E+00 0.  1.
</event>
<event>
 7    1  0.2651429E-009  0.1142858E+03  0.7561462E-02  0.1252833E+00
         -2   -1    0    0    0  501 -0.00000000000E+00  0.00000000000E+00  0.57561527196E+02  0.57561527196E+02  0.00000000000E+00 0.  1.
          2   -1    0    0  501    0  0.00000000000E+00 -0.00000000000E+00 -0.30168110073E+03  0.30168110073E+03  0.00000000000E+00 0. -1.
         25    2    1    2    0    0  0.41974395109E+02 -0.42413249932E+02 -0.19473202807E+03  0.23901636479E+03  0.12509007261E+03 0.  0.
          5    1    3    3  502    0  0.48087434673E+02  0.29855403398E+02 -0.12945568397E+03  0.14135060310E+03  0.41800000000E+01 0. -1.
         -5    1    3    3    0  502 -0.61130395640E+01 -0.72268653330E+02 -0.65276344103E+02  0.97665761689E+02  0.41800000000E+01 0. -1.
        -11    1    1    2    0    0  0.26831290525E+01  0.53167022434E+02 -0.62858161933E+00  0.53238393766E+02  0.00000000000E+00 0. -1.
         11    1    1    2    0    0 -0.44657524162E+02 -0.10753772502E+02 -0.48758963840E+02  0.66987869365E+02  0.00000000000E+00 0.  1.
</event>
<event>
 7    1  0.2651429E-009  0.1952384E+03  0.7561462E-02  0.1153820E+00
         -2   -1    0    0    0  501 -0.00000000000E+00  0.00000000000E+00  0.33364302988E+02  0.33364302988E+02  0.00000000000E+00 0.  1.
          2   -1    0    0  501    0  0.00000000000E+00 -0.00000000000E+00 -0.13136665111E+04  0.13136665111E+04  0.00000000000E+00 0. -1.
         25    2    1    2    0    0  0.13486759089E+03 -0.99659923171E+02 -0.87770407932E+03  0.90229310775E+03  0.12508810525E+03 0.  0.
          5    1    3    3  502    0 -0.79942139129E+01 -0.50704572375E+02 -0.33572102892E+03  0.33964826332E+03  0.41800000000E+01 0.  1.
         -5    1    3    3    0  502  0.14286180480E+03 -0.48955350796E+02 -0.54198305041E+03  0.56264484444E+03  0.41800000000E+01 0.  1.
        -11    1    1    2    0    0  0.57249948153E+01  0.30843006906E+02 -0.51091011530E+02  0.59952965730E+02  0.00000000000E+00 0. -1.
         11    1    1    2    0    0 -0.14059258570E+03  0.68816916265E+02 -0.35150711723E+03  0.38478474058E+03  0.00000000000E+00 0.  1.
</event>
<event>
 7    1  0.2651429E-009  0.1295035E+03  0.7561462E-02  0.1228194E+00
         -1   -1    0    0    0  501 -0.00000000000E+00  0.00000000000E+00  0.13712740570E+03  0.13712740570E+03  0.00000000000E+00 0.  1.
          1   -1    0    0  501    0  0.00000000000E+00 -0.00000000000E+00 -0.23698505506E+03  0.23698505506E+03  0.00000000000E+00 0. -1.
         25    2    1    2    0    0 -0.91881213291E+02  0.72405297128E+02 -0.13880233289E+03  0.22044838821E+03  0.12508684919E+03 0.  0.
          5    1    3    3  502    0 -0.68359719589E+02  0.19714242618E+02 -0.13104608180E+01  0.71280378309E+02  0.41800000000E+01 0. -1.
         -5    1    3    3    0  502 -0.23521493702E+02  0.52691054509E+02 -0.13749187207E+03  0.14916800990E+03  0.41800000000E+01 0. -1.
        -11    1    1    2    0    0  0.40893764387E+02  0.52652712201E+00  0.49323625082E+02  0.64073373470E+02  0.00000000000E+00 0.  1.
         11    1    1    2    0    0  0.50987448904E+02 -0.72931824250E+02 -0.10378941550E+02  0.89590699081E+02  0.00000000000E+00 0. -1.
</event>
<event>
 7    1  0.2651429E-009  0.1360074E+03  0.7561462E-02  0.1218805E+00
          1   -1    0    0  501    0  0.00000000000E+00  0.00000000000E+00  0.39816939845E+03  0.39816939845E+03  0.00000000000E+00 0. -1.
         -1   -1    0    0    0  501 -0.00000000000E+00 -0.00000000000E+00 -0.75446283463E+02  0.75446283463E+02  0.00000000000E+00 0.  1.
         25    2    1    2    0    0  0.11110723060E+03  0.67784750962E+01  0.66763245382E+02  0.18026350942E+03  0.12508731941E+03 0.  0.
          5    1    3    3  502    0  0.33108178723E+02 -0.29809119666E+02  0.81291868374E+02  0.92793186050E+02  0.41800000000E+01 0.  1.
         -5    1    3    3    0  502  0.77999051879E+02  0.36587594763E+02 -0.14528622992E+02  0.87470323371E+02  0.41800000000E+01 0.  1.
        -11    1    1    2    0    0 -0.49642577411E+02  0.40016401731E+02  0.14221041795E+03  0.15585089308E+03  0.00000000000E+00 0. -1.
         11    1    1    2    0    0 -0.61464653192E+02 -0.46794876827E+02  0.11374945166E+03  0.13750127942E+03  0.00000000000E+00 0.  1.
</event>
<event>
 7    1  0.2651429E-009  0.8047801E+02  0.7561462E-02  0.1327700E+00
          1   -1    0    0  501    0  0.00000000000E+00  0.00000000000E+00  0.69003525455E+03  0.69003525455E+03  0.00000000000E+00 0. -1.
         -1   -1    0    0    0  501 -0.00000000000E+00 -0.00000000000E+00 -0.21361653766E+02  0.21361653766E+02  0.00000000000E+00 0.  1.
         25    2    1    2    0    0  0.14862770354E+02  0.16489314412E+02  0.22949221615E+03  0.26231172068E+03  0.12509181468E+03 0.  0.
          5    1    3    3  502    0  0.25501101054E+02  0.36174293928E+02  0.23477249385E+03  0.23894451650E+03  0.41800000000E+01 0. -1.
         -5    1    3    3    0  502 -0.10638330700E+02 -0.19684979516E+02 -0.52802776997E+01  0.23367204180E+02  0.41800000000E+01 0. -1.
        -11    1    1    2    0    0 -0.21122293603E+02 -0.52811761029E+02  0.27405026926E+03  0.27989066343E+03  0.00000000000E+00 0. -1.
         11    1    1    2    0    0  0.62595232488E+01  0.36322446617E+02  0.16513111538E+03  0.16919452422E+03  0.00000000000E+00 0.  1.
</event>
<event>
 6    1  0.2800599E-009  0.1592209E+03  0.7561462E-02  0.1189579E+00
         -2   -1    0    0    0  501 -0.00000000000E+00  0.00000000000E+00  0.23163349544E+02  0.23163349544E+02  0.00000000000E+00 0.  1.
          2   -1    0    0  501    0  0.00000000000E+00 -0.00000000000E+00 -0.12778515664E+04  0.12778515664E+04  0.00000000000E+00 0. -1.
          5    1    1    2  502    0 -0.37115422875E+01 -0.51609776700E+02 -0.13464913499E+03  0.14430941255E+03  0.41800000000E+01 0.  1.
         -5    1    1    2    0  502  0.11657419332E+03 -0.10446237297E+02 -0.66392386950E+03  0.67417434193E+03  0.41800000000E+01 0.  1.
        -11    1    1    2    0    0 -0.88930743613E+02  0.67904910405E+01 -0.19300499489E+03  0.21261635868E+03  0.00000000000E+00 0.  1.
         11    1    1    2    0    0 -0.23931907415E+02  0.55265522957E+02 -0.26311021752E+03  0.26991480282E+03  0.00000000000E+00 0. -1.
</event>
<event>
 7    1  0.2651429E-009  0.7186552E+02  0.7561462E-02  0.1353862E+00
          3   -1    0    0  501    0  0.00000000000E+00  0.00000000000E+00  0.58837606512E+02  0.58837606512E+02  0.00000000000E+00 0. -1.
         -3   -1    0    0    0  501 -0.00000000000E+00 -0.00000000000E+00 -0.28766290748E+03  0.28766290748E+03  0.00000000000E+00 0.  1.
         25    2    1    2    0    0 -0.25859791091E+02  0.27318806540E+02 -0.20784764158E+03  0.24549113405E+03  0.12510079456E+03 0.  0.
          5    1    3    3  502    0  0.18151210582E+02  0.36265873111E+02 -0.92101337550E+01  0.41796877418E+02  0.41800000000E+01 0.  1.
         -5    1    3    3    0  502 -0.44011001672E+02 -0.89470665709E+01 -0.19863750783E+03  0.20369425663E+03  0.41800000000E+01 0.  1.
        -11    1    1    2    0    0  0.19484394270E+02  0.86561742550E+01 -0.49995829012E+02  0.54352128674E+02  0.00000000000E+00 0.  1.
         11    1    1    2    0    0  0.63753968208E+01 -0.35974980795E+02  0.29018169625E+02  0.46657251272E+02  0.00000000000E+00 0. -1.
</event>
<event>
 7    1  0.2651429E-009  0.1018489E+03  0.7561462E-02  0.1276455E+00
         -1   -1    0    0    0  501 -0.00000000000E+00  0.00000000000E+00  0.52857356636E+03  0.52857356636E+03  0.00000000000E+00 0.  1.
          1   -1    0    0  501    0  0.00000000000E+00 -0.00000000000E+00 -0.33660045187E+02  0.33660045187E+02  0.00000000000E+00 0. -1.
         25    2    1    2    0    0  0.44626110833E+02 -0.62227749751E+02  0.30420592603E+03  0.33771575025E+03  0.12508756902E+03 0.  0.
          5    1    3    3  502    0 -0.19693562143E+02  0.60664155538E+01  0.18390054907E+03  0.18509868216E+03  0.41800000000E+01 0.  1.
         -5    1    3    3    0  502  0.64319672976E+02 -0.68294165305E+02  0.12030537696E+03  0.15261706809E+03  0.41800000000E+01 0.  1.
        -11    1    1    2    0    0 -0.47922091613E+02  0.30367168144E+02  0.18297285695E+03  0.19156658933E+03  0.00000000000E+00 0.  1.
         11    1    1    2    0    0  0.32959807799E+01  0.31860581606E+02  0.77347381845E+01  0.32951271969E+02  0.00000000000E+00 0. -1.
</event>
<event>
 7    1  0.2651429E-009  0.8897339E+02  0.7561462E-02  0.1305357E+00
          1   -1    0    0  501    0  0.00000000000E+00  0.00000000000E+00  0.49030749342E+02  0.49030749342E+02  0.00000000000E+00 0. -1.
         -1   -1    0    0    0  501 -0.00000000000E+00 -0.00000000000E+00 -0.37939423455E+03  0.37939423455E+03  0.00000000000E+00 0.  1.
         25    2    1    2    0    0 -0.40317945785E+02  0.52083108013E+02 -0.25921614562E+03  0.29526015539E+03  0.12508941728E+03 0.  0.
          5    1    3    3  502    0  0.11169705299E+02  0.19014458310E+02  0.58461261488E+01  0.23193997763E+02  0.41800000000E+01 0.  1.
         -5    1    3    3    0  502 -0.51487651085E+02  0.33068649703E+02 -0.26506227177E+03  0.27206615763E+03  0.41800000000E+01 0.  1.
        -11    1    1    2    0    0 -0.40332210925E+01 -0.49581159948E+02 -0.73419893050E+02  0.88685055052E+02  0.00000000000E+00 0.  1.
         11    1    1    2    0    0  0.44351166878E+02 -0.25019480646E+01  0.22725534615E+01  0.44479773457E+02  0.00000000000E+00 0. -1.
</event>
<event>
 7    1  0.2651429E-009  0.1282002E+03  0.7561462E-02  0.1230151E+00
         -1   -1    0    0    0  501 -0.00000000000E+00  0.00000000000E+00  0.16329238756E+02  0.16329238756E+02  0.00000000000E+00 0.  1.
          1   -1    0    0  501    0  0.00000000000E+00 -0.00000000000E+00 -0.11297190941E+04  0.11297190941E+04  0.00000000000E+00 0. -1.
         25    2    1    2    0    0  0.33093220258E+02  0.60935033866E+02 -0.55156020854E+03  0.56980011040E+03  0.12508102407E+03 0.  0.
          5    1    3    3  502    0  0.33832540926E+02  0.91798248148E+02 -0.28349630845E+03  0.29993197311E+03  0.41800000000E+01 0. -1.
         -5    1    3    3    0  502 -0.73932066789E+00 -0.30863214282E+02 -0.26806390009E+03  0.26986813729E+03  0.41800000000E+01 0. -1.
        -11    1    1    2    0    0 -0.49928937239E+02  0.12919918119E+02 -0.19711457772E+03  0.20374979707E+03  0.00000000000E+00 0.  1.
         11    1    1    2    0    0  0.16835716980E+02 -0.73854951985E+02 -0.36471506911E+03  0.37249842542E+03  0.00000000000E+00 0. -1.
</event>
<event>
 7    1  0.2651429E-009  0.1124324E+03  0.7561462E-02  0.1256131E+00
         -1   -1    0    0    0  501 -0.00000000000E+00  0.00000000000E+00  0.43037368117E+03  0.43037368117E+03  0.00000000000E+00 0.  1.
          1   -1    0    0  501    0  0.00000000000E+00 -0.00000000000E+00 -0.64755520145E+02  0.64755520145E+02  0.00000000000E+00 0. -1.
         25    2    1    2    0    0 -0.29565719738E+02  0.61313628662E+02  0.35141632932E+03  0.37917533703E+03  0.12508799644E+03 0.  0.
          5    1    3    3  502    0 -0.45176528185E+02 -0.24795985264E+02  0.94333935009E+02  0.10757380387E+03  0.41800000000E+01 0. -1.
         -5    1    3    3    0  502  0.15610808448E+02  0.86109613926E+02  0.25708239431E+03  0.27160153316E+03  0.41800000000E+01 0. -1.
        -11    1    1    2    0    0 -0.21485309926E+01 -0.52620500500E+02 -0.30193856157E+02  0.60705866338E+02  0.00000000000E+00 0. -1.
         11    1    1    2    0    0  0.31714250730E+02 -0.86931281627E+01  0.44395687865E+02  0.55247997951E+02  0.00000000000E+00 0.  1.
</event>
<event>
 7    1  0.2651429E-009  0.1110352E+03  0.7561462E-02  0.1258665E+00
         -2   -1    0    0    0  501 -0.00000000000E+00  0.00000000000E+00  0.50231804940E+02  0.50231804940E+02  0.00000000000E+00 0. -1.
          2   -1    0    0  501    0  0.00000000000E+00 -0.00000000000E+00 -0.41745053146E+03  0.41745053146E+03  0.00000000000E+00 0.  1.
         25    2    1    2    0    0  0.89760457504E+00 -0.25439914644E+02 -0.34274309768E+03  0.36574375759E+03  0.12509064817E+03 0.  0.
          5    1    3    3  502    0 -0.17737522343E+02  0.48176324516E+02 -0.14531145880E+03  0.15417026433E+03  0.41800000000E+01 0.  1.
         -5    1    3    3    0  502  0.18635126918E+02 -0.73616239159E+02 -0.19743163887E+03  0.21157349326E+03  0.41800000000E+01 0.  1.
        -11    1    1    2    0    0 -0.43092148107E+02  0.29344246167E+02  0.16439270437E+01  0.52160526337E+02  0.00000000000E+00 0. -1.
         11    1    1    2    0    0  0.42194543532E+02 -0.39043315234E+01 -0.26119555889E+02  0.49778052477E+02  0.00000000000E+00 0.  1.
</event>
<event>
 7    1  0.2651429E-009  0.1671078E+03  0.7561462E-02  0.1180898E+00
         -1   -1    0    0    0  501 -0.00000000000E+00  0.00000000000E+00  0.34224686701E+02  0.34224686701E+02  0.00000000000E+00 0.  1.
          1   -1    0    0  501    0  0.00000000000E+00 -0.00000000000E+00 -0.10265185360E+04  0.10265185360E+04  0.00000000000E+00 0. -1.
         25    2    1    2    0    0 -0.13474429851E+03 -0.67116349073E+02 -0.58343277712E+03  0.61538669168E+03  0.12508534922E+03 0.  0.
          5    1    3    3  502    0 -0.98908371897E+01  0.14931459706E+02 -0.66539086670E+01  0.19558222051E+02  0.41800000000E+01 0.  1.
         -5    1    3    3    0  502 -0.12485346132E+03 -0.82047808779E+02 -0.57677886846E+03  0.59582846963E+03  0.41800000000E+01 0.  1.
        -11    1    1    2    0    0  0.10370197333E+03  0.13725080929E+02 -0.32352908938E+03  0.34001992411E+03  0.00000000000E+00 0. -1.
         11    1    1    2    0    0  0.31042325178E+02  0.53391268144E+02 -0.85331982805E+02  0.10533660691E+03  0.00000000000E+00 0.  1.
</event>
<event>
 7    1  0.2651429E-009  0.1030104E+03  0.7561462E-02  0.1274090E+00
          2   -1    0    0  501    0  0.00000000000E+00  0.00000000000E+00  0.49086070662E+03  0.49086070662E+03  0.00000000000E+00 0. -1.
         -2   -1    0    0    0  501 -0.00000000000E+00 -0.00000000000E+00 -0.27082607133E+02  0.27082607133E+02  0.00000000000E+00 0.  1.
         25    2    1    2    0    0  0.37586488621E+02  0.93152758455E+01  0.19809340058E+03  0.23745301014E+03  0.12507365104E+03 0.  0.
          5    1    3    3  502    0 -0.17009621403E+01 -0.53036663495E+02  0.55577391923E+02  0.76955180721E+02  0.41800000000E+01 0.  1.
         -5    1    3    3    0  502  0.39287450761E+02  0.62351939340E+02  0.14251600865E+03  0.16049782942E+03  0.41800000000E+01 0.  1.
        -11    1    1    2    0    0  0.13575799719E+02  0.16747483943E+02  0.24816924660E+02  0.32873398151E+02  0.00000000000E+00 0.  1.
         11    1    1    2    0    0 -0.51162288340E+02 -0.26062759788E+02  0.24086777426E+03  0.24761690546E+03  0.00000000000E+00 0. -1.
</event>
<event>
 7    1  0.2651429E-009  0.3006889E+03  0.7561462E-02  0.1084897E+00
          1   -1    0    0  501    0  0.00000000000E+00  0.00000000000E+00  0.26897314154E+03  0.26897314154E+03  0.00000000000E+00 0. -1.
         -1   -1    0    0    0  501 -0.00000000000E+00 -0.00000000000E+00 -0.36763453985E+03  0.36763453985E+03  0.00000000000E+00 0.  1.
         25    2    1    2    0    0  0.84212736096E+02  0.27311339369E+03 -0.11377037824E+03  0.33207557881E+03  0.12509108819E+03 0.  0.
          5    1    3    3  502    0 -0.17685284131E+02  0.14330753850E+03 -0.73863155330E+02  0.16224382263E+03  0.41800000000E+01 0. -1.
         -5    1    3    3    0  502  0.10189802023E+03  0.12980585520E+03 -0.39907222911E+02  0.16983175619E+03  0.41800000000E+01 0. -1.
        -11    1    1    2    0    0  0.91281738042E+01 -0.17776874339E+02 -0.22485793747E+02  0.30082415773E+02  0.00000000000E+00 0.  1.
         11    1    1    2    0    0 -0.93340909901E+02 -0.25533651936E+03  0.37594773688E+02  0.27444968680E+03  0.00000000000E+00 0. -1.
</event>
<event>
 7    1  0.2651429E-009  0.1868527E+03  0.7561462E-02  0.1161331E+00
         -1   -1    0    0    0  501 -0.00000000000E+00  0.00000000000E+00  0.17116123510E+03  0.17116123510E+03  0.00000000000E+00 0.  1.
          1   -1    0    0  501    0  0.00000000000E+00 -0.00000000000E+00 -0.26015884462E+03  0.26015884462E+03  0.00000000000E+00 0. -1.
         25    2    1    2    0    0 -0.11160799407E+03  0.12224932417E+03  0.28601288177E+02  0.20944570258E+03  0.12509287368E+03 0.  0.
          5    1    3    3  502    0 -0.13245581824E+03  0.69517766362E+02  0.29749467407E+02  0.15257708490E+03  0.41800000000E+01 0.  1.
         -5    1    3    3    0  502  0.20847824172E+02  0.52731557805E+02 -0.11481792298E+01  0.56868617680E+02  0.41800000000E+01 0.  1.
        -11    1    1    2    0    0  0.62257682801E+02 -0.50744603532E+02 -0.61382157321E+01  0.80552539052E+02  0.00000000000E+00 0.  1.
         11    1    1    2    0    0  0.49350311267E+02 -0.71504720635E+02 -0.11146068197E+03  0.14132183809E+03  0.00000000000E+00 0. -1.
</event>
<event>
 7    1  0.2651429E-009  0.8540077E+02  0.7561462E-02  0.1314388E+00
         -1   -1    0    0    0  501 -0.00000000000E+00  0.00000000000E+00  0.13623276753E+02  0.13623276753E+02  0.00000000000E+00 0.  1.
          1   -1    0    0  501    0  0.00000000000E+00 -0.00000000000E+00 -0.93657464957E+03  0.93657464957E+03  0.00000000000E+00 0. -1.
         25    2    1    2    0    0  0.36003150095E+02 -0.10046881066E+02 -0.62790603400E+03  0.64133551727E+03  0.12509233206E+03 0.  0.
          5    1    3    3  502    0  0.57890368284E+02  0.79137891797E+01 -0.59436001589E+03  0.59723967022E+03  0.41800000000E+01 0.  1.
         -5    1    3    3    0  502 -0.21887218188E+02 -0.17960670246E+02 -0.33546018114E+02  0.44095847050E+02  0.41800000000E+01 0.  1.
        -11    1    1    2    0    0  0.17141603662E+02 -0.16852876098E+02 -0.37686064375E+02  0.44700038668E+02  0.00000000000E+00 0.  1.
         11    1    1    2    0    0 -0.53144753757E+02  0.26899757164E+02 -0.25735927444E+03  0.26416237039E+03  0.00000000000E+00 0. -1.
</event>
<event>
 7    1  0.2651429E-009  0.1017686E+03  0.7561462E-02  0.1276620E+00
         -1   -1    0    0    0  501 -0.00000000000E+00  0.00000000000E+00  0.29981733496E+02  0.29981733496E+02  0.00000000000E+00 0.  1.
          1   -1    0    0  501    0  0.00000000000E+00 -0.00000000000E+00 -0.64857693941E+03  0.64857693941E+03  0.00000000000E+00 0. -1.
         25    2    1    2    0    0  0.20765865119E+02 -0.76184606137E+02 -0.34284413611E+03  0.37339805056E+03  0.12509471262E+03 0.  0.
          5    1    3    3  502    0  0.14816277441E+02 -0.67501176411E+02 -0.35205594689E+03  0.35879909843E+03  0.41800000000E+01 0.  1.
         -5    1    3    3    0  502  0.59495876775E+01 -0.86834297260E+01  0.92118107772E+01  0.14598952124E+02  0.41800000000E+01 0.  1.
        -11    1    1    2    0    0  0.35373679664E+02  0.49442568469E+02 -0.84805532959E+02  0.10434482838E+03  0.00000000000E+00 0. -1.
         11    1    1    2    0    0 -0.56139544782E+02  0.26742037668E+02 -0.19094553684E+03  0.20081579396E+03  0.00000000000E+00 0.  1.
</event>
<event>
 7    1  0.2651429E-009  0.1326203E+03  0.7561462E-02  0.1223619E+00
          2   -1    0    0  501    0  0.00000000000E+00  0.00000000000E+00  0.19839990073E+03  0.19839990073E+03  0.00000000000E+00 0.  1.
         -2   -1    0    0    0  501 -0.00000000000E+00 -0.00000000000E+00 -0.12440226613E+03  0.12440226613E+03  0.00000000000E+00 0. -1.
         25    2    1    2    0    0 -0.75317545698E+02  0.50394640658E+02  0.10476949669E+03  0.18664743471E+03  0.12509302518E+03 0.  0.
          5    1    3    3  502    0 -0.96302386127E+01  0.80756194957E+02  0.47569933439E+02  0.94311587237E+02  0.41800000000E+01 0.  1.
         -5    1    3    3    0  502 -0.65687307085E+02 -0.30361554300E+02  0.57199563253E+02  0.92335847470E+02  0.41800000000E+01 0.  1.
        -11    1    1    2    0    0  0.16996526985E+02 -0.50198985576E+02 -0.51847974184E+02  0.74141975355E+02  0.00000000000E+00 0. -1.
         11    1    1    2    0    0  0.58321018713E+02 -0.19565508108E+00  0.21076112093E+02  0.62012756797E+02  0.00000000000E+00 0.  1.
</event>
<event>
 7    1  0.2651429E-009  0.2487729E+03  0.7561462E-02  0.1114083E+00
          2   -1    0    0  501    0  0.00000000000E+00  0.00000000000E+00  0.45106036730E+03  0.45106036730E+03  0.00000000000E+00 0. -1.
         -2   -1    0    0    0  501 -0.00000000000E+00 -0.00000000000E+00 -0.22540251849E+03  0.22540251849E+03  0.00000000000E+00 0.  1.
         25    2    1    2    0    0 -0.12271473667E+03  0.20683448968E+03 -0.80896806821E+02  0.28289958743E+03  0.12509384677E+03 0.  0.
          5    1    3    3  502    0 -0.30052956641E+02  0.39642058819E+01  0.21553036501E+02  0.37428610896E+02  0.41800000000E+01 0.  1.
         -5    1    3    3    0  502 -0.92661780028E+02  0.20287028379E+03 -0.10244984332E+03  0.24547097654E+03  0.41800000000E+01 0.  1.
        -11    1    1    2    0    0  0.33642608690E+02 -0.95764053733E+02  0.15804150964E+03  0.18782890586E+03  0.00000000000E+00 0.  1.
         11    1    1    2    0    0  0.89072127979E+02 -0.11107043594E+03  0.14851314599E+03  0.20573439250E+03  0.00000000000E+00 0. -1.
</event>
<event>
 7    1  0.2651429E-009  0.8443839E+02  0.7561462E-02  0.1316908E+00
          4   -1    0    0  501    0  0.00000000000E+00  0.00000000000E+00  0.63927538107E+03  0.63927538107E+03  0.00000000000E+00 0. -1.
         -4   -1    0    0    0  501 -0.00000000000E+00 -0.00000000000E+00 -0.28009353514E+02  0.28009353514E+02  0.00000000000E+00 0.  1.
         25    2    1    2    0    0 -0.45958456462E+02 -0.12344281150E+02  0.51695523349E+03  0.53399956230E+03  0.12509299782E+03 0.  0.
          5    1    3    3  502    0 -0.47512702552E+02  0.36446274457E+02  0.43018451084E+03  0.43435236110E+03  0.41800000000E+01 0.  1.
         -5    1    3    3    0  502  0.15542460902E+01 -0.48790555607E+02  0.86770722653E+02  0.99647201201E+02  0.41800000000E+01 0.  1.
        -11    1    1    2    0    0  0.34550560902E+02  0.25128079392E+02  0.10481541090E+03  0.11318759647E+03  0.00000000000E+00 0. -1.
         11    1    1    2    0    0  0.11407895560E+02 -0.12783798243E+02 -0.10504616838E+02  0.20097575812E+02  0.00000000000E+00 0.  1.
</event>
<event>
 7    1  0.2651429E-009  0.1058707E+03  0.7561462E-02  0.1268414E+00
          2   -1    0    0  501    0  0.00000000000E+00  0.00000000000E+00  0.13154483984E+03  0.13154483984E+03  0.00000000000E+00 0. -1.
         -2   -1    0    0    0  501 -0.00000000000E+00 -0.00000000000E+00 -0.11016727758E+03  0.11016727758E+03  0.00000000000E+00 0.  1.
         25    2    1    2    0    0  0.49818999984E+02  0.78521411533E+01 -0.18990014342E+01  0.13488646789E+03  0.12508862511E+03 0.  0.
          5    1    3    3  502    0 -0.39726306644E+02  0.17166241336E+02  0.80386767628E+01  0.44214839198E+02  0.41800000000E+01 0.  1.
         -5    1    3    3    0  502  0.89545306628E+02 -0.93141001825E+01 -0.99376781970E+01  0.90671628690E+02  0.41800000000E+01 0.  1.
        -11    1    1    2    0    0 -0.23632675846E+02  0.26133264172E+02  0.46262720951E+02  0.58152301878E+02  0.00000000000E+00 0. -1.
         11    1    1    2    0    0 -0.26186324138E+02 -0.33985405325E+02 -0.22986157258E+02  0.48673347660E+02  0.00000000000E+00 0.  1.
</event>
<event>
 7    1  0.2651429E-009  0.3344057E+03  0.7561462E-02  0.1069204E+00
          1   -1    0    0  501    0  0.00000000000E+00  0.00000000000E+00  0.33273857920E+04  0.33273857920E+04  0.00000000000E+00 0.  1.
         -1   -1    0    0    0  501 -0.00000000000E+00 -0.00000000000E+00 -0.37290408902E+02  0.37290408902E+02  0.00000000000E+00 0. -1.
         25    2    1    2    0    0 -0.14925750887E+03  0.29105495056E+03  0.20212863902E+04  0.20513995442E+04  0.12510248169E+03 0.  0.
          5    1    3    3  502    0 -0.13650922324E+03  0.20320168451E+03  0.11609768033E+04  0.11865118216E+04  0.41800000000E+01 0.  1.
         -5    1    3    3    0  502 -0.12748285634E+02  0.87853266053E+02  0.86030958684E+03  0.86488772263E+03  0.41800000000E+01 0.  1.
        -11    1    1    2    0    0  0.63012594511E+02 -0.54470045174E+02  0.40681945850E+03  0.41525852755E+03  0.00000000000E+00 0.  1.
         11    1    1    2    0    0  0.86244914361E+02 -0.23658490539E+03  0.86198953449E+03  0.89801812915E+03  0.00000000000E+00 0. -1.
</event>
<event>
 7    1  0.2651429E-009  0.1415315E+03  0.7561462E-02  0.1211283E+00
         -1   -1    0    0    0  501 -0.00000000000E+00  0.00000000000E+00  0.34929912896E+02  0.34929912896E+02  0.00000000000E+00 0.  1.
          1   -1    0    0  501    0  0.00000000000E+00 -0.00000000000E+00 -0.72991233632E+03  0.72991233632E+03  0.00000000000E+00 0. -1.
         25    2    1    2    0    0  0.88796570904E+02 -0.72437597256E+02 -0.43692214906E+03  0.46870076576E+03  0.12508959581E+03 0.  0.
          5    1    3    3  502    0  0.10191489273E+03 -0.95975856339E+02 -0.39057037069E+03  0.41492251954E+03  0.41800000000E+01 0. -1.
         -5    1    3    3    0  502 -0.13118321823E+02  0.23538259083E+02 -0.46351778373E+02  0.53778246220E+02  0.41800000000E+01 0. -1.
        -11    1    1    2    0    0 -0.44334619898E+02  0.25764490509E+02 -0.30578041301E+02  0.59702463119E+02  0.00000000000E+00 0.  1.
         11    1    1    2    0    0 -0.44461951006E+02  0.46673106747E+02 -0.22748223306E+03  0.23643902034E+03  0.00000000000E+00 0. -1.
</event>
<event>
 7    1  0.2651429E-009  0.2727579E+03  0.7561462E-02  0.1099712E+00
         -2   -1    0    0    0  501 -0.00000000000E+00  0.00000000000E+00  0.22226940232E+03  0.22226940232E+03  0.00000000000E+00 0.  1.
          2   -1    0    0  501    0  0.00000000000E+00 -0.00000000000E+00 -0.35236267355E+03  0.35236267355E+03  0.00000000000E+00 0. -1.
         25    2    1    2    0    0 -0.24422143653E+03  0.66738800821E+02 -0.18916124375E+02  0.28302577221E+03  0.12509032886E+03 0.  0.
          5    1    3    3  502    0 -0.11627158271E+03  0.94989538048E+02  0.23335470306E+01  0.15021654744E+03  0.41800000000E+01 0. -1.
         -5    1    3    3    0  502 -0.12794985383E+03 -0.28250737227E+02 -0.21249671405E+02  0.13280922477E+03  0.41800000000E+01 0. -1.
        -11    1    1    2    0    0  0.16420672300E+03 -0.69857452578E+01 -0.40527530628E+02  0.16927825984E+03  0.00000000000E+00 0.  1.
         11    1    1    2    0    0  0.80014713533E+02 -0.59753055563E+02 -0.70649616233E+02  0.12232804382E+03  0.00000000000E+00 0. -1.
</event>
<event>
 7    1  0.2651429E-009  0.1319370E+03  0.7561462E-02  0.1224610E+00
          1   -1    0    0  501    0  0.00000000000E+00  0.00000000000E+00  0.12814477911E+04  0.12814477911E+04  0.00000000000E+00 0. -1.
         -1   -1    0    0    0  501 -0.00000000000E+00 -0.00000000000E+00 -0.20855342298E+02  0.20855342298E+02  0.00000000000E+00 0.  1.
         25    2    1    2    0    0  0.70529550555E+02 -0.10052661613E+03  0.61657780056E+03  0.64101164378E+03  0.12509086800E+03 0.  0.
          5    1    3    3  502    0  0.66748321510E+02 -0.38211770114E+02  0.13534274960E+03  0.15572607383E+03  0.41800000000E+01 0. -1.
         -5    1    3    3    0  502  0.37812290450E+01 -0.62314846018E+02  0.48123505096E+03  0.48528556995E+03  0.41800000000E+01 0. -1.
        -11    1    1    2    0    0 -0.15234391395E+02  0.10074326440E+02  0.15666859775E+02  0.24063026194E+02  0.00000000000E+00 0.  1.
         11    1    1    2    0    0 -0.55295159160E+02  0.90452289692E+02  0.62834778848E+03  0.63722846344E+03  0.00000000000E+00 0. -1.
</event>
<event>
 7    1  0.2651429E-009  0.1754102E+03  0.7561462E-02  0.1172320E+00
         -1   -1    0    0    0  501 -0.00000000000E+00  0.00000000000E+00  0.83648383550E+02  0.83648383550E+02  0.00000000000E+00 0.  1.
          1   -1    0    0  501    0  0.00000000000E+00 -0.00000000000E+00 -0.43721027244E+03  0.43721027244E+03  0.00000000000E+00 0. -1.
         25    2    1    2    0    0  0.85714624404E+02 -0.11417557303E+03 -0.96490336855E+02  0.21292642811E+03  0.12507685784E+03 0.  0.
          5    1    3    3  502    0  0.68676856590E+02 -0.13660904490E+03 -0.54882113451E+02  0.16250557085E+03  0.41800000000E+01 0. -1.
         -5    1    3    3    0  502  0.17037767814E+02  0.22433471869E+02 -0.41608223404E+02  0.50420857262E+02  0.41800000000E+01 0. -1.
        -11    1    1    2    0    0  0.69916514093E+01  0.63204043322E+02 -0.10248570610E+03  0.12061075506E+03  0.00000000000E+00 0. -1.
         11    1    1    2    0    0 -0.92706275813E+02  0.50971529707E+02 -0.15458584593E+03  0.18732147282E+03  0.00000000000E+00 0.  1.
</event>
<event>
 7    1  0.2651429E-009  0.7507060E+02  0.7561462E-02  0.1343653E+00
          2   -1    0    0  501    0  0.00000000000E+00  0.00000000000E+00  0.39873220737E+03  0.39873220737E+03  0.00000000000E+00 0. -1.
         -2   -1    0    0    0  501 -0.00000000000E+00 -0.00000000000E+00 -0.31828952567E+02  0.31828952567E+02  0.00000000000E+00 0.  1.
         25    2    1    2    0    0  0.22257892545E+02 -0.94422517569E+01  0.15024949240E+03  0.19699494379E+03  0.12509007960E+03 0.  0.
          5    1    3    3  502    0 -0.13857598084E+02  0.27083122496E+02 -0.70169466948E+01  0.31499817297E+02  0.41800000000E+01 0.  1.
         -5    1    3    3    0  502  0.36115490628E+02 -0.36525374253E+02  0.15726643909E+03  0.16549512649E+03  0.41800000000E+01 0.  1.
        -11    1    1    2    0    0 -0.37121704540E+02 -0.14387235744E+02  0.46964526035E+02  0.61568500112E+02  0.00000000000E+00 0.  1.
         11    1    1    2    0    0  0.14863811996E+02  0.23829487501E+02  0.16968923637E+03  0.17199771603E+03  0.00000000000E+00 0. -1.
</event>
<event>
 7    1  0.2651429E-009  0.1189130E+03  0.7561462E-02  0.1244901E+00
         -1   -1    0    0    0  501 -0.00000000000E+00  0.00000000000E+00  0.26620294370E+03  0.26620294370E+03  0.00000000000E+00 0.  1.
          1   -1    0    0  501    0  0.00000000000E+00 -0.00000000000E+00 -0.63300808683E+02  0.63300808683E+02  0.00000000000E+00 0. -1.
         25    2    1    2    0    0  0.54800480519E+02 -0.31282954699E+02  0.15325598949E+03  0.20764599714E+03  0.12509095048E+03 0.  0.
          5    1    3    3  502    0  0.15830446981E+02  0.44685938527E+02  0.25677658761E+02  0.54076341528E+02  0.41800000000E+01 0.  1.
         -5    1    3    3    0  502  0.38970033539E+02 -0.75968893225E+02  0.12757833073E+03  0.15356965561E+03  0.41800000000E+01 0.  1.
        -11    1    1    2    0    0 -0.55509618499E+02 -0.15759830604E+02  0.65840171279E+01  0.58077872620E+02  0.00000000000E+00 0. -1.
         11    1    1    2    0    0  0.70913797921E+00  0.47042785302E+02  0.43062128395E+02  0.63779882625E+02  0.00000000000E+00 0.  1.
</event>
<event>
 7    1  0.2651429E-009  0.9115506E+02  0.7561462E-02  0.1300078E+00
         -2   -1    0    0    0  501 -0.00000000000E+00  0.00000000000E+00  0.24831676017E+02  0.24831676017E+02  0.00000000000E+00 0. -1.
          2   -1    0    0  501    0  0.00000000000E+00 -0.00000000000E+00 -0.53686277561E+03  0.53686277561E+03  0.00000000000E+00 0.  1.
         25    2    1    2    0    0  0.33799082820E+02  0.12519205671E+02 -0.33884592897E+03  0.36299106975E+03  0.12508734797E+03 0.  0.
          5    1    3    3  502    0 -0.16863649194E+02  0.27397005775E+02 -0.16639236121E+02  0.36459774660E+02  0.41800000000E+01 0.  1.
         -5    1    3    3    0  502  0.50662732014E+02 -0.14877800104E+02 -0.32220669285E+03  0.32653129509E+03  0.41800000000E+01 0.  1.
        -11    1    1    2    0    0 -0.24871961518E+02 -0.51350612392E+02 -0.11185325993E+03  0.12556532810E+03  0.00000000000E+00 0.  1.
         11    1    1    2    0    0 -0.89271213019E+01  0.38831406721E+02 -0.61331910688E+02  0.73138053784E+02  0.00000000000E+00 0. -1.
</event>
<event>
 7    1  0.2651429E-009  0.1164264E+03  0.7561462E-02  0.1249112E+00
          2   -1    0    0  501    0  0.00000000000E+00  0.00000000000E+00  0.49587973374E+02  0.49587973374E+02  0.00000000000E+00 0. -1.
         -2   -1    0    0    0  501 -0.00000000000E+00 -0.00000000000E+00 -0.42428138006E+03  0.42428138006E+03  0.00000000000E+00 0.  1.
         25    2    1    2    0    0  0.94496513552E+02 -0.81072616591E+01 -0.22728448766E+03  0.27622697928E+03  0.12509111475E+03 0.  0.
          5    1    3    3  502    0  0.44694271451E+02 -0.26564862369E+02 -0.10779096394E+02  0.53262849458E+02  0.41800000000E+01 0.  1.
         -5    1    3    3    0  502  0.49802242101E+02  0.18457600710E+02 -0.21650539126E+03  0.22296412982E+03  0.41800000000E+01 0.  1.
        -11    1    1    2    0    0  0.79010616273E+01  0.22651402369E+02 -0.50505638621E+02  0.55913614949E+02  0.00000000000E+00 0.  1.
         11    1    1    2    0    0 -0.10239757518E+03 -0.14544140710E+02 -0.96903280409E+02  0.14172875920E+03  0.00000000000E+00 0. -1.
</event>
<event>
 7    1  0.2995263E-009  0.1257321E+03  0.7561462E-02  0.1233929E+00
         -2   -1    0    0    0  501 -0.00000000000E+00  0.00000000000E+00  0.34699359812E+02  0.34699359812E+02  0.00000000000E+00 0.  1.
          2   -1    0    0  501    0  0.00000000000E+00 -0.00000000000E+00 -0.92446854795E+03  0.92446854795E+03  0.00000000000E+00 0. -1.
         25    2    1    2    0    0 -0.27890138402E+02 -0.11473346621E+03 -0.68237805414E+03  0.70372541901E+03  0.12509208011E+03 0.  0.
          5    1    3    3  502    0  0.40068253999E+01 -0.44418594555E+02 -0.53872028788E+03  0.54057939950E+03  0.41800000000E+01 0. -1.
         -5    1    3    3    0  502 -0.31896963802E+02 -0.70314871660E+02 -0.14365776626E+03  0.16314601952E+03  0.41800000000E+01 0. -1.
        -11    1    1    2    0    0 -0.44007664875E+01  0.86026615889E+02 -0.68708623376E+02  0.11018539065E+03  0.00000000000E+00 0.  1.
         11    1    1    2    0    0  0.32290904890E+02  0.28706850325E+02 -0.13868251063E+03  0.14525709810E+03  0.00000000000E+00 0. -1.
</event>
<event>
 7    1  0.2651429E-009  0.8189343E+02  0.7561462E-02  0.1323762E+00
         -1   -1    0    0    0  501 -0.00000000000E+00  0.00000000000E+00  0.37502670779E+02  0.37502670779E+02  0.00000000000E+00 0.  1.
          1   -1    0    0  501    0  0.00000000000E+00 -0.00000000000E+00 -0.33601144918E+03  0.33601144918E+03  0.00000000000E+00 0. -1.
         25    2    1    2    0    0 -0.37800154631E+01  0.25964439137E+02 -0.17018668558E+03  0.21283447588E+03  0.12508623249E+03 0.  0.
          5    1    3    3  502    0  0.26003112529E+02 -0.29870469987E+02 -0.10751596139E+02  0.41248952204E+02  0.41800000000E+01 0. -1.
         -5    1    3    3    0  502 -0.29783127992E+02  0.55834909124E+02 -0.15943508944E+03  0.17158552368E+03  0.41800000000E+01 0. -1.
        -11    1    1    2    0    0 -0.13342150471E+02 -0.37563805188E+02 -0.10728637642E+02  0.41281425667E+02  0.00000000000E+00 0.  1.
         11    1    1    2    0    0  0.17122165934E+02  0.11599366052E+02 -0.11759345518E+03  0.11939821841E+03  0.00000000000E+00 0. -1.
</event>
<event>
 6    1  0.2651429E-009  0.2243089E+03  0.7561462E-02  0.1130711E+00
         -1   -1    0    0    0  501 -0.00000000000E+00  0.00000000000E+00  0.74261160992E+03  0.74261160992E+03  0.00000000000E+00 0.  1.
          1   -1    0    0  501    0  0.00000000000E+00 -0.00000000000E+00 -0.75704802781E+02  0.75704802781E+02  0.00000000000E+00 0. -1.
          5    1    1    2  502    0  0.43276950383E+02  0.12468342935E+03  0.27114991813E+03  0.30159343907E+03  0.41800000000E+01 0.  1.
         -5    1    1    2    0  502 -0.65041716217E+02  0.81504670964E+02  0.12615076334E+03  0.16372209298E+03  0.41800000000E+01 0.  1.
        -11    1    1    2    0    0  0.77275682746E+01 -0.19233393143E+03  0.18807269082E+03  0.26911594810E+03  0.00000000000E+00 0.  1.
         11    1    1    2    0    0  0.14037197559E+02 -0.13854168881E+02  0.81533434853E+02  0.83884932554E+02  0.00000000000E+00 0. -1.
</event>
<event>
 7    1  0.2651429E-009  0.1173077E+03  0.7561462E-02  0.1247606E+00
         -1   -1    0    0    0  501 -0.00000000000E+00  0.00000000000E+00  0.13553779893E+03  0.13553779893E+03  0.00000000000E+00 0.  1.
          1   -1    0    0  501    0  0.00000000000E+00 -0.00000000000E+00 -0.10710963821E+03  0.10710963821E+03  0.00000000000E+00 0. -1.
         25    2    1    2    0    0 -0.13227010343E+02 -0.48753152217E+02 -0.52505970049E+01  0.13500918359E+03  0.12509231484E+03 0.  0.
          5    1    3    3  502    0 -0.60593537362E+02  0.74358284354E+01  0.29509132272E+00  0.61191729780E+02  0.41800000000E+01 0.  1.
         -5    1    3    3    0  502  0.47366527019E+02 -0.56188980652E+02 -0.55456883276E+01  0.73817453814E+02  0.41800000000E+01 0.  1.
        -11    1    1    2    0    0 -0.98521649593E+01 -0.22690265273E+02 -0.13842206123E+01  0.24775579897E+02  0.00000000000E+00 0.  1.
         11    1    1    2    0    0  0.23079175302E+02  0.71443417489E+02  0.35062978332E+02  0.82862673652E+02  0.00000000000E+00 0. -1.
</event>
<event>
 7    1  0.2651429E-009  0.4227734E+02  0.7561462E-02  0.1492092E+00
         -1   -1    0    0    0  501 -0.00000000000E+00  0.00000000000E+00  0.75548989493E+02  0.75548989493E+02  0.00000000000E+00 0.  1.
          1   -1    0    0  501    0  0.00000000000E+00 -0.00000000000E+00 -0.20661688532E+03  0.20661688532E+03  0.00000000000E+00 0. -1.
         25    2    1    2    0    0  0.17864271989E+02 -0.15770783114E+02 -0.13171676519E+03  0.18321740574E+03  0.12510580211E+03 0.  0.
          5    1    3    3  502    0  0.19702196783E+01 -0.36295409360E+01  0.24741933608E+02  0.25430120166E+02  0.41800000000E+01 0. -1.
         -5    1    3    3    0  502  0.15894052310E+02 -0.12141242178E+02 -0.15645869879E+03  0.15778728557E+03  0.41800000000E+01 0. -1.
        -11    1    1    2    0    0 -0.36343581390E+02  0.45519358503E+01 -0.39177799113E+02  0.53632788214E+02  0.00000000000E+00 0. -1.
         11    1    1    2    0    0  0.18479309402E+02  0.11218847264E+02  0.39826668473E+02  0.45315680857E+02  0.00000000000E+00 0.  1.
</event>
<event>
 7    1  0.2651429E-009  0.1198796E+03  0.7561462E-02  0.1243296E+00
          2   -1    0    0  501    0  0.00000000000E+00  0.00000000000E+00  0.16249950781E+03  0.16249950781E+03  0.00000000000E+00 0. -1.
         -2   -1    0    0    0  501 -0.00000000000E+00 -0.00000000000E+00 -0.12801249797E+03  0.12801249797E+03  0.00000000000E+00 0.  1.
         25    2    1    2    0    0 -0.32338806710E+02 -0.67834214718E+02 -0.41871096897E+02  0.15183881850E+03  0.12511817990E+03 0.  0.
          5    1    3    3  502    0 -0.64034866889E+02  0.66245860699E+01 -0.12942739295E+02  0.65797691590E+02  0.41800000000E+01 0. -1.
         -5    1    3    3    0  502  0.31696060180E+02 -0.74458800788E+02 -0.28928357602E+02  0.86041126906E+02  0.41800000000E+01 0. -1.
        -11    1    1    2    0    0  0.36117948137E+02  0.11717754801E+02 -0.65057638758E+01  0.38524497645E+02  0.00000000000E+00 0.  1.
         11    1    1    2    0    0 -0.37791414270E+01  0.56116459917E+02  0.82863870612E+02  0.10014868964E+03  0.00000000000E+00 0. -1.
</event>
<event>
 7    1  0.2651429E-009  0.1242308E+03  0.7561462E-02  0.1236276E+00
          1   -1    0    0  501    0  0.00000000000E+00  0.00000000000E+00  0.22758189735E+03  0.22758189735E+03  0.00000000000E+00 0. -1.
         -1   -1    0    0    0  501 -0.00000000000E+00 -0.00000000000E+00 -0.96815700495E+02  0.96815700495E+02  0.00000000000E+00 0.  1.
         25    2    1    2    0    0  0.75364014488E+02 -0.75191745427E+01 -0.19076587529E+01  0.14623276203E+03  0.12507641209E+03 0.  0.
          5    1    3    3  502    0  0.85328468109E+02 -0.50276921275E+02  0.12326434379E+02  0.99890588482E+02  0.41800000000E+01 0.  1.
         -5    1    3    3    0  502 -0.99644536209E+01  0.42757746732E+02 -0.14234093131E+02  0.46342173545E+02  0.41800000000E+01 0.  1.
        -11    1    1    2    0    0 -0.89021689992E+02  0.13998946791E+02  0.71169594984E+02  0.11483006161E+03  0.00000000000E+00 0.  1.
         11    1    1    2    0    0  0.13657675503E+02 -0.64797722485E+01  0.61504260627E+02  0.63334774207E+02  0.00000000000E+00 0. -1.
</event>
<event>
 7    1  0.2651429E-009  0.1603482E+03  0.7561462E-02  0.1188304E+00
          1   -1    0    0  501    0  0.00000000000E+00  0.00000000000E+00  0.33478982764E+03  0.33478982764E+03  0.00000000000E+00 0. -1.
         -1   -1    0    0    0  501 -0.00000000000E+00 -0.00000000000E+00 -0.11357347498E+03  0.11357347498E+03  0.00000000000E+00 0.  1.
         25    2    1    2    0    0 -0.60908997957E+02  0.14489269187E+03  0.77459310261E+02  0.21529340724E+03  0.12509000066E+03 0.  0.
          5    1    3    3  502    0 -0.45827809433E+02  0.59506730674E+02 -0.26591453772E+02  0.79786069753E+02  0.41800000000E+01 0. -1.
         -5    1    3    3    0  502 -0.15081188523E+02  0.85385961200E+02  0.10405076403E+03  0.13550733749E+03  0.41800000000E+01 0. -1.
        -11    1    1    2    0    0  0.37399718419E+02 -0.11309936510E+03  0.46135963205E+02  0.12774479412E+03  0.00000000000E+00 0.  1.
         11    1    1    2    0    0  0.23509279538E+02 -0.31793326771E+02  0.97621079191E+02  0.10532510125E+03  0.00000000000E+00 0. -1.
</event>
<event>
 7    1  0.2651429E-009  0.1703840E+03  0.7561462E-02  0.1177448E+00
         -2   -1    0    0    0  501 -0.00000000000E+00  0.00000000000E+00  0.12160535080E+03  0.12160535080E+03  0.00000000000E+00 0.  1.
          2   -1    0    0  501    0  0.00000000000E+00 -0.00000000000E+00 -0.29766952864E+03  0.29766952864E+03  0.00000000000E+00 0. -1.
         25    2    1    2    0    0  0.95765103665E+02  0.89689315597E+02 -0.18368594923E+03  0.25808166208E+03  0.12510191024E+03 0.  0.
          5    1    3    3  502    0 -0.54816212742E+01  0.77794497269E+02 -0.94249055171E+02  0.12240256851E+03  0.41800000000E+01 0.  1.
         -5    1    3    3    0  502  0.10124672494E+03  0.11894818329E+02 -0.89436894059E+02  0.13567909357E+03  0.41800000000E+01 0.  1.
        -11    1    1    2    0    0 -0.87656641420E+02 -0.19262748972E+02  0.97005993764E+01  0.90270936138E+02  0.00000000000E+00 0.  1.
         11    1    1    2    0    0 -0.81084622449E+01 -0.70426566625E+02 -0.20788279850E+01  0.70922281212E+02  0.00000000000E+00 0. -1.
</event>
<event>
 7    1  0.2651429E-009  0.8745978E+02  0.7561462E-02  0.1309122E+00
          2   -1    0    0  501    0  0.00000000000E+00  0.00000000000E+00  0.17582275529E+03  0.17582275529E+03  0.00000000000E+00 0. -1.
         -2   -1    0    0    0  501 -0.00000000000E+00 -0.00000000000E+00 -0.10194026697E+03  0.10194026697E+03  0.00000000000E+00 0.  1.
         25    2    1    2    0    0 -0.54753865878E+02 -0.38426994775E+02  0.11825326070E+03  0.18467809151E+03  0.12509014375E+03 0.  0.
          5    1    3    3  502    0 -0.51503962425E+02  0.55186164934E+01 -0.64370902751E+01  0.52364318049E+02  0.41800000000E+01 0.  1.
         -5    1    3    3    0  502 -0.32499034522E+01 -0.43945611269E+02  0.12469035097E+03  0.13231377346E+03  0.41800000000E+01 0.  1.
        -11    1    1    2    0    0 -0.64454504091E+01  0.82056739177E+01 -0.16147239546E+02  0.19225250593E+02  0.00000000000E+00 0.  1.
         11    1    1    2    0    0  0.61199316287E+02  0.30221320858E+02 -0.28223532829E+02  0.73859680162E+02  0.00000000000E+00 0. -1.
</event>
<event>
 7    1  0.2651429E-009  0.1069242E+03  0.7561462E-02  0.1266374E+00
         -2   -1    0    0    0  501 -0.00000000000E+00  0.00000000000E+00  0.16353407791E+03  0.16353407791E+03  0.00000000000E+00 0.  1.
          2   -1    0    0  501    0  0.00000000000E+00 -0.00000000000E+00 -0.72846616865E+02  0.72846616865E+02  0.00000000000E+00 0. -1.
         25    2    1    2    0    0  0.59140441629E+01 -0.48012992941E+01  0.55543716148E+02  0.13707673759E+03  0.12508756610E+03 0.  0.
          5    1    3    3  502    0  0.42331272243E+02 -0.50207106956E+02  0.20120843998E+02  0.68811415927E+02  0.41800000000E+01 0. -1.
         -5    1    3    3    0  502 -0.36417228080E+02  0.45405807662E+02  0.35422872150E+02  0.68265321664E+02  0.41800000000E+01 0. -1.
        -11    1    1    2    0    0  0.29454534984E+02  0.33161826836E+02  0.30289933909E+02  0.53709929123E+02  0.00000000000E+00 0.  1.
         11    1    1    2    0    0 -0.35368579147E+02 -0.28360527542E+02  0.48538109838E+01  0.45594028056E+02  0.00000000000E+00 0. -1.
</event>
<event>
 7    1  0.2651429E-009  0.1323370E+03  0.7561462E-02  0.1224029E+00
         -2   -1    0    0    0  501 -0.00000000000E+00  0.00000000000E+00  0.34538962247E+02  0.34538962247E+02  0.00000000000E+00 0.  1.
          2   -1    0    0  501    0  0.00000000000E+00 -0.00000000000E+00 -0.74306634686E+03  0.74306634686E+03  0.00000000000E+00 0. -1.
         25    2    1    2    0    0  0.71418179145E+02 -0.80597049004E+02 -0.26421839783E+03  0.31153804979E+03  0.12509258209E+03 0.  0.
          5    1    3    3  502    0  0.88897270068E+02 -0.16834544320E+02 -0.10254053895E+03  0.13681433052E+03  0.41800000000E+01 0. -1.
         -5    1    3    3    0  502 -0.17479090923E+02 -0.63762504684E+02 -0.16167785888E+03  0.17472371927E+03  0.41800000000E+01 0. -1.
        -11    1    1    2    0    0 -0.20440996760E+02  0.19109843941E+02 -0.20222224999E+02  0.34524757319E+02  0.00000000000E+00 0.  1.
         11    1    1    2    0    0 -0.50977182385E+02  0.61487205064E+02 -0.42408676179E+03  0.43154250200E+03  0.00000000000E+00 0. -1.
</event>
<event>
 7    1  0.2651429E-009  0.9857742E+02  0.7561462E-02  0.1283316E+00
          2   -1    0    0  501    0  0.00000000000E+00  0.00000000000E+00  0.85905934574E+02  0.85905934574E+02  0.00000000000E+00 0. -1.
         -2   -1    0    0    0  501 -0.00000000000E+00 -0.00000000000E+00 -0.28939022546E+03  0.28939022546E+03  0.00000000000E+00 0.  1.
         25    2    1    2    0    0 -0.26449260501E+02 -0.27759963179E+02  0.19059906193E+02  0.13221463499E+03  0.12508897131E+03 0.  0.
          5    1    3    3  502    0 -0.49210452640E+02  0.36373402853E+02 -0.30426181087E+00  0.61337248548E+02  0.41800000000E+01 0. -1.
         -5    1    3    3    0  502  0.22761192139E+02 -0.64133366032E+02  0.19364168004E+02  0.70877386441E+02  0.41800000000E+01 0. -1.
        -11    1    1    2    0    0  0.88683820869E+01 -0.17205859946E+02 -0.46569101159E+01  0.19909209657E+02  0.00000000000E+00 0. -1.
         11    1    1    2    0    0  0.17580878414E+02  0.44965823125E+02 -0.21788728696E+03  0.22317231539E+03  0.00000000000E+00 0.  1.
</event>
<event>
 7    1  0.2651429E-009  0.7750759E+02  0.7561462E-02  0.1336277E+00
          1   -1    0    0  501    0  0.00000000000E+00  0.00000000000E+00  0.24838692841E+03  0.24838692841E+03  0.00000000000E+00 0. -1.
         -1   -1    0    0    0  501 -0.00000000000E+00 -0.00000000000E+00 -0.54297833951E+02  0.54297833951E+02  0.00000000000E+00 0.  1.
         25    2    1    2    0    0 -0.14168867653E+02  0.50693886545E+01  0.61558579675E+02  0.14022347451E+03  0.12508680410E+03 0.  0.
          5    1    3    3  502    0  0.26196804861E+02 -0.34298527427E+02 -0.14259553345E+02  0.45645030728E+02  0.41800000000E+01 0.  1.
         -5    1    3    3    0  502 -0.40365672514E+02  0.39367916081E+02  0.75818133020E+02  0.94578443785E+02  0.41800000000E+01 0.  1.
        -11    1    1    2    0    0 -0.19897882288E+02 -0.67380236852E+01 -0.43004391480E+01  0.21443424624E+02  0.00000000000E+00 0.  1.
         11    1    1    2    0    0  0.34066749940E+02  0.16686350308E+01  0.13683095393E+03  0.14101786323E+03  0.00000000000E+00 0. -1.
</event>
<event>
 7    1  0.2651429E-009  0.1038557E+03  0.7561462E-02  0.1272391E+00
         -3   -1    0    0    0  501 -0.00000000000E+00  0.00000000000E+00  0.45911485719E+03  0.45911485719E+03  0.00000000000E+00 0.  1.
          3   -1    0    0  501    0  0.00000000000E+00 -0.00000000000E+00 -0.35776455571E+02  0.35776455571E+02  0.00000000000E+00 0. -1.
         25    2    1    2    0    0 -0.37160001234E+02  0.73537265930E+02  0.21313653729E+03  0.26050728647E+03  0.12509303579E+03 0.  0.
          5    1    3    3  502    0 -0.34562755196E+02  0.40228876688E+01  0.17993087127E+03  0.18331218865E+03  0.41800000000E+01 0. -1.
         -5    1    3    3    0  502 -0.25972460376E+01  0.69514378261E+02  0.33205666025E+02  0.77195097824E+02  0.41800000000E+01 0. -1.
        -11    1    1    2    0    0 -0.14090974548E+02 -0.95420372470E+00  0.39364239374E+02  0.41821159835E+02  0.00000000000E+00 0.  1.
         11    1    1    2    0    0  0.51250975782E+02 -0.72583062205E+02  0.17083762496E+03  0.19256286646E+03  0.00000000000E+00 0. -1.
</event>
<event>
 7    1  0.2651429E-009  0.8794153E+02  0.7561462E-02  0.1307915E+00
         -1   -1    0    0    0  501 -0.00000000000E+00  0.00000000000E+00  0.84090630623E+02  0.84090630623E+02  0.00000000000E+00 0.  1.
          1   -1    0    0  501    0  0.00000000000E+00 -0.00000000000E+00 -0.22735691357E+03  0.22735691357E+03  0.00000000000E+00 0. -1.
         25    2    1    2    0    0 -0.46385780232E+02  0.53604218989E+01 -0.16924553053E+01  0.13353274620E+03  0.12509098758E+03 0.  0.
          5    1    3    3  502    0 -0.38797166185E+02  0.55185639740E+02 -0.31779774156E+02  0.74686688124E+02  0.41800000000E+01 0. -1.
         -5    1    3    3    0  502 -0.75886140463E+01 -0.49825217841E+02  0.30087318851E+02  0.58846058081E+02  0.41800000000E+01 0. -1.
        -11    1    1    2    0    0  0.44915078721E+02 -0.15471197846E+02 -0.15438490276E+03  0.16152838902E+03  0.00000000000E+00 0. -1.
         11    1    1    2    0    0  0.14707015109E+01  0.10110775948E+02  0.12811075118E+02  0.16386408968E+02  0.00000000000E+00 0.  1.
</event>
<event>
 7    1  0.2970815E-009  0.9409385E+02  0.7561462E-02  0.1293230E+00
          3   -1    0    0  501    0  0.00000000000E+00  0.00000000000E+00  0.24708361833E+03  0.24708361833E+03  0.00000000000E+00 0. -1.
         -3   -1    0    0    0  501 -0.00000000000E+00 -0.00000000000E+00 -0.55543548084E+02  0.55543548084E+02  0.00000000000E+00 0.  1.
         25    2    1    2    0    0  0.80276058021E+01 -0.42261078792E+02  0.99544369636E+02  0.16554667820E+03  0.12508469092E+03 0.  0.
          5    1    3    3  502    0 -0.80695523199E+01  0.24162310304E+02  0.93280879122E+02  0.96787032828E+02  0.41800000000E+01 0.  1.
         -5    1    3    3    0  502  0.16097158122E+02 -0.66423389097E+02  0.62634905142E+01  0.68759645375E+02  0.41800000000E+01 0.  1.
        -11    1    1    2    0    0  0.32036741600E+02  0.43249407633E+02  0.25772587563E+02  0.59674871953E+02  0.00000000000E+00 0.  1.
         11    1    1    2    0    0 -0.40064347402E+02 -0.98832884051E+00  0.66223113043E+02  0.77405616255E+02  0.00000000000E+00 0. -1.
</event>
<event>
 7    1  0.2651429E-009  0.6357478E+02  0.7561462E-02  0.1383414E+00
          2   -1    0    0  501    0  0.00000000000E+00  0.00000000000E+00  0.72868655809E+02  0.72868655809E+02  0.00000000000E+00 0. -1.
         -2   -1    0    0    0  501 -0.00000000000E+00 -0.00000000000E+00 -0.19522180819E+03  0.19522180819E+03  0.00000000000E+00 0.  1.
         25    2    1    2    0    0 -0.25258253492E+02  0.86909057196E+01 -0.22693376064E+02  0.12990678874E+03  0.12508906120E+03 0.  0.
          5    1    3    3  502    0  0.25913373097E+01 -0.26420083468E+02  0.42740588027E+02  0.50487286562E+02  0.41800000000E+01 0. -1.
         -5    1    3    3    0  502 -0.27849590801E+02  0.35110989188E+02 -0.65433964091E+02  0.79419502178E+02  0.41800000000E+01 0. -1.
        -11    1    1    2    0    0  0.13464831323E+02 -0.28891420837E+02  0.38108737724E+01  0.32102003667E+02  0.00000000000E+00 0. -1.
         11    1    1    2    0    0  0.11793422168E+02  0.20200515117E+02 -0.10347065009E+03  0.10608167159E+03  0.00000000000E+00 0.  1.
</event>
<event>
 7    1  0.2651429E-009  0.9551282E+02  0.7561462E-02  0.1290025E+00
         -1   -1    0    0    0  501 -0.00000000000E+00  0.00000000000E+00  0.25100716714E+03  0.25100716714E+03  0.00000000000E+00 0.  1.
          1   -1    0    0  501    0  0.00000000000E+00 -0.00000000000E+00 -0.51474895658E+02  0.51474895658E+02  0.00000000000E+00 0. -1.
         25    2    1    2    0    0 -0.25861795858E+01  0.19347312423E+02  0.76171832493E+02  0.14775113406E+03  0.12508893927E+03 0.  0.
          5    1    3    3  502    0 -0.22609420369E+02 -0.38681835278E+02  0.73479313406E+02  0.86163519940E+02  0.41800000000E+01 0.  1.
         -5    1    3    3    0  502  0.20023240783E+02  0.58029147701E+02  0.26925190878E+01  0.61587614124E+02  0.41800000000E+01 0.  1.
        -11    1    1    2    0    0  0.23944829212E+02  0.25404240349E+02  0.85468943555E+02  0.92323727102E+02  0.00000000000E+00 0.  1.
         11    1    1    2    0    0 -0.21358649626E+02 -0.44751552773E+02  0.37891495437E+02  0.62407201635E+02  0.00000000000E+00 0. -1.
</event>
<event>
 7    1  0.2651429E-009  0.1540094E+03  0.7561462E-02  0.1195631E+00
          2   -1    0    0  501    0  0.00000000000E+00  0.00000000000E+00  0.12763090209E+03  0.12763090209E+03  0.00000000000E+00 0. -1.
         -2   -1    0    0    0  501 -0.00000000000E+00 -0.00000000000E+00 -0.27554502922E+03  0.27554502922E+03  0.00000000000E+00 0.  1.
         25    2    1    2    0    0 -0.14412433637E+03  0.10043393383E+02 -0.21748138599E+02  0.19233754960E+03  0.12509219547E+03 0.  0.
          5    1    3    3  502    0 -0.23507298260E+02 -0.25215402935E+02 -0.52454953984E+02  0.62907902637E+02  0.41800000000E+01 0. -1.
         -5    1    3    3    0  502 -0.12061703811E+03  0.35258796318E+02  0.30706815386E+02  0.12942964696E+03  0.41800000000E+01 0. -1.
        -11    1    1    2    0    0  0.69050173914E+02  0.10208932012E+02 -0.11174596463E+03  0.13175473206E+03  0.00000000000E+00 0.  1.
         11    1    1    2    0    0  0.75074162458E+02 -0.20252325395E+02 -0.14420023913E+02  0.79083649652E+02  0.00000000000E+00 0. -1.
</event>
<event>
 7    1  0.2651429E-009  0.5217228E+02  0.7561462E-02  0.1433965E+00
          4   -1    0    0  501    0  0.00000000000E+00  0.00000000000E+00  0.27888770827E+03  0.27888770827E+03  0.00000000000E+00 0. -1.
         -4   -1    0    0    0  501 -0.00000000000E+00 -0.00000000000E+00 -0.42268035651E+02  0.42268035651E+02  0.00000000000E+00 0.  1.
         25    2    1    2    0    0  0.77550071523E+01 -0.66593585886E+01  0.14378245167E+03  0.19085407393E+03  0.12508955565E+03 0.  0.
          5    1    3    3  502    0  0.12965874960E+02 -0.14886648081E+02  0.16548044816E+03  0.16670626062E+03  0.41800000000E+01 0. -1.
         -5    1    3    3    0  502 -0.52108678081E+01  0.82272894922E+01 -0.21697996494E+02  0.24147813308E+02  0.41800000000E+01 0. -1.
        -11    1    1    2    0    0 -0.39304608341E+02  0.12977334861E+02  0.11693924356E+02  0.43011757971E+02  0.00000000000E+00 0.  1.
         11    1    1    2    0    0  0.31549601188E+02 -0.63179762724E+01  0.81143296592E+02  0.87289912024E+02  0.00000000000E+00 0. -1.
</event>
<event>
 7    1  0.2651429E-009  0.1068610E+03  0.7561462E-02  0.1266496E+00
         -1   -1    0    0    0  501 -0.00000000000E+00  0.00000000000E+00  0.10329996351E+03  0.10329996351E+03  0.00000000000E+00 0.  1.
          1   -1    0    0  501    0  0.00000000000E+00 -0.00000000000E+00 -0.16479334661E+03  0.16479334661E+03  0.00000000000E+00 0. -1.
         25    2    1    2    0    0  0.39207080263E+01  0.69045906617E+02 -0.61763845512E+02  0.15571124165E+03  0.12509400062E+03 0.  0.
          5    1    3    3  502    0  0.70319792247E+01 -0.19275551042E+02  0.24440423888E+02  0.32183882917E+02  0.41800000000E+01 0.  1.
         -5    1    3    3    0  502 -0.31112711984E+01  0.88321457659E+02 -0.86204269400E+02  0.12352735873E+03  0.41800000000E+01 0.  1.
        -11    1    1    2    0    0 -0.37399050793E+02 -0.58078657701E+02  0.20116192951E+02  0.71947763686E+02  0.00000000000E+00 0.  1.
         11    1    1    2    0    0  0.33478342767E+02 -0.10967248917E+02 -0.19845730537E+02  0.40434304789E+02  0.00000000000E+00 0. -1.
</event>
<event>
 7    1  0.2651429E-009  0.3499790E+03  0.7561462E-02  0.1062624E+00
         -2   -1    0    0    0  501 -0.00000000000E+00  0.00000000000E+00  0.57352233463E+02  0.57352233463E+02  0.00000000000E+00 0.  1.
          2   -1    0    0  501    0  0.00000000000E+00 -0.00000000000E+00 -0.23662712089E+04  0.23662712089E+04  0.00000000000E+00 0. -1.
         25    2    1    2    0    0 -0.29525502591E+03 -0.15911780223E+03 -0.80722696596E+03  0.88303914160E+03  0.12509494683E+03 0.  0.
          5    1    3    3  502    0 -0.24338409168E+02 -0.64542626826E+02 -0.19514928746E+03  0.20702373205E+03  0.41800000000E+01 0. -1.
         -5    1    3    3    0  502 -0.27091661674E+03 -0.94575175406E+02 -0.61207767850E+03  0.67601540955E+03  0.41800000000E+01 0. -1.
        -11    1    1    2    0    0  0.17409472486E+03  0.13507255742E+03 -0.98051261797E+03  0.10049669462E+04  0.00000000000E+00 0.  1.
         11    1    1    2    0    0  0.12116030105E+03  0.24045244813E+02 -0.52117939146E+03  0.53561735449E+03  0.00000000000E+00 0. -1.
</event>
<event>
 7    1  0.2651429E-009  0.7496546E+02  0.7561462E-02  0.1343978E+00
          1   -1    0    0  501    0  0.00000000000E+00  0.00000000000E+00  0.25912890863E+03  0.25912890863E+03  0.00000000000E+00 0. -1.
         -1   -1    0    0    0  501 -0.00000000000E+00 -0.00000000000E+00 -0.73594079675E+02  0.73594079675E+02  0.00000000000E+00 0.  1.
         25    2    1    2    0    0  0.33516819083E+02 -0.33431833312E+02  0.18868923547E+03  0.23128550022E+03  0.12509312688E+03 0.  0.
          5    1    3    3  502    0  0.15262432013E+02 -0.97806586999E+01  0.19864771556E+03  0.19951689255E+03  0.41800000000E+01 0.  1.
         -5    1    3    3    0  502  0.18254387070E+02 -0.23651174612E+02 -0.99584800905E+01  0.31768607674E+02  0.41800000000E+01 0.  1.
        -11    1    1    2    0    0 -0.31232815045E+02  0.63626796124E+02  0.90792033144E+00  0.70884993052E+02  0.00000000000E+00 0. -1.
         11    1    1    2    0    0 -0.22840040378E+01 -0.30194962811E+02 -0.40623268382E+01  0.30552495037E+02  0.00000000000E+00 0.  1.
</event>
<event>
 7    1  0.2651429E-009  0.9230679E+02  0.7561462E-02  0.1297360E+00
         -4   -1    0    0    0  501 -0.00000000000E+00  0.00000000000E+00  0.33577342068E+03  0.33577342068E+03  0.00000000000E+00 0.  1.
          4   -1    0    0  501    0  0.00000000000E+00 -0.00000000000E+00 -0.41820107144E+02  0.41820107144E+02  0.00000000000E+00 0. -1.
         25    2    1    2    0    0 -0.99786326768E+01 -0.46137157572E+02  0.17166525978E+03  0.21758819300E+03  0.12508976737E+03 0.  0.
          5    1    3    3  502    0 -0.43452188654E+02  0.14244926395E+02  0.18453249615E+02  0.49487427172E+02  0.41800000000E+01 0.  1.
         -5    1    3    3    0  502  0.33473555977E+02 -0.60382083967E+02  0.15321201016E+03  0.16810076583E+03  0.41800000000E+01 0.  1.
        -11    1    1    2    0    0 -0.21018736428E+02  0.18584810720E+02 -0.28241353691E+01  0.28198549805E+02  0.00000000000E+00 0. -1.
         11    1    1    2    0    0  0.30997369105E+02  0.27552346852E+02  0.12511218913E+03  0.13180678502E+03  0.00000000000E+00 0.  1.
</event>
<event>
 7    1  0.2651429E-009  0.1110396E+03  0.7561462E-02  0.1258657E+00
         -2   -1    0    0    0  501 -0.00000000000E+00  0.00000000000E+00  0.96673055919E+01  0.96673055919E+01  0.00000000000E+00 0.  1.
          2   -1    0    0  501    0  0.00000000000E+00 -0.00000000000E+00 -0.16917097950E+04  0.16917097950E+04  0.00000000000E+00 0. -1.
         25    2    1    2    0    0  0.78406916223E+01 -0.36424471393E+02 -0.13019666368E+04  0.13084920498E+04  0.12508438143E+03 0.  0.
          5    1    3    3  502    0  0.60680427030E+02 -0.36718156037E+02 -0.93788028782E+03  0.94056751161E+03  0.41800000000E+01 0. -1.
         -5    1    3    3    0  502 -0.52839735408E+02  0.29368464379E+00 -0.36408634898E+03  0.36792453819E+03  0.41800000000E+01 0. -1.
        -11    1    1    2    0    0  0.41299057634E+02  0.22100990378E+02 -0.21556791418E+03  0.22059825829E+03  0.00000000000E+00 0. -1.
         11    1    1    2    0    0 -0.49139749257E+02  0.14323481015E+02 -0.16450793840E+03  0.17228679248E+03  0.00000000000E+00 0.  1.
</event>
<event>
 7    1  0.2651429E-009  0.4007743E+03  0.7561462E-02  0.1043512E+00
          2   -1    0    0  501    0  0.00000000000E+00  0.00000000000E+00  0.19756489087E+04  0.19756489087E+04  0.00000000000E+00 0. -1.
         -2   -1    0    0    0  501 -0.00000000000E+00 -0.00000000000E+00 -0.93346118465E+02  0.93346118465E+02  0.00000000000E+00 0.  1.
         25    2    1    2    0    0  0.23940878992E+03  0.31501848506E+03  0.66186651448E+03  0.78119625483E+03  0.12508833259E+03 0.  0.
          5    1    3    3  502    0  0.22001581328E+03  0.31630502659E+03  0.65542365352E+03  0.76029827432E+03  0.41800000000E+01 0. -1.
         -5    1    3    3    0  502  0.19392976639E+02 -0.12865415343E+01  0.64428609621E+01  0.20897980510E+02  0.41800000000E+01 0. -1.
        -11    1    1    2    0    0 -0.12028791450E+03 -0.17736487521E+03  0.82655244637E+03  0.85388314654E+03  0.00000000000E+00 0. -1.
         11    1    1    2    0    0 -0.11912087541E+03 -0.13765360985E+03  0.39388382937E+03  0.43391562579E+03  0.00000000000E+00 0.  1.
</event>
<event>
 7    1  0.2651429E-009  0.1893007E+03  0.7561462E-02  0.1159094E+00
          1   -1    0    0  501    0  0.00000000000E+00  0.00000000000E+00  0.63151612039E+03  0.63151612039E+03  0.00000000000E+00 0. -1.
         -1   -1    0    0    0  501 -0.00000000000E+00 -0.00000000000E+00 -0.68057030745E+02  0.68057030745E+02  0.00000000000E+00 0.  1.
         25    2    1    2    0    0  0.11666080663E+03  0.13282759057E+03  0.29273595261E+03  0.36413492567E+03  0.12508794314E+03 0.  0.
          5    1    3    3  502    0  0.66276516431E+02  0.41041332184E+02  0.22792279573E+03  0.24092164865E+03  0.41800000000E+01 0.  1.
         -5    1    3    3    0  502  0.50384290199E+02  0.91786258383E+02  0.64813156885E+02  0.12321327701E+03  0.41800000000E+01 0.  1.
        -11    1    1    2    0    0 -0.11192550190E+03 -0.68457314876E+02  0.15630930838E+03  0.20407430466E+03  0.00000000000E+00 0.  1.
         11    1    1    2    0    0 -0.47353047277E+01 -0.64370275690E+02  0.11441382865E+03  0.13136392081E+03  0.00000000000E+00 0. -1.
</event>
<event>
 7    1  0.3061122E-009  0.1597125E+03  0.7561462E-02  0.1189022E+00
         -2   -1    0    0    0  501 -0.00000000000E+00  0.00000000000E+00  0.33550046304E+03  0.33550046304E+03  0.00000000000E+00 0. -1.
          2   -1    0    0  501    0  0.00000000000E+00 -0.00000000000E+00 -0.10555929028E+03  0.10555929028E+03  0.00000000000E+00 0.  1.
         25    2    1    2    0    0  0.73291049217E+02  0.95307097464E+02  0.92785139678E+01  0.17374882902E+03  0.12509014367E+03 0.  0.
          5    1    3    3  502    0 -0.19377593776E+01 -0.28275865422E+02 -0.78636893836E+00  0.28659557793E+02  0.41800000000E+01 0.  1.
         -5    1    3    3    0  502  0.75228808594E+02  0.12358296289E+03  0.10064882906E+02  0.14508927123E+03  0.41800000000E+01 0.  1.
        -11    1    1    2    0    0 -0.73708485958E+02 -0.28185709040E+02  0.15215013513E+03  0.17139731245E+03  0.00000000000E+00 0. -1.
         11    1    1    2    0    0  0.41743674100E+00 -0.67121388423E+02  0.68512523661E+02  0.95913611837E+02  0.00000000000E+00 0.  1.
</event>
<event>
 7    1  0.4382803E-009  0.2278519E+03  0.7561462E-02  0.1128161E+00
         -2   -1    0    0    0  501 -0.00000000000E+00  0.00000000000E+00  0.37023376901E+02  0.37023376901E+02  0.00000000000E+00 0.  1.
          2   -1    0    0  501    0  0.00000000000E+00 -0.00000000000E+00 -0.16167888826E+04  0.16167888826E+04  0.00000000000E+00 0. -1.
         25    2    1    2    0    0 -0.62081279547E+02 -0.20981860454E+03 -0.83294653510E+03  0.87024468403E+03  0.12509175699E+03 0.  0.
          5    1    3    3  502    0  0.23015856936E+02 -0.55829704415E+02 -0.37109194948E+03  0.37599653314E+03  0.41800000000E+01 0.  1.
         -5    1    3    3    0  502 -0.85097136482E+02 -0.15398890013E+03 -0.46185458562E+03  0.49424815089E+03  0.41800000000E+01 0.  1.
        -11    1    1    2    0    0  0.31069603074E+02  0.12712596246E+03 -0.28818042462E+03  0.31650321910E+03  0.00000000000E+00 0.  1.
         11    1    1    2    0    0  0.31011676472E+02  0.82692642090E+02 -0.45863854596E+03  0.46706435635E+03  0.00000000000E+00 0. -1.
</event>
<event>
 7    1  0.2651429E-009  0.9048481E+02  0.7561462E-02  0.1301682E+00
          2   -1    0    0  501    0  0.00000000000E+00  0.00000000000E+00  0.49127097570E+03  0.49127097570E+03  0.00000000000E+00 0. -1.
         -2   -1    0    0    0  501 -0.00000000000E+00 -0.00000000000E+00 -0.27185464104E+02  0.27185464104E+02  0.00000000000E+00 0.  1.
         25    2    1    2    0    0  0.13237024506E+02 -0.30210215201E+01  0.17032327082E+03  0.21175887611E+03  0.12508980629E+03 0.  0.
          5    1    3    3  502    0 -0.34550712841E+02 -0.31064534709E+02  0.14184691634E+03  0.14932105394E+03  0.41800000000E+01 0. -1.
         -5    1    3    3    0  502  0.47787737346E+02  0.28043513189E+02  0.28476354484E+02  0.62437822170E+02  0.41800000000E+01 0. -1.
        -11    1    1    2    0    0  0.31902284490E+02 -0.66545037345E+01  0.58649701218E+02  0.67095645377E+02  0.00000000000E+00 0. -1.
         11    1    1    2    0    0 -0.45139308996E+02  0.96755252546E+01  0.23511253955E+03  0.23960191831E+03  0.00000000000E+00 0.  1.
</event>
<event>
 7    1  0.2651429E-009  0.1012709E+03  0.7561462E-02  0.1277646E+00
          2   -1    0    0  501    0  0.00000000000E+00  0.00000000000E+00  0.31299849275E+03  0.31299849275E+03  0.00000000000E+00 0. -1.
         -2   -1    0    0    0  501 -0.00000000000E+00 -0.00000000000E+00 -0.45118797480E+02  0.45118797480E+02  0.00000000000E+00 0.  1.
         25    2    1    2    0    0 -0.43685835885E+02  0.19311393866E+02  0.13404287806E+03  0.18946567165E+03  0.12509342661E+03 0.  0.
          5    1    3    3  502    0 -0.35880634141E+02  0.53981478726E+02  0.17093541208E+02  0.67164585184E+02  0.41800000000E+01 0. -1.
         -5    1    3    3    0  502 -0.78052017442E+01 -0.34670084861E+02  0.11694933686E+03  0.12230108646E+03  0.41800000000E+01 0. -1.
        -11    1    1    2    0    0  0.61004229888E+02 -0.41408851343E+02  0.86954211348E+02  0.11400545559E+03  0.00000000000E+00 0.  1.
         11    1    1    2    0    0 -0.17318394002E+02  0.22097457478E+02  0.46882605861E+02  0.54646162995E+02  0.00000000000E+00 0. -1.
</event>
<event>
 7    1  0.2651429E-009  0.1215135E+03  0.7561462E-02  0.1240621E+00
          1   -1    0    0  501    0  0.00000000000E+00  0.00000000000E+00  0.20700454577E+03  0.20700454577E+03  0.00000000000E+00 0. -1.
         -1   -1    0    0    0  501 -0.00000000000E+00 -0.00000000000E+00 -0.96028585169E+02  0.96028585169E+02  0.00000000000E+00 0.  1.
         25    2    1    2    0    0  0.62151959093E+02 -0.35144570180E+02  0.39221419607E-01  0.14403574668E+03  0.12509311712E+03 0.  0.
          5    1    3    3  502    0  0.98441475216E+02 -0.41181750240E+02  0.35150998817E+01  0.10684797107E+03  0.41800000000E+01 0. -1.
         -5    1    3    3    0  502 -0.36289516123E+02  0.60371800597E+01 -0.34758784621E+01  0.37187775607E+02  0.41800000000E+01 0. -1.
        -11    1    1    2    0    0 -0.19571185632E+02 -0.21026710266E+02  0.74084470214E+02  0.79458558876E+02  0.00000000000E+00 0. -1.
         11    1    1    2    0    0 -0.42580773461E+02  0.56171280446E+02  0.36852268972E+02  0.79538825386E+02  0.00000000000E+00 0.  1.
</event>
<event>
 7    1  0.2651429E-009  0.1316275E+03  0.7561462E-02  0.1225061E+00
         -2   -1    0    0    0  501 -0.00000000000E+00  0.00000000000E+00  0.99290105310E+02  0.99290105310E+02  0.00000000000E+00 0.  1.
          2   -1    0    0  501    0  0.00000000000E+00 -0.00000000000E+00 -0.23388887709E+03  0.23388887709E+03  0.00000000000E+00 0. -1.
         25    2    1    2    0    0  0.10634949572E+02 -0.10265873576E+03 -0.89139196148E+02  0.18505555712E+03  0.12509134562E+03 0.  0.
          5    1    3    3  502    0  0.64386896264E+01 -0.11975015648E+03 -0.10616191058E+03  0.16021666692E+03  0.41800000000E+01 0.  1.
         -5    1    3    3    0  502  0.41962599460E+01  0.17091420720E+02  0.17022714429E+02  0.24838890199E+02  0.41800000000E+01 0.  1.
        -11    1    1    2    0    0 -0.24449004609E+02  0.30847168469E+01 -0.40581270077E+02  0.47477455549E+02  0.00000000000E+00 0. -1.
         11    1    1    2    0    0  0.13814055037E+02  0.99574018913E+02 -0.48783055595E+01  0.10064596974E+03  0.00000000000E+00 0.  1.
</event>
<event>
 7    1  0.2651429E-009  0.2078525E+03  0.7561462E-02  0.1143278E+00
         -3   -1    0    0    0  501 -0.00000000000E+00  0.00000000000E+00  0.24309289404E+03  0.24309289404E+03  0.00000000000E+00 0.  1.
          3   -1    0    0  501    0  0.00000000000E+00 -0.00000000000E+00 -0.24789440511E+03  0.24789440511E+03  0.00000000000E+00 0. -1.
         25    2    1    2    0    0 -0.13963391587E+03  0.13154249683E+03 -0.11103968027E+03  0.25451548408E+03  0.12508901672E+03 0.  0.
          5    1    3    3  502    0 -0.13675902358E+03  0.70529332032E+02 -0.11650255219E+03  0.19304852829E+03  0.41800000000E+01 0. -1.
         -5    1    3    3    0  502 -0.28748922970E+01  0.61013164799E+02  0.54628719174E+01  0.61466955790E+02  0.41800000000E+01 0. -1.
        -11    1    1    2    0    0  0.79118937871E+02 -0.11166584820E+03  0.35706213408E+02  0.14143550353E+03  0.00000000000E+00 0. -1.
         11    1    1    2    0    0  0.60514978003E+02 -0.19876648634E+02  0.70531955788E+02  0.95036311539E+02  0.00000000000E+00 0.  1.
</event>
<event>
 7    1  0.2651429E-009  0.1163541E+03  0.7561462E-02  0.1249236E+00
          2   -1    0    0  501    0  0.00000000000E+00  0.00000000000E+00  0.80403571178E+03  0.80403571178E+03  0.00000000000E+00 0. -1.
         -2   -1    0    0    0  501 -0.00000000000E+00 -0.00000000000E+00 -0.21940889427E+02  0.21940889427E+02  0.00000000000E+00 0.  1.
         25    2    1    2    0    0  0.70412115517E+02  0.29959106088E+02  0.40623030478E+03  0.43188719700E+03  0.12509227141E+03 0.  0.
          5    1    3    3  502    0 -0.27160104362E+02  0.12982126116E+02  0.20847548406E+03  0.21067915588E+03  0.41800000000E+01 0. -1.
         -5    1    3    3    0  502  0.97572219879E+02  0.16976979972E+02  0.19775482072E+03  0.22120804112E+03  0.41800000000E+01 0. -1.
        -11    1    1    2    0    0 -0.29509465866E+02 -0.49678328724E+02  0.10879537746E+03  0.12318757679E+03  0.00000000000E+00 0.  1.
         11    1    1    2    0    0 -0.40902649651E+02  0.19719222636E+02  0.26706914012E+03  0.27090182741E+03  0.00000000000E+00 0. -1.
</event>
<event>
 7    1  0.2651429E-009  0.1323320E+03  0.7561462E-02  0.1224036E+00
         -2   -1    0    0    0  501 -0.00000000000E+00  0.00000000000E+00  0.35660933709E+02  0.35660933709E+02  0.00000000000E+00 0. -1.
          2   -1    0    0  501    0  0.00000000000E+00 -0.00000000000E+00 -0.68215708170E+03  0.68215708170E+03  0.00000000000E+00 0.  1.
         25    2    1    2    0    0  0.39922192978E+02 -0.74505981108E+02 -0.17912745626E+03  0.23424267920E+03  0.12505224692E+03 0.  0.
          5    1    3    3  502    0 -0.35230042514E+02  0.27955993456E+01 -0.80702016879E+02  0.88200108841E+02  0.41800000000E+01 0.  1.
         -5    1    3    3    0  502  0.75152235492E+02 -0.77301580453E+02 -0.98425439379E+02  0.14604257036E+03  0.41800000000E+01 0.  1.
        -11    1    1    2    0    0 -0.60963785961E+02  0.22329307338E+02 -0.30195662564E+03  0.30885754797E+03  0.00000000000E+00 0.  1.
         11    1    1    2    0    0  0.21041592984E+02  0.52176673770E+02 -0.16541206608E+03  0.17471778824E+03  0.00000000000E+00 0. -1.
</event>
<event>
 7    1  0.2651429E-009  0.1098986E+03  0.7561462E-02  0.1260758E+00
          1   -1    0    0  501    0  0.00000000000E+00  0.00000000000E+00  0.45123326759E+03  0.45123326759E+03  0.00000000000E+00 0. -1.
         -1   -1    0    0    0  501 -0.00000000000E+00 -0.00000000000E+00 -0.31959396439E+02  0.31959396439E+02  0.00000000000E+00 0.  1.
         25    2    1    2    0    0  0.12055370361E+02  0.49404034631E+02  0.26324889108E+03  0.29586051589E+03  0.12508947045E+03 0.  0.
          5    1    3    3  502    0 -0.54693987438E+02  0.68692152427E+01  0.95953293487E+02  0.11073899634E+03  0.41800000000E+01 0.  1.
         -5    1    3    3    0  502  0.66749357799E+02  0.42534819389E+02  0.16729559759E+03  0.18512151955E+03  0.41800000000E+01 0.  1.
        -11    1    1    2    0    0 -0.36637528258E+02 -0.86236101724E+01  0.12489388352E+03  0.13044216063E+03  0.00000000000E+00 0. -1.
         11    1    1    2    0    0  0.24582157897E+02 -0.40780424459E+02  0.31131096555E+02  0.56889987508E+02  0.00000000000E+00 0.  1.
</event>
<event>
 7    1  0.2651429E-009  0.1161710E+03  0.7561462E-02  0.1249551E+00
          2   -1    0    0  501    0  0.00000000000E+00  0.00000000000E+00  0.17668037500E+04  0.17668037500E+04  0.00000000000E+00 0. -1.
         -2   -1    0    0    0  501 -0.00000000000E+00 -0.00000000000E+00 -0.11078890535E+02  0.11078890535E+02  0.00000000000E+00 0.  1.
         25    2    1    2    0    0  0.73219114384E+02  0.11592738925E+02  0.12709755612E+04  0.12792656487E+04  0.12508514001E+03 0.  0.
          5    1    3    3  502    0  0.85684065075E+02 -0.19744003043E+02  0.11566855626E+04  0.11600304082E+04  0.41800000000E+01 0. -1.
         -5    1    3    3    0  502 -0.12464950691E+02  0.31336741968E+02  0.11428999859E+03  0.11923524047E+03  0.41800000000E+01 0. -1.
        -11    1    1    2    0    0 -0.70323765724E+02  0.24237501945E+02  0.39488614943E+03  0.40183075982E+03  0.00000000000E+00 0. -1.
         11    1    1    2    0    0 -0.28953486595E+01 -0.35830240869E+02  0.89863148777E+02  0.96786232041E+02  0.00000000000E+00 0.  1.
</event>
<event>
 7    1  0.2651429E-009  0.1146010E+03  0.7561462E-02  0.1252279E+00
          2   -1    0    0  501    0  0.00000000000E+00  0.00000000000E+00  0.27009696726E+04  0.27009696726E+04  0.00000000000E+00 0.  1.
         -2   -1    0    0    0  501 -0.00000000000E+00 -0.00000000000E+00 -0.27981307169E+02  0.27981307169E+02  0.00000000000E+00 0. -1.
         25    2    1    2    0    0  0.13438524705E+01  0.11083271357E+03  0.24921835463E+04  0.24977812996E+04  0.12508755265E+03 0.  0.
          5    1    3    3  502    0  0.18920567062E+02  0.78697376440E+02  0.23320893494E+04  0.23334972619E+04  0.41800000000E+01 0. -1.
         -5    1    3    3    0  502 -0.17576714591E+02  0.32135337128E+02  0.16009419686E+03  0.16428403774E+03  0.41800000000E+01 0. -1.
        -11    1    1    2    0    0 -0.56765553108E+01 -0.68280517597E+02  0.30681443588E+02  0.75071987746E+02  0.00000000000E+00 0. -1.
         11    1    1    2    0    0  0.43327028403E+01 -0.42552195970E+02  0.15012337551E+03  0.15609769239E+03  0.00000000000E+00 0.  1.
</event>
<event>
 7    1  0.2651429E-009  0.1028067E+03  0.7561462E-02  0.1274502E+00
         -1   -1    0    0    0  501 -0.00000000000E+00  0.00000000000E+00  0.56570567354E+02  0.56570567354E+02  0.00000000000E+00 0.  1.
          1   -1    0    0  501    0  0.00000000000E+00 -0.00000000000E+00 -0.29190108746E+03  0.29190108746E+03  0.00000000000E+00 0. -1.
         25    2    1    2    0    0 -0.77785908041E+01 -0.55348411719E+02 -0.77435160903E+02  0.15737580566E+03  0.12508791671E+03 0.  0.
          5    1    3    3  502    0 -0.93905672961E-01 -0.77623420283E+02 -0.98510178482E+02  0.12548757651E+03  0.41800000000E+01 0.  1.
         -5    1    3    3    0  502 -0.76846851311E+01  0.22275008564E+02  0.21075017579E+02  0.31888229146E+02  0.41800000000E+01 0.  1.
        -11    1    1    2    0    0  0.47867097432E+02  0.31460301347E+02 -0.11116427515E+03  0.12505401092E+03  0.00000000000E+00 0.  1.
         11    1    1    2    0    0 -0.40088506628E+02  0.23888110372E+02 -0.46731084053E+02  0.66041838236E+02  0.00000000000E+00 0. -1.
</event>
<event>
 7    1  0.2651429E-009  0.1058693E+03  0.7561462E-02  0.1268416E+00
         -2   -1    0    0    0  501 -0.00000000000E+00  0.00000000000E+00  0.54082513675E+02  0.54082513675E+02  0.00000000000E+00 0.  1.
          2   -1    0    0  501    0  0.00000000000E+00 -0.00000000000E+00 -0.33668458295E+03  0.33668458295E+03  0.00000000000E+00 0. -1.
         25    2    1    2    0    0  0.66017777625E+02  0.36143106303E+02 -0.18887432720E+03  0.23871709814E+03  0.12509064863E+03 0.  0.
          5    1    3    3  502    0  0.78178035992E+02 -0.13288772398E+02 -0.58313098289E+02  0.98520488303E+02  0.41800000000E+01 0. -1.
         -5    1    3    3    0  502 -0.12160258367E+02  0.49431878701E+02 -0.13056122891E+03  0.14019660984E+03  0.41800000000E+01 0. -1.
        -11    1    1    2    0    0 -0.12411697768E+02 -0.22880052999E+02  0.15043029837E+02  0.30063928775E+02  0.00000000000E+00 0.  1.
         11    1    1    2    0    0 -0.53606079857E+02 -0.13263053304E+02 -0.10877077191E+03  0.12198606970E+03  0.00000000000E+00 0. -1.
</event>
<event>
 7    1  0.2651429E-009  0.9945191E+02  0.7561462E-02  0.1281453E+00
         -1   -1    0    0    0  501 -0.00000000000E+00  0.00000000000E+00  0.58529278675E+02  0.58529278675E+02  0.00000000000E+00 0.  1.
          1   -1    0    0  501    0  0.00000000000E+00 -0.00000000000E+00 -0.24734791840E+03  0.24734791840E+03  0.00000000000E+00 0. -1.
         25    2    1    2    0    0 -0.41661473053E+02  0.18634976013E+02 -0.13042702755E+03  0.18639199629E+03  0.12509127107E+03 0.  0.
          5    1    3    3  502    0 -0.63605122821E+02  0.31921201336E+02 -0.21577457367E+02  0.74482439610E+02  0.41800000000E+01 0. -1.
         -5    1    3    3    0  502  0.21943649768E+02 -0.13286225323E+02 -0.10884957018E+03  0.11190955668E+03  0.41800000000E+01 0. -1.
        -11    1    1    2    0    0  0.23297753849E+02  0.36617254778E+02 -0.11971552288E+02  0.45021403200E+02  0.00000000000E+00 0.  1.
         11    1    1    2    0    0  0.18363719204E+02 -0.55252230791E+02 -0.46420059893E+02  0.74463797586E+02  0.00000000000E+00 0. -1.
</event>
<event>
 7    1  0.2651429E-009  0.1074483E+03  0.7561462E-02  0.1265370E+00
         -1   -1    0    0    0  501 -0.00000000000E+00  0.00000000000E+00  0.24297982276E+02  0.24297982276E+02  0.00000000000E+00 0.  1.
          1   -1    0    0  501    0  0.00000000000E+00 -0.00000000000E+00 -0.81946302438E+03  0.81946302438E+03  0.00000000000E+00 0. -1.
         25    2    1    2    0    0 -0.78379621979E+02  0.44361162121E+02 -0.46792517035E+03  0.49266089053E+03  0.12509800222E+03 0.  0.
          5    1    3    3  502    0 -0.17216897277E+02 -0.15028649396E+02 -0.32754695176E+03  0.32836985225E+03  0.41800000000E+01 0. -1.
         -5    1    3    3    0  502 -0.61162724702E+02  0.59389811517E+02 -0.14037821859E+03  0.16429103828E+03  0.41800000000E+01 0. -1.
        -11    1    1    2    0    0 -0.34009793886E+01 -0.20976638900E+02 -0.11620703280E+02  0.24220379540E+02  0.00000000000E+00 0.  1.
         11    1    1    2    0    0  0.81780601367E+02 -0.23384523220E+02 -0.31561916847E+03  0.32687973659E+03  0.00000000000E+00 0. -1.
</event>
<event>
 7    1  0.2651429E-009  0.7669506E+02  0.7561462E-02  0.1338701E+00
         -2   -1    0    0    0  501 -0.00000000000E+00  0.00000000000E+00  0.72941998399E+02  0.72941998399E+02  0.00000000000E+00 0.  1.
          2   -1    0    0  501    0  0.00000000000E+00 -0.00000000000E+00 -0.28939059904E+03  0.28939059904E+03  0.00000000000E+00 0. -1.
         25    2    1    2    0    0  0.35532080638E+02 -0.19556095093E+02 -0.19671668236E+02  0.13296343322E+03  0.12508928984E+03 0.  0.
          5    1    3    3  502    0 -0.78545306506E+01 -0.32818427249E+02  0.43414480397E+02  0.55145555822E+02  0.41800000000E+01 0.  1.
         -5    1    3    3    0  502  0.43386611289E+02  0.13262332157E+02 -0.63086148632E+02  0.77817877397E+02  0.41800000000E+01 0.  1.
        -11    1    1    2    0    0  0.42004900401E+01 -0.18402724230E+02  0.55803707415E+01  0.19683620431E+02  0.00000000000E+00 0.  1.
         11    1    1    2    0    0 -0.39732570678E+02  0.37958819323E+02 -0.20235730315E+03  0.20968554379E+03  0.00000000000E+00 0. -1.
</event>
<event>
 7    1  0.2651429E-009  0.1201776E+03  0.7561462E-02  0.1242804E+00
         -1   -1    0    0    0  501 -0.00000000000E+00  0.00000000000E+00  0.23147306847E+03  0.23147306847E+03  0.00000000000E+00 0.  1.
          1   -1    0    0  501    0  0.00000000000E+00 -0.00000000000E+00 -0.78355593576E+02  0.78355593576E+02  0.00000000000E+00 0. -1.
         25    2    1    2    0    0  0.40184191084E+02  0.56498425714E+02  0.40678307642E+02  0.14869367945E+03  0.12509294255E+03 0.  0.
          5    1    3    3  502    0  0.56387627091E+02  0.82070482666E+02  0.23724170774E+01  0.99690668454E+02  0.41800000000E+01 0.  1.
         -5    1    3    3    0  502 -0.16203436006E+02 -0.25572056952E+02  0.38305890565E+02  0.49003011001E+02  0.41800000000E+01 0.  1.
        -11    1    1    2    0    0  0.26300906338E+02 -0.26009148227E+02  0.16521651219E+02  0.40511460412E+02  0.00000000000E+00 0. -1.
         11    1    1    2    0    0 -0.66485097423E+02 -0.30489277488E+02  0.95917516032E+02  0.12062352218E+03  0.00000000000E+00 0.  1.
</event>
<event>
 7    1  0.2651429E-009  0.1593239E+03  0.7561462E-02  0.1189462E+00
         -2   -1    0    0    0  501 -0.00000000000E+00  0.00000000000E+00  0.39938143704E+02  0.39938143704E+02  0.00000000000E+00 0.  1.
          2   -1    0    0  501    0  0.00000000000E+00 -0.00000000000E+00 -0.67982942376E+03  0.67982942376E+03  0.00000000000E+00 0. -1.
         25    2    1    2    0    0 -0.11420446398E+03  0.32391498071E+02 -0.41861853910E+03  0.45274844809E+03  0.12509119565E+03 0.  0.
          5    1    3    3  502    0 -0.11664210642E+03  0.68383524942E+02 -0.34732805072E+03  0.37274110947E+03  0.41800000000E+01 0. -1.
         -5    1    3    3    0  502  0.24376424449E+01 -0.35992026871E+02 -0.71290488381E+02  0.80007338617E+02  0.41800000000E+01 0. -1.
        -11    1    1    2    0    0  0.28537550239E+02  0.29750912071E+02 -0.85067678116E+02  0.94530515723E+02  0.00000000000E+00 0. -1.
         11    1    1    2    0    0  0.85666913736E+02 -0.62142410141E+02 -0.13620506284E+03  0.17248860365E+03  0.00000000000E+00 0.  1.
</event>
<event>
 7    1  0.2651429E-009  0.9967406E+02  0.7561462E-02  0.1280983E+00
         -1   -1    0    0    0  501 -0.00000000000E+00  0.00000000000E+00  0.15523429178E+02  0.15523429178E+02  0.00000000000E+00 0.  1.
          1   -1    0    0  501    0  0.00000000000E+00 -0.00000000000E+00 -0.16128554738E+04  0.16128554738E+04  0.00000000000E+00 0. -1.
         25    2    1    2    0    0  0.24222066159E+02  0.62374507119E+02 -0.13442437850E+04  0.13517096217E+04  0.12510099992E+03 0.  0.
          5    1    3    3  502    0 -0.17960718584E+02  0.69136085431E+01 -0.31757876235E+02  0.37368710148E+02  0.41800000000E+01 0. -1.
         -5    1    3    3    0  502  0.42182784744E+02  0.55460898576E+02 -0.13124859088E+04  0.13143409115E+04  0.41800000000E+01 0. -1.
        -11    1    1    2    0    0  0.25708065073E+02 -0.53195620301E+02 -0.16125570275E+03  0.17173840659E+03  0.00000000000E+00 0. -1.
         11    1    1    2    0    0 -0.49930131232E+02 -0.91788868182E+01 -0.91832556921E+02  0.10493087476E+03  0.00000000000E+00 0.  1.
</event>
<event>
 7    1  0.2651429E-009  0.2603030E+03  0.7561462E-02  0.1106961E+00
         -1   -1    0    0    0  501 -0.00000000000E+00  0.00000000000E+00  0.10039159405E+03  0.10039159405E+03  0.00000000000E+00 0.  1.
          1   -1    0    0  501    0  0.00000000000E+00 -0.00000000000E+00 -0.73498135739E+03  0.73498135739E+03  0.00000000000E+00 0. -1.
         25    2    1    2    0    0 -0.24237523001E+03  0.17044141149E+01 -0.24462614287E+03  0.36638829346E+03  0.12509905938E+03 0.  0.
          5    1    3    3  502    0 -0.67188873219E+02  0.43757371664E+02 -0.28991051812E+02  0.85363960455E+02  0.41800000000E+01 0.  1.
         -5    1    3    3    0  502 -0.17518635679E+03 -0.42052957549E+02 -0.21563509106E+03  0.28102433300E+03  0.41800000000E+01 0.  1.
        -11    1    1    2    0    0  0.17426752310E+03 -0.44252847213E+02 -0.28168078542E+03  0.33417293273E+03  0.00000000000E+00 0. -1.
         11    1    1    2    0    0  0.68107706908E+02  0.42548433099E+02 -0.10828283505E+03  0.13481172525E+03  0.00000000000E+00 0.  1.
</event>
<event>
 7    1  0.2651429E-009  0.1834478E+03  0.7561462E-02  0.1164507E+00
         -2   -1    0    0    0  501 -0.00000000000E+00  0.00000000000E+00  0.47372789743E+02  0.47372789743E+02  0.00000000000E+00 0. -1.
          2   -1    0    0  501    0  0.00000000000E+00 -0.00000000000E+00 -0.93817289467E+03  0.93817289467E+03  0.00000000000E+00 0.  1.
         25    2    1    2    0    0 -0.12697936392E+03 -0.12225003898E+03 -0.54434006303E+03  0.58568158013E+03  0.12509187899E+03 0.  0.
          5    1    3    3  502    0 -0.85890327941E+01  0.94360322768E+01 -0.19038732410E+00  0.13428284954E+02  0.41800000000E+01 0. -1.
         -5    1    3    3    0  502 -0.11839033112E+03 -0.13168607126E+03 -0.54414967571E+03  0.57225329517E+03  0.41800000000E+01 0. -1.
        -11    1    1    2    0    0  0.49544875803E+02  0.44234544585E+02 -0.23137480577E+03  0.24071911100E+03  0.00000000000E+00 0.  1.
         11    1    1    2    0    0  0.77434488112E+02  0.78015494396E+02 -0.11508523612E+03  0.15914499329E+03  0.00000000000E+00 0. -1.
</event>
<event>
 7    1  0.2651429E-009  0.1499059E+03  0.7561462E-02  0.1200589E+00
         -2   -1    0    0    0  501 -0.00000000000E+00  0.00000000000E+00  0.49796440387E+02  0.49796440387E+02  0.00000000000E+00 0.  1.
          2   -1    0    0  501    0  0.00000000000E+00 -0.00000000000E+00 -0.61078892026E+03  0.61078892026E+03  0.00000000000E+00 0. -1.
         25    2    1    2    0    0 -0.77595047325E+02  0.10490338428E+03 -0.37003606134E+03  0.41182508385E+03  0.12508997399E+03 0.  0.
          5    1    3    3  502    0 -0.12767534809E+02  0.60353168392E+02 -0.30036848495E+03  0.30666629100E+03  0.41800000000E+01 0. -1.
         -5    1    3    3    0  502 -0.64827512516E+02  0.44550215885E+02 -0.69667576387E+02  0.10515879285E+03  0.41800000000E+01 0. -1.
        -11    1    1    2    0    0 -0.21017239240E+02 -0.21377580451E+02 -0.41197914799E+02  0.50950892779E+02  0.00000000000E+00 0.  1.
         11    1    1    2    0    0  0.98612286565E+02 -0.83525803826E+02 -0.14975850374E+03  0.19780938402E+03  0.00000000000E+00 0. -1.
</event>
<event>
 7    1  0.2797176E-009  0.1153042E+03  0.7561462E-02  0.1251051E+00
          2   -1    0    0  501    0  0.00000000000E+00  0.00000000000E+00  0.31716546611E+03  0.31716546611E+03  0.00000000000E+00 0. -1.
         -2   -1    0    0    0  501 -0.00000000000E+00 -0.00000000000E+00 -0.58133174818E+02  0.58133174818E+02  0.00000000000E+00 0.  1.
         25    2    1    2    0    0  0.29835438681E+02 -0.62864523978E+02  0.20030808974E+03  0.24619675795E+03  0.12508961201E+03 0.  0.
          5    1    3    3  502    0 -0.47950263744E+02 -0.14670703559E+02  0.56145014234E+02  0.75393583012E+02  0.41800000000E+01 0.  1.
         -5    1    3    3    0  502  0.77785702425E+02 -0.48193820418E+02  0.14416307551E+03  0.17080317494E+03  0.41800000000E+01 0.  1.
        -11    1    1    2    0    0 -0.34977485017E+02  0.11138478240E+02 -0.14360253288E+02  0.39417090584E+02  0.00000000000E+00 0.  1.
         11    1    1    2    0    0  0.51420463363E+01  0.51726045738E+02  0.73084454837E+02  0.89684792395E+02  0.00000000000E+00 0. -1.
</event>
<event>
 7    1  0.2651429E-009  0.6891502E+02  0.7561462E-02  0.1363822E+00
          2   -1    0    0  501    0  0.00000000000E+00  0.00000000000E+00  0.31781863970E+03  0.31781863970E+03  0.00000000000E+00 0.  1.
         -2   -1    0    0    0  501 -0.00000000000E+00 -0.00000000000E+00 -0.44936813694E+02  0.44936813694E+02  0.00000000000E+00 0. -1.
         25    2    1    2    0    0 -0.26433107565E+02  0.54786654202E+01  0.21817497470E+03  0.25293553779E+03  0.12508933505E+03 0.  0.
          5    1    3    3  502    0 -0.25586895909E+02 -0.11496421268E+02 -0.52360165652E+01  0.28839993303E+02  0.41800000000E+01 0. -1.
         -5    1    3    3    0  502 -0.84621165653E+00  0.16975086688E+02  0.22341099126E+03  0.22409554449E+03  0.41800000000E+01 0. -1.
        -11    1    1    2    0    0 -0.34668102506E+01  0.38571736243E+02  0.92551636480E+01  0.39817780755E+02  0.00000000000E+00 0. -1.
         11    1    1    2    0    0  0.29899917816E+02 -0.44050401664E+02  0.45451687660E+02  0.70002134848E+02  0.00000000000E+00 0.  1.
</event>
<event>
 7    1  0.2651429E-009  0.1120444E+03  0.7561462E-02  0.1256830E+00
         -1   -1    0    0    0  501 -0.00000000000E+00  0.00000000000E+00  0.42125871919E+02  0.42125871919E+02  0.00000000000E+00 0.  1.
          1   -1    0    0  501    0  0.00000000000E+00 -0.00000000000E+00 -0.48081998391E+03  0.48081998391E+03  0.00000000000E+00 0. -1.
         25    2    1    2    0    0  0.59381868894E+01  0.83514410784E+02 -0.18179515614E+03  0.23602157039E+03  0.12508710574E+03 0.  0.
          5    1    3    3  502    0 -0.14196308606E+02  0.10245190010E+03 -0.81052294930E+02  0.13147195110E+03  0.41800000000E+01 0.  1.
         -5    1    3    3    0  502  0.20134495496E+02 -0.18937489314E+02 -0.10074286121E+03  0.10454961930E+03  0.41800000000E+01 0.  1.
        -11    1    1    2    0    0  0.15822647023E+02 -0.51749739334E+02 -0.41725663535E+02  0.68333174062E+02  0.00000000000E+00 0.  1.
         11    1    1    2    0    0 -0.21760833913E+02 -0.31764671450E+02 -0.21517329231E+03  0.21859111137E+03  0.00000000000E+00 0. -1.
</event>
<event>
 7    1  0.2651429E-009  0.1683118E+03  0.7561462E-02  0.1179620E+00
         -2   -1    0    0    0  501 -0.00000000000E+00  0.00000000000E+00  0.18408288994E+03  0.18408288994E+03  0.00000000000E+00 0. -1.
          2   -1    0    0  501    0  0.00000000000E+00 -0.00000000000E+00 -0.19309151751E+03  0.19309151751E+03  0.00000000000E+00 0.  1.
         25    2    1    2    0    0 -0.42562166473E+01 -0.13876938933E+03 -0.71899167370E+02  0.20024437472E+03  0.12511299110E+03 0.  0.
          5    1    3    3  502    0  0.35943071913E+02 -0.99407770141E+01 -0.51455890536E+02  0.63685983835E+02  0.41800000000E+01 0.  1.
         -5    1    3    3    0  502 -0.40199288561E+02 -0.12882861232E+03 -0.20443276834E+02  0.13655839088E+03  0.41800000000E+01 0.  1.
        -11    1    1    2    0    0 -0.39456780374E+02  0.40591119367E+02  0.32373016026E+02  0.65211108376E+02  0.00000000000E+00 0. -1.
         11    1    1    2    0    0  0.43712997021E+02  0.98178269964E+02  0.30517523782E+02  0.11171892436E+03  0.00000000000E+00 0.  1.
</event>
<event>
 7    1  0.2651429E-009  0.2141242E+03  0.7561462E-02  0.1138341E+00
         -2   -1    0    0    0  501 -0.00000000000E+00  0.00000000000E+00  0.13998989833E+03  0.13998989833E+03  0.00000000000E+00 0.  1.
          2   -1    0    0  501    0  0.00000000000E+00 -0.00000000000E+00 -0.44598356286E+03  0.44598356286E+03  0.00000000000E+00 0. -1.
         25    2    1    2    0    0  0.19777576075E+03  0.13815056320E+02 -0.33321953763E+02  0.23677730247E+03  0.12508809312E+03 0.  0.
          5    1    3    3  502    0  0.20537177327E+03  0.10351694139E+02 -0.36886647187E+01  0.20570804912E+03  0.41800000000E+01 0.  1.
         -5    1    3    3    0  502 -0.75960125207E+01  0.34633621803E+01 -0.29633289044E+02  0.31069253344E+02  0.41800000000E+01 0.  1.
        -11    1    1    2    0    0 -0.13189816869E+03  0.28497313969E+02 -0.13537013284E+03  0.19113946917E+03  0.00000000000E+00 0.  1.
         11    1    1    2    0    0 -0.65877592059E+02 -0.42312370289E+02 -0.13730157792E+03  0.15805668956E+03  0.00000000000E+00 0. -1.
</event>
<event>
 7    1  0.2651429E-009  0.1163138E+03  0.7561462E-02  0.1249305E+00
         -2   -1    0    0    0  501 -0.00000000000E+00  0.00000000000E+00  0.14940354175E+03  0.14940354175E+03  0.00000000000E+00 0.  1.
          2   -1    0    0  501    0  0.00000000000E+00 -0.00000000000E+00 -0.11012619948E+03  0.11012619948E+03  0.00000000000E+00 0. -1.
         25    2    1    2    0    0 -0.59079346770E+02  0.31751962686E+02  0.40465773992E+02  0.14759221739E+03  0.12508967752E+03 0.  0.
          5    1    3    3  502    0 -0.89367468629E+02  0.53658724755E+02  0.29576275880E+02  0.10843445802E+03  0.41800000000E+01 0.  1.
         -5    1    3    3    0  502  0.30288121858E+02 -0.21906762069E+02  0.10889498111E+02  0.39157759374E+02  0.41800000000E+01 0.  1.
        -11    1    1    2    0    0  0.98688988336E+01  0.18116811461E+02  0.29049300169E+02  0.35629704770E+02  0.00000000000E+00 0.  1.
         11    1    1    2    0    0  0.49210447937E+02 -0.49868774147E+02 -0.30237731894E+02  0.76307819070E+02  0.00000000000E+00 0. -1.
</event>
<event>
 7    1  0.2651429E-009  0.1345498E+03  0.7561462E-02  0.1220857E+00
          2   -1    0    0  501    0  0.00000000000E+00  0.00000000000E+00  0.13031453761E+04  0.13031453761E+04  0.00000000000E+00 0. -1.
         -2   -1    0    0    0  501 -0.00000000000E+00 -0.00000000000E+00 -0.17635753652E+02  0.17635753652E+02  0.00000000000E+00 0.  1.
         25    2    1    2    0    0  0.91142478908E+01 -0.87055785104E+02  0.96416045903E+03  0.97617357308E+03  0.12509066630E+03 0.  0.
          5    1    3    3  502    0  0.63362064551E+02 -0.27772324957E+02  0.35307952364E+03  0.35981755887E+03  0.41800000000E+01 0.  1.
         -5    1    3    3    0  502 -0.54247816660E+02 -0.59283460147E+02  0.61108093539E+03  0.61635601422E+03  0.41800000000E+01 0.  1.
        -11    1    1    2    0    0  0.29887544176E+01  0.10089586616E+03  0.29949779343E+03  0.31605037055E+03  0.00000000000E+00 0. -1.
         11    1    1    2    0    0 -0.12103002308E+02 -0.13840081057E+02  0.21851370017E+02  0.28557186139E+02  0.00000000000E+00 0.  1.
</event>
<event>
 7    1  0.2651429E-009  0.1024884E+03  0.7561462E-02  0.1275149E+00
          4   -1    0    0  501    0  0.00000000000E+00  0.00000000000E+00  0.43776859430E+02  0.43776859430E+02  0.00000000000E+00 0. -1.
         -4   -1    0    0    0  501 -0.00000000000E+00 -0.00000000000E+00 -0.33710473172E+03  0.33710473172E+03  0.00000000000E+00 0.  1.
         25    2    1    2    0    0 -0.32562030360E+02  0.41403051625E+02 -0.12065027876E+03  0.18160019671E+03  0.12509053992E+03 0.  0.
          5    1    3    3  502    0  0.16147441531E+02  0.64613376994E+02 -0.10647116261E+03  0.12565512016E+03  0.41800000000E+01 0. -1.
         -5    1    3    3    0  502 -0.48709471891E+02 -0.23210325369E+02 -0.14179116148E+02  0.55945076552E+02  0.41800000000E+01 0. -1.
        -11    1    1    2    0    0  0.14466444582E+02 -0.57875785521E+02 -0.16190264838E+03  0.17254376871E+03  0.00000000000E+00 0.  1.
         11    1    1    2    0    0  0.18095585778E+02  0.16472733896E+02 -0.10774945154E+02  0.26737625730E+02  0.00000000000E+00 0. -1.
</event>
<event>
 7    1  0.2651429E-009  0.1189684E+03  0.7561462E-02  0.1244809E+00
         -2   -1    0    0    0  501 -0.00000000000E+00  0.00000000000E+00  0.13773388065E+04  0.13773388065E+04  0.00000000000E+00 0.  1.
          2   -1    0    0  501    0  0.00000000000E+00 -0.00000000000E+00 -0.17016156559E+02  0.17016156559E+02  0.00000000000E+00 0. -1.
         25    2    1    2    0    0  0.90394837069E+01  0.91249052990E+02  0.99682972044E+03  0.10088216290E+04  0.12507392043E+03 0.  0.
          5    1    3    3  502    0  0.37308856164E+02  0.69624611874E+02  0.27626304571E+03  0.28736436827E+03  0.41800000000E+01 0. -1.
         -5    1    3    3    0  502 -0.28269372457E+02  0.21624441116E+02  0.72056667473E+03  0.72145726069E+03  0.41800000000E+01 0. -1.
        -11    1    1    2    0    0 -0.39432648546E+02 -0.17324353479E+02  0.78445316478E+02  0.89491534081E+02  0.00000000000E+00 0.  1.
         11    1    1    2    0    0  0.30393164839E+02 -0.73924699511E+02  0.28504761301E+03  0.29604180001E+03  0.00000000000E+00 0. -1.
</event>
<event>
 7    1  0.2651429E-009  0.1166045E+03  0.7561462E-02  0.1248806E+00
          2   -1    0    0  501    0  0.00000000000E+00  0.00000000000E+00  0.13342643387E+03  0.13342643387E+03  0.00000000000E+00 0. -1.
         -2   -1    0    0    0  501 -0.00000000000E+00 -0.00000000000E+00 -0.15058286704E+03  0.15058286704E+03  0.00000000000E+00 0.  1.
         25    2    1    2    0    0 -0.48030702765E+02  0.57773875934E+02 -0.60521300283E+02  0.15797039309E+03  0.12508816154E+03 0.  0.
          5    1    3    3  502    0 -0.76698629368E+02  0.45551152320E+02  0.52178402938E+00  0.89304713667E+02  0.41800000000E+01 0.  1.
         -5    1    3    3    0  502  0.28667926602E+02  0.12222723615E+02 -0.61043084312E+02  0.68665679423E+02  0.41800000000E+01 0.  1.
        -11    1    1    2    0    0  0.70980270612E+02 -0.31730613102E+02  0.47452953674E+02  0.91086845573E+02  0.00000000000E+00 0.  1.
         11    1    1    2    0    0 -0.22949567847E+02 -0.26043262832E+02 -0.40880865655E+01  0.34952062243E+02  0.00000000000E+00 0. -1.
</event>
<event>
 7    1  0.2651429E-009  0.7623201E+02  0.7561462E-02  0.1340098E+00
          1   -1    0    0  501    0  0.00000000000E+00  0.00000000000E+00  0.29565381376E+03  0.29565381376E+03  0.00000000000E+00 0. -1.
         -1   -1    0    0    0  501 -0.00000000000E+00 -0.00000000000E+00 -0.73165667309E+02  0.73165667309E+02  0.00000000000E+00 0.  1.
         25    2    1    2    0    0 -0.27021324717E+02  0.39790155370E+02  0.22899843426E+03  0.26533350222E+03  0.12509266986E+03 0.  0.
          5    1    3    3  502    0 -0.23313112395E+02  0.29106620404E+01  0.22671057075E+03  0.22796299799E+03  0.41800000000E+01 0. -1.
         -5    1    3    3    0  502 -0.37082123216E+01  0.36879493329E+02  0.22878635101E+01  0.37370504228E+02  0.41800000000E+01 0. -1.
        -11    1    1    2    0    0  0.30636018460E+02 -0.61810099659E+02 -0.26133907863E+02  0.73770151058E+02  0.00000000000E+00 0.  1.
         11    1    1    2    0    0 -0.36146937427E+01  0.22019944289E+02  0.19623620052E+02  0.29715827791E+02  0.00000000000E+00 0. -1.
</event>
<event>
 7    1  0.2651429E-009  0.1003037E+03  0.7561462E-02  0.1279659E+00
          1   -1    0    0  501    0  0.00000000000E+00  0.00000000000E+00  0.12196421040E+03  0.12196421040E+03  0.00000000000E+00 0. -1.
         -1   -1    0    0    0  501 -0.00000000000E+00 -0.00000000000E+00 -0.13605974077E+03  0.13605974077E+03  0.00000000000E+00 0.  1.
         25    2    1    2    0    0 -0.59881472410E+02 -0.81541315984E+01 -0.46029606418E+02  0.14634885960E+03  0.12508790284E+03 0.  0.
          5    1    3    3  502    0  0.29403892877E+02 -0.27558838134E+02  0.62523921475E+01  0.40995649564E+02  0.41800000000E+01 0.  1.
         -5    1    3    3    0  502 -0.89285365287E+02  0.19404706536E+02 -0.52281998565E+02  0.10535321003E+03  0.41800000000E+01 0.  1.
        -11    1    1    2    0    0  0.32432769126E+02 -0.11990716268E+02  0.58861180382E+02  0.68266392506E+02  0.00000000000E+00 0. -1.
         11    1    1    2    0    0  0.27448703285E+02  0.20144847866E+02 -0.26927104333E+02  0.43408699075E+02  0.00000000000E+00 0.  1.
</event>
<event>
 7    1  0.2651429E-009  0.2918359E+03  0.7561462E-02  0.1089394E+00
          2   -1    0    0  501    0  0.00000000000E+00  0.00000000000E+00  0.11663084872E+04  0.11663084872E+04  0.00000000000E+00 0. -1.
         -2   -1    0    0    0  501 -0.00000000000E+00 -0.00000000000E+00 -0.82455038729E+02  0.82455038729E+02  0.00000000000E+00 0.  1.
         25    2    1    2    0    0 -0.27261984003E+03 -0.36678773195E+01  0.35313844243E+03  0.46334722122E+03  0.12509539315E+03 0.  0.
          5    1    3    3  502    0 -0.28329358071E+03 -0.14293336234E+02  0.32711885905E+03  0.43299396379E+03  0.41800000000E+01 0. -1.
         -5    1    3    3    0  502  0.10673740682E+02  0.10625458914E+02  0.26019583376E+02  0.30353257425E+02  0.41800000000E+01 0. -1.
        -11    1    1    2    0    0  0.21441065900E+03 -0.30948054893E+02  0.49872008989E+03  0.54373839377E+03  0.00000000000E+00 0. -1.
         11    1    1    2    0    0  0.58209181022E+02  0.34615932213E+02  0.23199491610E+03  0.24167791090E+03  0.00000000000E+00 0.  1.
</event>
<event>
 7    1  0.2651429E-009  0.1891092E+03  0.7561462E-02  0.1159267E+00
          2   -1    0    0  501    0  0.00000000000E+00  0.00000000000E+00  0.12383015317E+04  0.12383015317E+04  0.00000000000E+00 0. -1.
         -2   -1    0    0    0  501 -0.00000000000E+00 -0.00000000000E+00 -0.88525988201E+02  0.88525988201E+02  0.00000000000E+00 0.  1.
         25    2    1    2    0    0  0.14023950509E+03 -0.79804342134E+02  0.11211627845E+04  0.11396014002E+04  0.12509800244E+03 0.  0.
          5    1    3    3  502    0 -0.17406595158E+02 -0.26323413364E+02  0.99842378219E+02  0.10479448714E+03  0.41800000000E+01 0.  1.
         -5    1    3    3    0  502  0.15764610025E+03 -0.53480928770E+02  0.10213204063E+04  0.10348069131E+04  0.41800000000E+01 0.  1.
        -11    1    1    2    0    0 -0.99238454943E+02  0.11105757090E+02 -0.60393321115E+01  0.10004040340E+03  0.00000000000E+00 0.  1.
         11    1    1    2    0    0 -0.41001050151E+02  0.68698585044E+02  0.34652091058E+02  0.87185716234E+02  0.00000000000E+00 0. -1.
</event>
<event>
 7    1  0.2651429E-009  0.1296951E+03  0.7561462E-02  0.1227909E+00
         -2   -1    0    0    0  501 -0.00000000000E+00  0.00000000000E+00  0.54370600469E+02  0.54370600469E+02  0.00000000000E+00 0.  1.
          2   -1    0    0  501    0  0.00000000000E+00 -0.00000000000E+00 -0.46176446971E+03  0.46176446971E+03  0.00000000000E+00 0. -1.
         25    2    1    2    0    0 -0.78934770056E+02  0.24111756247E+02 -0.89512261559E+02  0.17456258678E+03  0.12509027549E+03 0.  0.
          5    1    3    3  502    0 -0.26758174992E+02 -0.43726905605E+02 -0.11062270718E+01  0.51446460919E+02  0.41800000000E+01 0.  1.
         -5    1    3    3    0  502 -0.52176595063E+02  0.67838661852E+02 -0.88406034487E+02  0.12311612587E+03  0.41800000000E+01 0.  1.
        -11    1    1    2    0    0  0.55694832641E+02 -0.58495680548E+02 -0.17413464685E+03  0.19195451091E+03  0.00000000000E+00 0.  1.
         11    1    1    2    0    0  0.23239937415E+02  0.34383924301E+02 -0.14374696083E+03  0.14961797248E+03  0.00000000000E+00 0. -1.
</event>
<event>
 7    1  0.2651429E-009  0.1042359E+03  0.7561462E-02  0.1271632E+00
          1   -1    0    0  501    0  0.00000000000E+00  0.00000000000E+00  0.11498919878E+04  0.11498919878E+04  0.00000000000E+00 0. -1.
         -1   -1    0    0    0  501 -0.00000000000E+00 -0.00000000000E+00 -0.14424747874E+02  0.14424747874E+02  0.00000000000E+00 0.  1.
         25    2    1    2    0    0 -0.36179270514E+02 -0.54042763707E+02  0.72354919602E+03  0.73715679885E+03  0.12508855704E+03 0.  0.
          5    1    3    3  502    0  0.13365306276E+02  0.13216983302E+02  0.46534131777E+03  0.46573955649E+03  0.41800000000E+01 0.  1.
         -5    1    3    3    0  502 -0.49544576790E+02 -0.67259747009E+02  0.25820787825E+03  0.27141724236E+03  0.41800000000E+01 0.  1.
        -11    1    1    2    0    0  0.13427119376E+02 -0.22235168861E+02  0.47382488481E+02  0.54035085673E+02  0.00000000000E+00 0.  1.
         11    1    1    2    0    0  0.22752151138E+02  0.76277932569E+02  0.36453555538E+03  0.37312485111E+03  0.00000000000E+00 0. -1.
</event>
<event>
 7    1  0.2651429E-009  0.1568616E+03  0.7561462E-02  0.1192286E+00
         -2   -1    0    0    0  501 -0.00000000000E+00  0.00000000000E+00  0.12625847868E+03  0.12625847868E+03  0.00000000000E+00 0.  1.
          2   -1    0    0  501    0  0.00000000000E+00 -0.00000000000E+00 -0.25589549967E+03  0.25589549967E+03  0.00000000000E+00 0. -1.
         25    2    1    2    0    0 -0.41681197767E+02  0.13613193326E+03 -0.69266763399E+02  0.20177209122E+03  0.12507944189E+03 0.  0.
          5    1    3    3  502    0 -0.41015492004E+02  0.49777468214E+02 -0.91944572000E+02  0.11238925058E+03  0.41800000000E+01 0. -1.
         -5    1    3    3    0  502 -0.66570576245E+00  0.86354465044E+02  0.22677808601E+02  0.89382840636E+02  0.41800000000E+01 0. -1.
        -11    1    1    2    0    0 -0.23496722585E+02 -0.42210908276E+02  0.52035791037E+01  0.48589443146E+02  0.00000000000E+00 0.  1.
         11    1    1    2    0    0  0.65177920352E+02 -0.93921024982E+02 -0.65573836694E+02  0.13179244399E+03  0.00000000000E+00 0. -1.
</event>
<event>
 7    1  0.2651429E-009  0.1304285E+03  0.7561462E-02  0.1226821E+00
          2   -1    0    0  501    0  0.00000000000E+00  0.00000000000E+00  0.22195084209E+03  0.22195084209E+03  0.00000000000E+00 0. -1.
         -2   -1    0    0    0  501 -0.00000000000E+00 -0.00000000000E+00 -0.85996297296E+02  0.85996297296E+02  0.00000000000E+00 0.  1.
         25    2    1    2    0    0  0.84642392810E+02  0.68628694954E+01  0.86665507824E+02  0.17426916584E+03  0.12508956103E+03 0.  0.
          5    1    3    3  502    0 -0.19224375665E+02  0.36413179282E+02  0.12630795800E+02  0.43272458304E+02  0.41800000000E+01 0.  1.
         -5    1    3    3    0  502  0.10386676847E+03 -0.29550309786E+02  0.74034712024E+02  0.13099670754E+03  0.41800000000E+01 0.  1.
        -11    1    1    2    0    0 -0.85265716091E+02  0.17488028099E+02  0.61357601572E+02  0.10649332720E+03  0.00000000000E+00 0. -1.
         11    1    1    2    0    0  0.62332328144E+00 -0.24350897594E+02 -0.12068564598E+02  0.27184646347E+02  0.00000000000E+00 0.  1.
</event>
<event>
 7    1  0.2651429E-009  0.1940062E+03  0.7561462E-02  0.1154897E+00
         -2   -1    0    0    0  501 -0.00000000000E+00  0.00000000000E+00  0.41172585017E+02  0.41172585017E+02  0.00000000000E+00 0.  1.
          2   -1    0    0  501    0  0.00000000000E+00 -0.00000000000E+00 -0.98580951044E+03  0.98580951044E+03  0.00000000000E+00 0. -1.
         25    2    1    2    0    0 -0.13662377698E+03  0.85024053454E+02 -0.62683830883E+03  0.65914264693E+03  0.12509043720E+03 0.  0.
          5    1    3    3  502    0 -0.10483169144E+03 -0.79584312022E+01 -0.30771927330E+03  0.32521015316E+03  0.41800000000E+01 0.  1.
         -5    1    3    3    0  502 -0.31792085536E+02  0.92982484656E+02 -0.31911903553E+03  0.33393249376E+03  0.41800000000E+01 0.  1.
        -11    1    1    2    0    0  0.14967472552E+03 -0.72336631392E+02 -0.27515499341E+03  0.32147376580E+03  0.00000000000E+00 0.  1.
         11    1    1    2    0    0 -0.13050948546E+02 -0.12687422062E+02 -0.42643623184E+02  0.46365682728E+02  0.00000000000E+00 0. -1.
</event>
<event>
 7    1  0.2651429E-009  0.9458583E+02  0.7561462E-02  0.1292112E+00
          2   -1    0    0  501    0  0.00000000000E+00  0.00000000000E+00  0.30779485541E+03  0.30779485541E+03  0.00000000000E+00 0. -1.
         -2   -1    0    0    0  501 -0.00000000000E+00 -0.00000000000E+00 -0.48650044841E+02  0.48650044841E+02  0.00000000000E+00 0.  1.
         25    2    1    2    0    0  0.29054516757E+02 -0.41551162496E+02  0.14610009051E+03  0.19889940976E+03  0.12508027306E+03 0.  0.
          5    1    3    3  502    0  0.27888553813E+02  0.10607394512E+02  0.14335692597E+03  0.14648880120E+03  0.41800000000E+01 0.  1.
         -5    1    3    3    0  502  0.11659629441E+01 -0.52158557008E+02  0.27431645382E+01  0.52410608567E+02  0.41800000000E+01 0.  1.
        -11    1    1    2    0    0  0.10087426436E+02 -0.26413227769E+02  0.47751166086E+02  0.55494041445E+02  0.00000000000E+00 0. -1.
         11    1    1    2    0    0 -0.39141943193E+02  0.67964390265E+02  0.65293553969E+02  0.10205144904E+03  0.00000000000E+00 0.  1.
</event>
<event>
 7    1  0.2651429E-009  0.3198834E+03  0.7561462E-02  0.1075703E+00
          2   -1    0    0  501    0  0.00000000000E+00  0.00000000000E+00  0.33098453241E+04  0.33098453241E+04  0.00000000000E+00 0. -1.
         -2   -1    0    0    0  501 -0.00000000000E+00 -0.00000000000E+00 -0.41957359825E+02  0.41957359825E+02  0.00000000000E+00 0.  1.
         25    2    1    2    0    0  0.31197528332E+03 -0.52375891946E+02  0.23933518869E+04  0.24174061173E+04  0.12508904847E+03 0.  0.
          5    1    3    3  502    0  0.29243522551E+03 -0.31038007845E+02  0.18467140581E+04  0.18699871668E+04  0.41800000000E+01 0.  1.
         -5    1    3    3    0  502  0.19540057815E+02 -0.21337884102E+02  0.54663782873E+03  0.54741895049E+03  0.41800000000E+01 0.  1.
        -11    1    1    2    0    0 -0.20837285415E+03  0.31482731538E+02  0.69302685346E+03  0.72435946073E+03  0.00000000000E+00 0.  1.
         11    1    1    2    0    0 -0.10360242917E+03  0.20893160408E+02  0.18150922396E+03  0.21003710592E+03  0.00000000000E+00 0. -1.
</event>
<event>
 7    1  0.2651429E-009  0.8985818E+02  0.7561462E-02  0.1303196E+00
         -4   -1    0    0    0  501 -0.00000000000E+00  0.00000000000E+00  0.99494738946E+02  0.99494738946E+02  0.00000000000E+00 0.  1.
          4   -1    0    0  501    0  0.00000000000E+00 -0.00000000000E+00 -0.19622883137E+03  0.19622883137E+03  0.00000000000E+00 0. -1.
         25    2    1    2    0    0  0.39578806932E+02  0.63562263807E+02 -0.44914003039E+01  0.14586398566E+03  0.12509790684E+03 0.  0.
          5    1    3    3  502    0 -0.19685425398E+02  0.28888139673E+02  0.47863335162E+02  0.59417268867E+02  0.41800000000E+01 0.  1.
         -5    1    3    3    0  502  0.59264232330E+02  0.34674124135E+02 -0.52354735466E+02  0.86446716791E+02  0.41800000000E+01 0.  1.
        -11    1    1    2    0    0 -0.23389778939E+02 -0.26926798047E+02 -0.10248806779E+03  0.10851699522E+03  0.00000000000E+00 0. -1.
         11    1    1    2    0    0 -0.16189027993E+02 -0.36635465760E+02  0.10245375671E+02  0.41342589438E+02  0.00000000000E+00 0.  1.
</event>
<event>
 7    1  0.2651429E-009  0.1840862E+03  0.7561462E-02  0.1163906E+00
         -4   -1    0    0    0  501 -0.00000000000E+00  0.00000000000E+00  0.94070504712E+02  0.94070504712E+02  0.00000000000E+00 0.  1.
          4   -1    0    0  501    0  0.00000000000E+00 -0.00000000000E+00 -0.40670048847E+03  0.40670048847E+03  0.00000000000E+00 0. -1.
         25    2    1    2    0    0  0.14877365976E+03 -0.35492221150E+02 -0.23621411962E+03  0.30795624975E+03  0.12508653745E+03 0.  0.
          5    1    3    3  502    0  0.11984074921E+03  0.30356149501E+02 -0.12843983459E+03  0.17831871604E+03  0.41800000000E+01 0.  1.
         -5    1    3    3    0  502  0.28932910555E+02 -0.65848370651E+02 -0.10777428503E+03  0.12963753371E+03  0.41800000000E+01 0.  1.
        -11    1    1    2    0    0 -0.32567382877E+02 -0.25340237372E+02 -0.50782078402E+00  0.41267662152E+02  0.00000000000E+00 0.  1.
         11    1    1    2    0    0 -0.11620627689E+03  0.60832458522E+02 -0.75908043350E+02  0.15154708128E+03  0.00000000000E+00 0. -1.
</event>
<event>
 7    1  0.2651429E-009  0.1377509E+03  0.7561462E-02  0.1216388E+00
         -2   -1    0    0    0  501 -0.00000000000E+00  0.00000000000E+00  0.80209523000E+02  0.80209523000E+02  0.00000000000E+00 0.  1.
          2   -1    0    0  501    0  0.00000000000E+00 -0.00000000000E+00 -0.47266093547E+03  0.47266093547E+03  0.00000000000E+00 0. -1.
         25    2    1    2    0    0  0.12532975312E+03 -0.11468871685E+02 -0.34968844170E+03  0.39213437093E+03  0.12509307165E+03 0.  0.
          5    1    3    3  502    0  0.64649113106E+01 -0.99090898520E+01  0.82044735347E+01  0.14992362253E+02  0.41800000000E+01 0.  1.
         -5    1    3    3    0  502  0.11886484181E+03 -0.15597818326E+01 -0.35789291523E+03  0.37714200868E+03  0.41800000000E+01 0.  1.
        -11    1    1    2    0    0 -0.93940035011E+02  0.39513563036E+02 -0.56414731565E+02  0.11648465040E+03  0.00000000000E+00 0.  1.
         11    1    1    2    0    0 -0.31389718105E+02 -0.28044691351E+02  0.13651760795E+02  0.44251437135E+02  0.00000000000E+00 0. -1.
</event>
<event>
 7    1  0.2651429E-009  0.1127851E+03  0.7561462E-02  0.1255498E+00
         -1   -1    0    0    0  501 -0.00000000000E+00  0.00000000000E+00  0.22874328360E+02  0.22874328360E+02  0.00000000000E+00 0.  1.
          1   -1    0    0  501    0  0.00000000000E+00 -0.00000000000E+00 -0.67949527252E+03  0.67949527252E+03  0.00000000000E+00 0. -1.
         25    2    1    2    0    0  0.42655418595E+02  0.48233945273E+02 -0.30689554493E+03  0.33760668062E+03  0.12508955627E+03 0.  0.
          5    1    3    3  502    0 -0.10355260384E+02  0.65528095222E+02 -0.80448696740E+02  0.10435817116E+03  0.41800000000E+01 0.  1.
         -5    1    3    3    0  502  0.53010678978E+02 -0.17294149949E+02 -0.22644684819E+03  0.23324850945E+03  0.41800000000E+01 0.  1.
        -11    1    1    2    0    0 -0.20161668580E+01 -0.60652666344E+02 -0.22255156031E+03  0.23067728076E+03  0.00000000000E+00 0. -1.
         11    1    1    2    0    0 -0.40639251737E+02  0.12418721071E+02 -0.12717383892E+03  0.13408563950E+03  0.00000000000E+00 0.  1.
</event>
<event>
 7    1  0.2651429E-009  0.2019633E+03  0.7561462E-02  0.1148093E+00
          2   -1    0    0  501    0  0.00000000000E+00  0.00000000000E+00  0.84993512471E+03  0.84993512471E+03  0.00000000000E+00 0.  1.
         -2   -1    0    0    0  501 -0.00000000000E+00 -0.00000000000E+00 -0.51979199519E+02  0.51979199519E+02  0.00000000000E+00 0. -1.
         25    2    1    2    0    0 -0.14967865931E+03 -0.93668067536E+02  0.34329963718E+03  0.40580721957E+03  0.12508977034E+03 0.  0.
          5    1    3    3  502    0 -0.12998456627E+02 -0.77496727750E+02  0.12379013152E+03  0.14668391783E+03  0.41800000000E+01 0.  1.
         -5    1    3    3    0  502 -0.13668020268E+03 -0.16171339785E+02  0.21950950566E+03  0.25912330175E+03  0.41800000000E+01 0.  1.
        -11    1    1    2    0    0  0.13555585203E+03  0.10331273201E+03  0.44487423149E+03  0.47640528068E+03  0.00000000000E+00 0.  1.
         11    1    1    2    0    0  0.14122807280E+02 -0.96446644703E+01  0.97820565188E+01  0.19701823975E+02  0.00000000000E+00 0. -1.
</event>
<event>
 7    1  0.2651429E-009  0.1576002E+03  0.7561462E-02  0.1191433E+00
          2   -1    0    0  501    0  0.00000000000E+00  0.00000000000E+00  0.21202556045E+03  0.21202556045E+03  0.00000000000E+00 0. -1.
         -2   -1    0    0    0  501 -0.00000000000E+00 -0.00000000000E+00 -0.13513430411E+03  0.13513430411E+03  0.00000000000E+00 0.  1.
         25    2    1    2    0    0 -0.10595009978E+03 -0.66267060545E+02  0.56898525909E+01  0.17690898366E+03  0.12509063562E+03 0.  0.
          5    1    3    3  502    0 -0.62755593302E+02 -0.95622028951E+02 -0.23636532106E+02  0.11686742472E+03  0.41800000000E+01 0. -1.
         -5    1    3    3    0  502 -0.43194506480E+02  0.29354968406E+02  0.29326384697E+02  0.60041558937E+02  0.41800000000E+01 0. -1.
        -11    1    1    2    0    0  0.93443769422E+02  0.13846516203E+02  0.67751965346E+02  0.11624884027E+03  0.00000000000E+00 0.  1.
         11    1    1    2    0    0  0.12506330360E+02  0.52420544342E+02  0.34494384061E+01  0.54002040642E+02  0.00000000000E+00 0. -1.
</event>
<event>
 7    1  0.2651429E-009  0.1628180E+03  0.7561462E-02  0.1185552E+00
         -1   -1    0    0    0  501 -0.00000000000E+00  0.00000000000E+00  0.86773540392E+02  0.86773540392E+02  0.00000000000E+00 0.  1.
          1   -1    0    0  501    0  0.00000000000E+00 -0.00000000000E+00 -0.39331151212E+03  0.39331151212E+03  0.00000000000E+00 0. -1.
         25    2    1    2    0    0  0.45359875785E-01  0.13833868791E+03 -0.88244765497E+02  0.20633033119E+03  0.12508985691E+03 0.  0.
          5    1    3    3  502    0  0.50572529215E+02  0.14630635729E+02 -0.25335349448E+02  0.58574640798E+02  0.41800000000E+01 0. -1.
         -5    1    3    3    0  502 -0.50527169339E+02  0.12370805218E+03 -0.62909416049E+02  0.14775569039E+03  0.41800000000E+01 0. -1.
        -11    1    1    2    0    0 -0.66768042778E+01 -0.38791529784E+02 -0.68466379906E+01  0.39952959216E+02  0.00000000000E+00 0.  1.
         11    1    1    2    0    0  0.66314444020E+01 -0.99547158121E+02 -0.21144656824E+03  0.23380176211E+03  0.00000000000E+00 0. -1.
</event>
<event>
 7    1  0.2651429E-009  0.1471060E+03  0.7561462E-02  0.1204075E+00
          2   -1    0    0  501    0  0.00000000000E+00  0.00000000000E+00  0.13960843284E+04  0.13960843284E+04  0.00000000000E+00 0. -1.
         -2   -1    0    0    0  501 -0.00000000000E+00 -0.00000000000E+00 -0.17291288777E+02  0.17291288777E+02  0.00000000000E+00 0.  1.
         25    2    1    2    0    0 -0.90384320627E+02 -0.44736745007E+02  0.95484782116E+03  0.96827282928E+03  0.12508880279E+03 0.  0.
          5    1    3    3  502    0 -0.16242081845E+02 -0.76674097040E+02  0.40774084873E+03  0.41522619679E+03  0.41800000000E+01 0. -1.
         -5    1    3    3    0  502 -0.74142238782E+02  0.31937352033E+02  0.54710697243E+03  0.55304663249E+03  0.41800000000E+01 0. -1.
        -11    1    1    2    0    0 -0.16763046734E+02  0.17709836549E+02  0.60487692920E+02  0.65218088297E+02  0.00000000000E+00 0. -1.
         11    1    1    2    0    0  0.10714736736E+03  0.27026908459E+02  0.36345752551E+03  0.37988469956E+03  0.00000000000E+00 0.  1.
</event>
<event>
 7    1  0.2651429E-009  0.1378826E+03  0.7561462E-02  0.1216207E+00
         -1   -1    0    0    0  501 -0.00000000000E+00  0.00000000000E+00  0.66525342464E+03  0.66525342464E+03  0.00000000000E+00 0.  1.
          1   -1    0    0  501    0  0.00000000000E+00 -0.00000000000E+00 -0.31661089087E+02  0.31661089087E+02  0.00000000000E+00 0. -1.
         25    2    1    2    0    0 -0.83082938439E+02 -0.43554450733E+02  0.28270016968E+03  0.32305759939E+03  0.12508821588E+03 0.  0.
          5    1    3    3  502    0  0.65030939311E+01  0.34960434369E+02  0.48673154528E+02  0.60424089349E+02  0.41800000000E+01 0. -1.
         -5    1    3    3    0  502 -0.89586032370E+02 -0.78514885101E+02  0.23402701515E+03  0.26263351004E+03  0.41800000000E+01 0. -1.
        -11    1    1    2    0    0  0.62056779427E+02 -0.10340926744E+02  0.24759680179E+03  0.25546458638E+03  0.00000000000E+00 0.  1.
         11    1    1    2    0    0  0.21026159012E+02  0.53895377477E+02  0.10329536408E+03  0.11839232795E+03  0.00000000000E+00 0. -1.
</event>
<event>
 7    1  0.2651429E-009  0.1281389E+03  0.7561462E-02  0.1230244E+00
          2   -1    0    0  501    0  0.00000000000E+00  0.00000000000E+00  0.71640767290E+02  0.71640767290E+02  0.00000000000E+00 0. -1.
         -2   -1    0    0    0  501 -0.00000000000E+00 -0.00000000000E+00 -0.33769993401E+03  0.33769993401E+03  0.00000000000E+00 0.  1.
         25    2    1    2    0    0  0.38772723192E+02  0.88717590274E+02 -0.71108540020E+02  0.17343023239E+03  0.12508991229E+03 0.  0.
          5    1    3    3  502    0 -0.52592695664E+01 -0.11838882177E+02 -0.61689219781E+02  0.63173184855E+02  0.41800000000E+01 0. -1.
         -5    1    3    3    0  502  0.44031992759E+02  0.10055647245E+03 -0.94193202396E+01  0.11025704754E+03  0.41800000000E+01 0. -1.
        -11    1    1    2    0    0  0.10183193274E+02  0.14994649370E+02 -0.28476635519E+02  0.33755824763E+02  0.00000000000E+00 0.  1.
         11    1    1    2    0    0 -0.48955916466E+02 -0.10371223964E+03 -0.16647399118E+03  0.20215464414E+03  0.00000000000E+00 0. -1.
</event>
<event>
 7    1  0.2651429E-009  0.9071134E+02  0.7561462E-02  0.1301138E+00
         -1   -1    0    0    0  501 -0.00000000000E+00  0.00000000000E+00  0.97255588633E+03  0.97255588633E+03  0.00000000000E+00 0.  1.
          1   -1    0    0  501    0  0.00000000000E+00 -0.00000000000E+00 -0.14984093746E+02  0.14984093746E+02  0.00000000000E+00 0. -1.
         25    2    1    2    0    0 -0.14335179249E+02  0.24119569841E+02  0.74635131304E+03  0.75728051989E+03  0.12508498037E+03 0.  0.
          5    1    3    3  502    0  0.37687982166E+02 -0.21171452712E+02  0.12988473502E+03  0.13695302553E+03  0.41800000000E+01 0.  1.
         -5    1    3    3    0  502 -0.52023161416E+02  0.45291022553E+02  0.61646657802E+03  0.62032749436E+03  0.41800000000E+01 0.  1.
        -11    1    1    2    0    0 -0.23759313140E+02 -0.19064873790E+02  0.23037683112E+02  0.38193051943E+02  0.00000000000E+00 0. -1.
         11    1    1    2    0    0  0.38094492390E+02 -0.50546960504E+01  0.18818279643E+03  0.19206640824E+03  0.00000000000E+00 0.  1.
</event>
<event>
 7    1  0.2651429E-009  0.1037127E+03  0.7561462E-02  0.1272677E+00
         -1   -1    0    0    0  501 -0.00000000000E+00  0.00000000000E+00  0.12232225870E+03  0.12232225870E+03  0.00000000000E+00 0.  1.
          1   -1    0    0  501    0  0.00000000000E+00 -0.00000000000E+00 -0.14464632144E+03  0.14464632144E+03  0.00000000000E+00 0. -1.
         25    2    1    2    0    0  0.41163028707E+01 -0.56347068397E+02 -0.40130905745E+02  0.14300006215E+03  0.12508633864E+03 0.  0.
          5    1    3    3  502    0 -0.28803864337E+02 -0.40106338961E+02  0.34051826760E+02  0.60126369683E+02  0.41800000000E+01 0. -1.
         -5    1    3    3    0  502  0.32920167208E+02 -0.16240729436E+02 -0.74182732505E+02  0.82873692469E+02  0.41800000000E+01 0. -1.
        -11    1    1    2    0    0  0.24605653662E+01 -0.32120008239E+02  0.14142087954E+02  0.35181642413E+02  0.00000000000E+00 0.  1.
         11    1    1    2    0    0 -0.65768682369E+01  0.88467076635E+02  0.36647550539E+01  0.88786875572E+02  0.00000000000E+00 0. -1.
</event>
<event>
 7    1  0.2651429E-009  0.9508821E+02  0.7561462E-02  0.1290978E+00
         -4   -1    0    0    0  501 -0.00000000000E+00  0.00000000000E+00  0.35126161268E+02  0.35126161268E+02  0.00000000000E+00 0.  1.
          4   -1    0    0  501    0  0.00000000000E+00 -0.00000000000E+00 -0.33358032091E+03  0.33358032091E+03  0.00000000000E+00 0. -1.
         25    2    1    2    0    0 -0.81119620283E+01 -0.25207486059E+01 -0.18588578172E+03  0.22421410738E+03  0.12508510703E+03 0.  0.
          5    1    3    3  502    0 -0.60217759507E+02  0.26016894944E+02 -0.10168222466E+03  0.12107768000E+03  0.41800000000E+01 0.  1.
         -5    1    3    3    0  502  0.52105797479E+02 -0.28537643550E+02 -0.84203557061E+02  0.10313642738E+03  0.41800000000E+01 0.  1.
        -11    1    1    2    0    0  0.25374275493E+02 -0.22888124624E+02 -0.10819679090E+03  0.11346482128E+03  0.00000000000E+00 0. -1.
         11    1    1    2    0    0 -0.17262313464E+02  0.25408873230E+02 -0.43715870232E+01  0.31027553530E+02  0.00000000000E+00 0.  1.
</event>
<event>
 7    1  0.2651429E-009  0.1075113E+03  0.7561462E-02  0.1265249E+00
          1   -1    0    0  501    0  0.00000000000E+00  0.00000000000E+00  0.71383655266E+03  0.71383655266E+03  0.00000000000E+00 0. -1.
         -1   -1    0    0    0  501 -0.00000000000E+00 -0.00000000000E+00 -0.22222078986E+02  0.22222078986E+02  0.00000000000E+00 0.  1.
         25    2    1    2    0    0  0.46443310059E+01  0.32960785774E+02  0.54453568013E+03  0.55971293231E+03  0.12510586098E+03 0.  0.
          5    1    3    3  502    0  0.90787248484E+01  0.80707112169E+02  0.34315976245E+03  0.35266436759E+03  0.41800000000E+01 0. -1.
         -5    1    3    3    0  502 -0.44343938425E+01 -0.47746326396E+02  0.20137591768E+03  0.20704856472E+03  0.41800000000E+01 0. -1.
        -11    1    1    2    0    0 -0.34359913727E+02  0.76915329935E+01  0.10492584491E+03  0.11067608721E+03  0.00000000000E+00 0. -1.
         11    1    1    2    0    0  0.29715582721E+02 -0.40652318767E+02  0.42152948635E+02  0.65669612122E+02  0.00000000000E+00 0.  1.
</event>
<event>
 7    1  0.2651429E-009  0.9827893E+02  0.7561462E-02  0.1283957E+00
         -1   -1    0    0    0  501 -0.00000000000E+00  0.00000000000E+00  0.32726948851E+03  0.32726948851E+03  0.00000000000E+00 0.  1.
          1   -1    0    0  501    0  0.00000000000E+00 -0.00000000000E+00 -0.51302924400E+02  0.51302924400E+02  0.00000000000E+00 0. -1.
         25    2    1    2    0    0 -0.37337847127E+02 -0.66675839500E+02  0.15970973561E+03  0.21678155774E+03  0.12508901520E+03 0.  0.
          5    1    3    3  502    0 -0.35245199953E+02 -0.28061465198E+02 -0.68317302894E+01  0.45758222076E+02  0.41800000000E+01 0. -1.
         -5    1    3    3    0  502 -0.20926471738E+01 -0.38614374303E+02  0.16654146590E+03  0.17102333566E+03  0.41800000000E+01 0. -1.
        -11    1    1    2    0    0 -0.78153186705E+01  0.66807285528E+02  0.66142699782E+02  0.94335302724E+02  0.00000000000E+00 0. -1.
         11    1    1    2    0    0  0.45153165798E+02 -0.13144602719E+00  0.50114128712E+02  0.67455552449E+02  0.00000000000E+00 0.  1.
</event>
<event>
 7    1  0.2771070E-009  0.2316233E+03  0.7561462E-02  0.1125502E+00
         -3   -1    0    0    0  501 -0.00000000000E+00  0.00000000000E+00  0.89561498092E+02  0.89561498092E+02  0.00000000000E+00 0.  1.
          3   -1    0    0  501    0  0.00000000000E+00 -0.00000000000E+00 -0.73046605563E+03  0.73046605563E+03  0.00000000000E+00 0. -1.
         25    2    1    2    0    0  0.17400376702E+03 -0.13206462693E+03 -0.20747238772E+03  0.32620644677E+03  0.12508987818E+03 0.  0.
          5    1    3    3  502    0  0.17208975561E+03 -0.10959794587E+03 -0.12209980077E+03  0.23780754293E+03  0.41800000000E+01 0.  1.
         -5    1    3    3    0  502  0.19140114102E+01 -0.22466681055E+02 -0.85372586953E+02  0.88398903841E+02  0.41800000000E+01 0.  1.
        -11    1    1    2    0    0 -0.68685776892E+02  0.17697155962E+01 -0.13921096486E+03  0.15524355245E+03  0.00000000000E+00 0.  1.
         11    1    1    2    0    0 -0.10531799013E+03  0.13029491133E+03 -0.29422120496E+03  0.33857755450E+03  0.00000000000E+00 0. -1.
</event>
<event>
 7    1  0.2651429E-009  0.1529906E+03  0.7561462E-02  0.1196846E+00
         -1   -1    0    0    0  501 -0.00000000000E+00  0.00000000000E+00  0.18808365776E+03  0.18808365776E+03  0.00000000000E+00 0.  1.
          1   -1    0    0  501    0  0.00000000000E+00 -0.00000000000E+00 -0.13754258329E+03  0.13754258329E+03  0.00000000000E+00 0. -1.
         25    2    1    2    0    0 -0.43261772071E+01  0.11707416162E+03 -0.23660464728E+01  0.17140517628E+03  0.12509620758E+03 0.  0.
          5    1    3    3  502    0  0.33396973197E+02 -0.51234881734E+01  0.22830797738E+02  0.40991775701E+02  0.41800000000E+01 0. -1.
         -5    1    3    3    0  502 -0.37723150404E+02  0.12219764980E+03 -0.25196844211E+02  0.13041340058E+03  0.41800000000E+01 0. -1.
        -11    1    1    2    0    0  0.29004294843E+02 -0.52634357435E+01  0.17901218444E+02  0.34487773151E+02  0.00000000000E+00 0.  1.
         11    1    1    2    0    0 -0.24678117636E+02 -0.11181072588E+03  0.35005902496E+02  0.11973329162E+03  0.00000000000E+00 0. -1.
</event>
<event>
 7    1  0.2651429E-009  0.7310434E+02  0.7561462E-02  0.1349844E+00
         -3   -1    0    0    0  501 -0.00000000000E+00  0.00000000000E+00  0.18213401733E+03  0.18213401733E+03  0.00000000000E+00 0.  1.
          3   -1    0    0  501    0  0.00000000000E+00 -0.00000000000E+00 -0.64518911503E+02  0.64518911503E+02  0.00000000000E+00 0. -1.
         25    2    1    2    0    0  0.11075153781E+02  0.23411048945E+02  0.61937228248E+02  0.14196528014E+03  0.12508870564E+03 0.  0.
          5    1    3    3  502    0  0.32846468166E+02 -0.16747013129E+02 -0.24253052114E+02  0.44328724959E+02  0.41800000000E+01 0.  1.
         -5    1    3    3    0  502 -0.21771314385E+02  0.40158062074E+02  0.86190280361E+02  0.97636555185E+02  0.41800000000E+01 0.  1.
        -11    1    1    2    0    0 -0.18231190300E+02  0.15339830813E+02  0.60466743707E+02  0.64991644107E+02  0.00000000000E+00 0.  1.
         11    1    1    2    0    0  0.71560365187E+01 -0.38750879757E+02 -0.47888661332E+01  0.39696004578E+02  0.00000000000E+00 0. -1.
</event>
<event>
 7    1  0.2651429E-009  0.9683961E+02  0.7561462E-02  0.1287086E+00
         -1   -1    0    0    0  501 -0.00000000000E+00  0.00000000000E+00  0.38240521714E+03  0.38240521714E+03  0.00000000000E+00 0.  1.
          1   -1    0    0  501    0  0.00000000000E+00 -0.00000000000E+00 -0.34305251728E+02  0.34305251728E+02  0.00000000000E+00 0. -1.
         25    2    1    2    0    0  0.33220261960E+02  0.52819669412E+00  0.25929203435E+03  0.28979956612E+03  0.12509022603E+03 0.  0.
          5    1    3    3  502    0  0.38519251586E+02  0.58849889860E+02  0.13230021015E+03  0.14989282933E+03  0.41800000000E+01 0.  1.
         -5    1    3    3    0  502 -0.52989896262E+01 -0.58321693166E+02  0.12699182420E+03  0.13990673678E+03  0.41800000000E+01 0.  1.
        -11    1    1    2    0    0 -0.45822762312E+02 -0.12106683455E+02  0.12930370838E+02  0.49127302187E+02  0.00000000000E+00 0. -1.
         11    1    1    2    0    0  0.12602500352E+02  0.11578486760E+02  0.75877560232E+02  0.77783600569E+02  0.00000000000E+00 0.  1.
</event>
<event>
 6    1  0.2651429E-009  0.1200471E+03  0.7561462E-02  0.1243019E+00
          1   -1    0    0  501    0  0.00000000000E+00  0.00000000000E+00  0.30120370478E+03  0.30120370478E+03  0.00000000000E+00 0. -1.
         -1   -1    0    0    0  501 -0.00000000000E+00 -0.00000000000E+00 -0.70493702889E+02  0.70493702889E+02  0.00000000000E+00 0.  1.
          5    1    1    2  502    0 -0.70849192897E+02  0.56649750801E+02  0.15537941190E+03  0.17996954310E+03  0.41800000000E+01 0. -1.
         -5    1    1    2    0  502 -0.22777876215E+02 -0.32672706489E+02 -0.23142881784E+01  0.40114407935E+02  0.41800000000E+01 0. -1.
        -11    1    1    2    0    0  0.87329066680E+02 -0.36943996650E+02  0.91390771635E+02  0.13169471484E+03  0.00000000000E+00 0. -1.
         11    1    1    2    0    0  0.62980024317E+01  0.12966952339E+02 -0.13745893469E+02  0.19918741799E+02  0.00000000000E+00 0.  1.
</event>
<event>
 7    1  0.2651429E-009  0.2559167E+03  0.7561462E-02  0.1109622E+00
          1   -1    0    0  501    0  0.00000000000E+00  0.00000000000E+00  0.13922483517E+04  0.13922483517E+04  0.00000000000E+00 0. -1.
         -1   -1    0    0    0  501 -0.00000000000E+00 -0.00000000000E+00 -0.75495773897E+02  0.75495773897E+02  0.00000000000E+00 0.  1.
         25    2    1    2    0    0 -0.34342282617E+02  0.23759329621E+03  0.10966561143E+04  0.11295720302E+04  0.12509345144E+03 0.  0.
          5    1    3    3  502    0 -0.20317881613E+02 -0.83740969801E+01  0.59996552957E+02  0.64031246905E+02  0.41800000000E+01 0.  1.
         -5    1    3    3    0  502 -0.14024401004E+02  0.24596739319E+03  0.10366595613E+04  0.10655407833E+04  0.41800000000E+01 0.  1.
        -11    1    1    2    0    0  0.33476428405E+02 -0.99798088195E+02  0.42821190712E+02  0.11363971155E+03  0.00000000000E+00 0.  1.
         11    1    1    2    0    0  0.86585421254E+00 -0.13779520801E+03  0.17727527279E+03  0.22453238385E+03  0.00000000000E+00 0. -1.
</event>
<event>
 7    1  0.2651429E-009  0.1353839E+03  0.7561462E-02  0.1219679E+00
         -2   -1    0    0    0  501 -0.00000000000E+00  0.00000000000E+00  0.12490268741E+04  0.12490268741E+04  0.00000000000E+00 0.  1.
          2   -1    0    0  501    0  0.00000000000E+00 -0.00000000000E+00 -0.17390834421E+02  0.17390834421E+02  0.00000000000E+00 0. -1.
         25    2    1    2    0    0  0.50653554659E+02 -0.86863676021E+02  0.69630225801E+03  0.71455915971E+03  0.12508747898E+03 0.  0.
          5    1    3    3  502    0 -0.17113782556E+02 -0.72883005739E+02  0.51547718076E+03  0.52090211207E+03  0.41800000000E+01 0.  1.
         -5    1    3    3    0  502  0.67767337214E+02 -0.13980670282E+02  0.18082507726E+03  0.19365704764E+03  0.41800000000E+01 0.  1.
        -11    1    1    2    0    0 -0.47286956131E+02  0.85189224907E+01  0.12140269716E+03  0.13056509157E+03  0.00000000000E+00 0. -1.
         11    1    1    2    0    0 -0.33665985277E+01  0.78344753530E+02  0.41393108454E+03  0.42129345727E+03  0.00000000000E+00 0.  1.
</event>
<event>
 7    1  0.2883058E-009  0.9903332E+02  0.7561462E-02  0.1282342E+00
         -4   -1    0    0    0  501 -0.00000000000E+00  0.00000000000E+00  0.15207214892E+03  0.15207214892E+03  0.00000000000E+00 0.  1.
          4   -1    0    0  501    0  0.00000000000E+00 -0.00000000000E+00 -0.12574538083E+03  0.12574538083E+03  0.00000000000E+00 0. -1.
         25    2    1    2    0    0  0.12506543966E+02  0.42716748264E+02  0.87596468703E+02  0.15906312378E+03  0.12508717677E+03 0.  0.
          5    1    3    3  502    0  0.42119896720E+02 -0.67120649524E+01  0.91623452131E+02  0.10115071377E+03  0.41800000000E+01 0. -1.
         -5    1    3    3    0  502 -0.29613352753E+02  0.49428813217E+02 -0.40269834283E+01  0.57912410007E+02  0.41800000000E+01 0. -1.
        -11    1    1    2    0    0  0.29103558491E+02 -0.47342031488E+02 -0.17683376793E+02  0.58317980736E+02  0.00000000000E+00 0.  1.
         11    1    1    2    0    0 -0.41610102458E+02  0.46252832241E+01 -0.43586323817E+02  0.60436425236E+02  0.00000000000E+00 0. -1.
</event>
<event>
 7    1  0.2651429E-009  0.9389651E+02  0.7561462E-02  0.1293681E+00
          2   -1    0    0  501    0  0.00000000000E+00  0.00000000000E+00  0.35742225277E+02  0.35742225277E+02  0.00000000000E+00 0. -1.
         -2   -1    0    0    0  501 -0.00000000000E+00 -0.00000000000E+00 -0.51951048462E+03  0.51951048462E+03  0.00000000000E+00 0.  1.
         25    2    1    2    0    0 -0.24845532170E+02  0.59775388651E+02 -0.16330118053E+03  0.21565137055E+03  0.12509132863E+03 0.  0.
          5    1    3    3  502    0 -0.40812205972E+02  0.41082614005E+02 -0.82911445387E+01  0.58648382821E+02  0.41800000000E+01 0.  1.
         -5    1    3    3    0  502  0.15966673803E+02  0.18692774647E+02 -0.15501003599E+03  0.15700298773E+03  0.41800000000E+01 0.  1.
        -11    1    1    2    0    0  0.49970303145E+02 -0.12892887668E+02 -0.21944828561E+03  0.22543470852E+03  0.00000000000E+00 0. -1.
         11    1    1    2    0    0 -0.25124770975E+02 -0.46882500983E+02 -0.10101879320E+03  0.11416663083E+03  0.00000000000E+00 0.  1.
</event>
<event>
 7    1  0.2651429E-009  0.1156965E+03  0.7561462E-02  0.1250370E+00
         -3   -1    0    0    0  501 -0.00000000000E+00  0.00000000000E+00  0.34594055960E+02  0.34594055960E+02  0.00000000000E+00 0.  1.
          3   -1    0    0  501    0  0.00000000000E+00 -0.00000000000E+00 -0.66287777299E+03  0.66287777299E+03  0.00000000000E+00 0. -1.
         25    2    1    2    0    0 -0.82876320904E+01 -0.78246974331E+02 -0.17714405060E+03  0.23069167504E+03  0.12508940976E+03 0.  0.
          5    1    3    3  502    0 -0.62907391181E+02 -0.24714330033E+02 -0.10817608969E+03  0.12762318267E+03  0.41800000000E+01 0.  1.
         -5    1    3    3    0  502  0.54619759090E+02 -0.53532644298E+02 -0.68967960910E+02  0.10306849238E+03  0.41800000000E+01 0.  1.
        -11    1    1    2    0    0  0.18378645334E+02  0.73802093516E+02 -0.44918900595E+03  0.45558235992E+03  0.00000000000E+00 0. -1.
         11    1    1    2    0    0 -0.10091013243E+02  0.44448808153E+01 -0.19506604866E+01  0.11197793983E+02  0.00000000000E+00 0.  1.
</event>
<event>
 7    1  0.2651429E-009  0.9989539E+02  0.7561462E-02  0.1280516E+00
          2   -1    0    0  501    0  0.00000000000E+00  0.00000000000E+00  0.10276046582E+04  0.10276046582E+04  0.00000000000E+00 0. -1.
         -2   -1    0    0    0  501 -0.00000000000E+00 -0.00000000000E+00 -0.13319943428E+02  0.13319943428E+02  0.00000000000E+00 0.  1.
         25    2    1    2    0    0 -0.41313019964E+02 -0.12884235126E+01  0.60821516566E+03  0.62231964668E+03  0.12509048427E+03 0.  0.
          5    1    3    3  502    0  0.22661377760E+02 -0.23178480571E+02  0.43653405143E+03  0.43775590283E+03  0.41800000000E+01 0. -1.
         -5    1    3    3    0  502 -0.63974397724E+02  0.21890057059E+02  0.17168111423E+03  0.18456374385E+03  0.41800000000E+01 0. -1.
        -11    1    1    2    0    0  0.54771021451E+02 -0.32015274267E+02  0.21401562789E+03  0.22322081345E+03  0.00000000000E+00 0. -1.
         11    1    1    2    0    0 -0.13458001486E+02  0.33303697780E+02  0.19205392121E+03  0.19538414148E+03  0.00000000000E+00 0.  1.
</event>
<event>
 7    1  0.2651429E-009  0.1652425E+03  0.7561462E-02  0.1182902E+00
          1   -1    0    0  501    0  0.00000000000E+00  0.00000000000E+00  0.13638143352E+03  0.13638143352E+03  0.00000000000E+00 0. -1.
         -1   -1    0    0    0  501 -0.00000000000E+00 -0.00000000000E+00 -0.24862533951E+03  0.24862533951E+03  0.00000000000E+00 0.  1.
         25    2    1    2    0    0  0.53054614136E+02  0.12649826228E+03 -0.11288940972E+03  0.21727624249E+03  0.12509334229E+03 0.  0.
          5    1    3    3  502    0  0.69532907566E+02  0.45125041364E+02 -0.10490000328E+03  0.13376314022E+03  0.41800000000E+01 0.  1.
         -5    1    3    3    0  502 -0.16478293430E+02  0.81373220916E+02 -0.79894064351E+01  0.83513102276E+02  0.41800000000E+01 0.  1.
        -11    1    1    2    0    0 -0.75850781103E+02 -0.69133684828E+02  0.16625882391E+02  0.10396743402E+03  0.00000000000E+00 0. -1.
         11    1    1    2    0    0  0.22796166967E+02 -0.57364577453E+02 -0.15980378664E+02  0.63763096513E+02  0.00000000000E+00 0.  1.
</event>
<event>
 7    1  0.2651429E-009  0.2710128E+03  0.7561462E-02  0.1100701E+00
          1   -1    0    0  501    0  0.00000000000E+00  0.00000000000E+00  0.10676194108E+04  0.10676194108E+04  0.00000000000E+00 0. -1.
         -1   -1    0    0    0  501 -0.00000000000E+00 -0.00000000000E+00 -0.72279793680E+02  0.72279793680E+02  0.00000000000E+00 0.  1.
         25    2    1    2    0    0 -0.17756457243E+03 -0.18014675470E+03  0.55572851318E+03  0.62326860620E+03  0.12509014550E+03 0.  0.
          5    1    3    3  502    0 -0.59240436549E+02 -0.14729769002E+03  0.29485162101E+03  0.33490444849E+03  0.41800000000E+01 0. -1.
         -5    1    3    3    0  502 -0.11832413588E+03 -0.32849064682E+02  0.26087689218E+03  0.28836415771E+03  0.41800000000E+01 0. -1.
        -11    1    1    2    0    0  0.12256683238E+03  0.80866589425E+02  0.17331196773E+03  0.22715429083E+03  0.00000000000E+00 0.  1.
         11    1    1    2    0    0  0.54997740049E+02  0.99280165279E+02  0.26629913621E+03  0.28947630745E+03  0.00000000000E+00 0. -1.
</event>
<event>
 7    1  0.2651429E-009  0.1314523E+03  0.7561462E-02  0.1225317E+00
          2   -1    0    0  501    0  0.00000000000E+00  0.00000000000E+00  0.26623131277E+04  0.26623131277E+04  0.00000000000E+00 0. -1.
         -2   -1    0    0    0  501 -0.00000000000E+00 -0.00000000000E+00 -0.13303967697E+02  0.13303967697E+02  0.00000000000E+00 0.  1.
         25    2    1    2    0    0  0.74158071235E+02  0.59376050650E+02  0.21992397952E+04  0.22048417955E+04  0.12508689546E+03 0.  0.
          5    1    3    3  502    0  0.87712080207E+02  0.48023250535E+01  0.17287040852E+04  0.17309395592E+04  0.41800000000E+01 0.  1.
         -5    1    3    3    0  502 -0.13554008973E+02  0.54573725597E+02  0.47053571007E+03  0.47390223627E+03  0.41800000000E+01 0.  1.
        -11    1    1    2    0    0 -0.31671564959E+02 -0.68187824656E+02  0.38843545863E+03  0.39564475603E+03  0.00000000000E+00 0. -1.
         11    1    1    2    0    0 -0.42486506275E+02  0.88117740058E+01  0.61333906189E+02  0.75130543888E+02  0.00000000000E+00 0.  1.
</event>
<event>
 7    1  0.3246841E-009  0.1381564E+03  0.7561462E-02  0.1215831E+00
         -2   -1    0    0    0  501 -0.00000000000E+00  0.00000000000E+00  0.43840428414E+02  0.43840428414E+02  0.00000000000E+00 0.  1.
          2   -1    0    0  501    0  0.00000000000E+00 -0.00000000000E+00 -0.55587362979E+03  0.55587362979E+03  0.00000000000E+00 0. -1.
         25    2    1    2    0    0 -0.10939292914E+02  0.11111010887E+03 -0.26196260475E+03  0.31102691276E+03  0.12509280454E+03 0.  0.
          5    1    3    3  502    0 -0.40960535823E+02  0.31177227441E+02 -0.19700129870E+03  0.20365846188E+03  0.41800000000E+01 0. -1.
         -5    1    3    3    0  502  0.30021242909E+02  0.79932881430E+02 -0.64961306051E+02  0.10736845088E+03  0.41800000000E+01 0. -1.
        -11    1    1    2    0    0  0.33796897436E+02 -0.96076391160E+01 -0.10068561249E+03  0.10664018739E+03  0.00000000000E+00 0. -1.
         11    1    1    2    0    0 -0.22857604522E+02 -0.10150246976E+03 -0.14938498414E+03  0.18204695805E+03  0.00000000000E+00 0.  1.
</event>
<event>
 7    1  0.2651429E-009  0.1052131E+03  0.7561462E-02  0.1269700E+00
         -1   -1    0    0    0  501 -0.00000000000E+00  0.00000000000E+00  0.85513473218E+02  0.85513473218E+02  0.00000000000E+00 0.  1.
          1   -1    0    0  501    0  0.00000000000E+00 -0.00000000000E+00 -0.15436360897E+03  0.15436360897E+03  0.00000000000E+00 0. -1.
         25    2    1    2    0    0 -0.83685272822E+01  0.35542789824E+02 -0.24031206377E+02  0.13250930780E+03  0.12509154894E+03 0.  0.
          5    1    3    3  502    0  0.44612980652E+02 -0.14877157691E+02  0.14952729400E+02  0.49524785514E+02  0.41800000000E+01 0. -1.
         -5    1    3    3    0  502 -0.52981507935E+02  0.50419947515E+02 -0.38983935778E+02  0.82984522287E+02  0.41800000000E+01 0. -1.
        -11    1    1    2    0    0  0.45426414339E+02 -0.16862155118E+02 -0.31484668748E+01  0.48557226430E+02  0.00000000000E+00 0.  1.
         11    1    1    2    0    0 -0.37057887057E+02 -0.18680634706E+02 -0.41670462497E+02  0.58810547955E+02  0.00000000000E+00 0. -1.
</event>
<event>
 7    1  0.2651429E-009  0.1423270E+03  0.7561462E-02  0.1210232E+00
         -1   -1    0    0    0  501 -0.00000000000E+00  0.00000000000E+00  0.85373606989E+02  0.85373606989E+02  0.00000000000E+00 0.  1.
          1   -1    0    0  501    0  0.00000000000E+00 -0.00000000000E+00 -0.43983988822E+03  0.43983988822E+03  0.00000000000E+00 0. -1.
         25    2    1    2    0    0  0.40936935595E+02 -0.10547788304E+03 -0.32299423285E+02  0.17172270519E+03  0.12507604977E+03 0.  0.
          5    1    3    3  502    0 -0.41163838996E+02 -0.36155328970E+02 -0.33174570318E+02  0.64184842211E+02  0.41800000000E+01 0.  1.
         -5    1    3    3    0  502  0.82100774591E+02 -0.69322554071E+02  0.87514703299E+00  0.10753786298E+03  0.41800000000E+01 0.  1.
        -11    1    1    2    0    0 -0.36400120163E+02  0.31737555915E+02 -0.42831621091E+02  0.64550669776E+02  0.00000000000E+00 0.  1.
         11    1    1    2    0    0 -0.45368154323E+01  0.73740327126E+02 -0.27933523686E+03  0.28894012025E+03  0.00000000000E+00 0. -1.
</event>
<event>
 7    1  0.2651429E-009  0.1329747E+03  0.7561462E-02  0.1223107E+00
          1   -1    0    0  501    0  0.00000000000E+00  0.00000000000E+00  0.16854110875E+03  0.16854110875E+03  0.00000000000E+00 0. -1.
         -1   -1    0    0    0  501 -0.00000000000E+00 -0.00000000000E+00 -0.13332697895E+03  0.13332697895E+03  0.00000000000E+00 0.  1.
         25    2    1    2    0    0 -0.18817385036E+02  0.83775568494E+02  0.75390259248E+02  0.16942127905E+03  0.12508972280E+03 0.  0.
          5    1    3    3  502    0  0.41308601089E+02  0.64073662202E+02  0.78064242683E+01  0.76747947020E+02  0.41800000000E+01 0. -1.
         -5    1    3    3    0  502 -0.60125986125E+02  0.19701906291E+02  0.67583834980E+02  0.92673332030E+02  0.41800000000E+01 0. -1.
        -11    1    1    2    0    0 -0.24905788639E+02  0.66241678926E+01 -0.73472489738E+01  0.26798506963E+02  0.00000000000E+00 0.  1.
         11    1    1    2    0    0  0.43723173675E+02 -0.90399736386E+02 -0.32828880477E+02  0.10564830168E+03  0.00000000000E+00 0. -1.
</event>
<event>
 7    1  0.2651429E-009  0.8835871E+02  0.7561462E-02  0.1306876E+00
         -3   -1    0    0    0  501 -0.00000000000E+00  0.00000000000E+00  0.11607913290E+03  0.11607913290E+03  0.00000000000E+00 0.  1.
          3   -1    0    0  501    0  0.00000000000E+00 -0.00000000000E+00 -0.10282593805E+03  0.10282593805E+03  0.00000000000E+00 0. -1.
         25    2    1    2    0    0  0.17411091397E+02  0.11599270057E+01  0.38548213036E+02  0.13205214803E+03  0.12508922231E+03 0.  0.
          5    1    3    3  502    0 -0.45168768415E+02 -0.10879315758E+02 -0.14691515025E+02  0.48906954160E+02  0.41800000000E+01 0.  1.
         -5    1    3    3    0  502  0.62579859811E+02  0.12039242763E+02  0.53239728061E+02  0.83145193874E+02  0.41800000000E+01 0.  1.
        -11    1    1    2    0    0 -0.40779762378E+02  0.71517451030E+01  0.11049985256E+02  0.42851355308E+02  0.00000000000E+00 0.  1.
         11    1    1    2    0    0  0.23368670981E+02 -0.83116721087E+01 -0.36345003445E+02  0.44001567610E+02  0.00000000000E+00 0. -1.
</event>
<event>
 7    1  0.2651429E-009  0.1951884E+03  0.7561462E-02  0.1153863E+00
          4   -1    0    0  501    0  0.00000000000E+00  0.00000000000E+00  0.67685214116E+03  0.67685214116E+03  0.00000000000E+00 0.  1.
         -4   -1    0    0    0  501 -0.00000000000E+00 -0.00000000000E+00 -0.81948065178E+02  0.81948065178E+02  0.00000000000E+00 0. -1.
         25    2    1    2    0    0  0.20372535159E+02 -0.18037011457E+03  0.46987083086E+03  0.51901333139E+03  0.12509125489E+03 0.  0.
          5    1    3    3  502    0  0.34013302064E+02 -0.60211164537E+02  0.59986852996E+02  0.91641606187E+02  0.41800000000E+01 0.  1.
         -5    1    3    3    0  502 -0.13640766905E+02 -0.12015895004E+03  0.40988397786E+03  0.42737172520E+03  0.41800000000E+01 0.  1.
        -11    1    1    2    0    0  0.31010276424E+02  0.10003603998E+03  0.40296488725E+02  0.11221699311E+03  0.00000000000E+00 0. -1.
         11    1    1    2    0    0 -0.51382811583E+02  0.80334074594E+02  0.84736756398E+02  0.12756988184E+03  0.00000000000E+00 0.  1.
</event>
<event>
 7    1  0.2651429E-009  0.1737866E+03  0.7561462E-02  0.1173956E+00
          2   -1    0    0  501    0  0.00000000000E+00  0.00000000000E+00  0.20074230211E+04  0.20074230211E+04  0.00000000000E+00 0.  1.
         -2   -1    0    0    0  501 -0.00000000000E+00 -0.00000000000E+00 -0.16668081362E+02  0.16668081362E+02  0.00000000000E+00 0. -1.
         25    2    1    2    0    0  0.23773904573E+02  0.13867750005E+03  0.13023785682E+04  0.13159176293E+04  0.12511044981E+03 0.  0.
          5    1    3    3  502    0 -0.48393759607E+02  0.28605641263E+02  0.36175755629E+03  0.36612325877E+03  0.41800000000E+01 0.  1.
         -5    1    3    3    0  502  0.72167664179E+02  0.11007185878E+03  0.94062101191E+03  0.94979437054E+03  0.41800000000E+01 0.  1.
        -11    1    1    2    0    0 -0.51206230227E+02 -0.84955608269E+02  0.32421218879E+03  0.33904730754E+03  0.00000000000E+00 0. -1.
         11    1    1    2    0    0  0.27432325654E+02 -0.53721891777E+02  0.36416418272E+03  0.36912616559E+03  0.00000000000E+00 0.  1.
</event>
<event>
 7    1  0.2651429E-009  0.7473240E+02  0.7561462E-02  0.1344702E+00
          1   -1    0    0  501    0  0.00000000000E+00  0.00000000000E+00  0.33068486774E+03  0.33068486774E+03  0.00000000000E+00 0.  1.
         -1   -1    0    0    0  501 -0.00000000000E+00 -0.00000000000E+00 -0.40373158537E+02  0.40373158537E+02  0.00000000000E+00 0. -1.
         25    2    1    2    0    0 -0.17698715847E+02  0.27283473336E+02  0.12492655497E+03  0.17977834738E+03  0.12512384901E+03 0.  0.
          5    1    3    3  502    0 -0.88048331571E+01 -0.13498854344E+02  0.13549805965E+03  0.13651718106E+03  0.41800000000E+01 0.  1.
         -5    1    3    3    0  502 -0.88938826895E+01  0.40782327679E+02 -0.10571504681E+02  0.43261166321E+02  0.41800000000E+01 0.  1.
        -11    1    1    2    0    0  0.22858117774E+02 -0.56629746785E+02  0.78689216941E+02  0.99606298154E+02  0.00000000000E+00 0. -1.
         11    1    1    2    0    0 -0.51594019272E+01  0.29346273449E+02  0.86695937295E+02  0.91673380744E+02  0.00000000000E+00 0.  1.
</event>
<event>
 7    1  0.2651429E-009  0.1117270E+03  0.7561462E-02  0.1257405E+00
          1   -1    0    0  501    0  0.00000000000E+00  0.00000000000E+00  0.68968781096E+03  0.68968781096E+03  0.00000000000E+00 0. -1.
         -1   -1    0    0    0  501 -0.00000000000E+00 -0.00000000000E+00 -0.21602779699E+02  0.21602779699E+02  0.00000000000E+00 0.  1.
         25    2    1    2    0    0  0.57727910443E+02  0.22407147184E+02  0.45583866622E+03  0.47672959124E+03  0.12509045387E+03 0.  0.
          5    1    3    3  502    0  0.87654087686E+02  0.41601956723E+02  0.25788388371E+03  0.27556402481E+03  0.41800000000E+01 0.  1.
         -5    1    3    3    0  502 -0.29926177243E+02 -0.19194809538E+02  0.19795478251E+03  0.20116556643E+03  0.41800000000E+01 0.  1.
        -11    1    1    2    0    0 -0.89563139148E+01 -0.38231040332E+02  0.14364516206E+03  0.14891527990E+03  0.00000000000E+00 0. -1.
         11    1    1    2    0    0 -0.48771596528E+02  0.15823893148E+02  0.68601202973E+02  0.85645719517E+02  0.00000000000E+00 0.  1.
</event>
<event>
 7    1  0.2651429E-009  0.1756669E+03  0.7561462E-02  0.1172064E+00
         -1   -1    0    0    0  501 -0.00000000000E+00  0.00000000000E+00  0.16477779848E+02  0.16477779848E+02  0.00000000000E+00 0.  1.
          1   -1    0    0  501    0  0.00000000000E+00 -0.00000000000E+00 -0.22166159433E+04  0.22166159433E+04  0.00000000000E+00 0. -1.
         25    2    1    2    0    0 -0.12913720534E+03 -0.57393901575E+02 -0.15680771851E+04  0.15793917743E+04  0.12506734440E+03 0.  0.
          5    1    3    3  502    0 -0.11435185796E+03 -0.93289324051E+02 -0.13248149152E+04  0.13330158578E+04  0.41800000000E+01 0.  1.
         -5    1    3    3    0  502 -0.14785347379E+02  0.35895422476E+02 -0.24326226993E+03  0.24637591649E+03  0.41800000000E+01 0.  1.
        -11    1    1    2    0    0  0.11593384428E+03  0.11045726210E+02 -0.49150606600E+03  0.50511471690E+03  0.00000000000E+00 0.  1.
         11    1    1    2    0    0  0.13203361063E+02  0.46348175365E+02 -0.14055491234E+03  0.14858723191E+03  0.00000000000E+00 0. -1.
</event>
<event>
 7    1  0.2651429E-009  0.1085179E+03  0.7561462E-02  0.1263339E+00
         -2   -1    0    0    0  501 -0.00000000000E+00  0.00000000000E+00  0.16404109155E+02  0.16404109155E+02  0.00000000000E+00 0.  1.
          2   -1    0    0  501    0  0.00000000000E+00 -0.00000000000E+00 -0.11148648942E+04  0.11148648942E+04  0.00000000000E+00 0. -1.
         25    2    1    2    0    0 -0.47449037206E+02  0.91239677913E+01 -0.87056030959E+03  0.88082824727E+03  0.12509392726E+03 0.  0.
          5    1    3    3  502    0 -0.60274226525E+02 -0.33087220797E+02 -0.27048404741E+03  0.27911796587E+03  0.41800000000E+01 0. -1.
         -5    1    3    3    0  502  0.12825189319E+02  0.42211188588E+02 -0.60007626217E+03  0.60171028140E+03  0.41800000000E+01 0. -1.
        -11    1    1    2    0    0  0.70470548387E+02  0.13281790940E+02 -0.15733918898E+03  0.17291074157E+03  0.00000000000E+00 0. -1.
         11    1    1    2    0    0 -0.23021511181E+02 -0.22405758731E+02 -0.70561286443E+02  0.77530014484E+02  0.00000000000E+00 0.  1.
</event>
<event>
 7    1  0.2651429E-009  0.9437371E+02  0.7561462E-02  0.1292593E+00
         -1   -1    0    0    0  501 -0.00000000000E+00  0.00000000000E+00  0.21654905837E+03  0.21654905837E+03  0.00000000000E+00 0.  1.
          1   -1    0    0  501    0  0.00000000000E+00 -0.00000000000E+00 -0.63576567317E+02  0.63576567317E+02  0.00000000000E+00 0. -1.
         25    2    1    2    0    0 -0.38065273605E+00 -0.58091068832E+01  0.11276670523E+03  0.16851549618E+03  0.12508897644E+03 0.  0.
          5    1    3    3  502    0  0.43964251214E+00  0.57162468907E+02  0.30811141901E+02  0.65073343255E+02  0.41800000000E+01 0.  1.
         -5    1    3    3    0  502 -0.82029524819E+00 -0.62971575791E+02  0.81955563329E+02  0.10344215293E+03  0.41800000000E+01 0.  1.
        -11    1    1    2    0    0 -0.28637482650E+02 -0.15265038352E+02  0.61760831852E+02  0.69767665573E+02  0.00000000000E+00 0.  1.
         11    1    1    2    0    0  0.29018135386E+02  0.21074145235E+02 -0.21555046028E+02  0.41842463932E+02  0.00000000000E+00 0. -1.
</event>
<event>
 7    1  0.2651429E-009  0.2003666E+03  0.7561462E-02  0.1149430E+00
          1   -1    0    0  501    0  0.00000000000E+00  0.00000000000E+00  0.93323196695E+03  0.93323196695E+03  0.00000000000E+00 0. -1.
         -1   -1    0    0    0  501 -0.00000000000E+00 -0.00000000000E+00 -0.64446000100E+02  0.64446000100E+02  0.00000000000E+00 0.  1.
         25    2    1    2    0    0 -0.17022223110E+03  0.11333370561E+02  0.16633556293E+03  0.26910579426E+03  0.12508539389E+03 0.  0.
          5    1    3    3  502    0 -0.18139897833E+03  0.34745107771E+02  0.13905881516E+03  0.23123070369E+03  0.41800000000E+01 0. -1.
         -5    1    3    3    0  502  0.11176747228E+02 -0.23411737209E+02  0.27276747765E+02  0.37875090579E+02  0.41800000000E+01 0. -1.
        -11    1    1    2    0    0  0.13175752896E+03 -0.44348993913E+02  0.44618333944E+03  0.46733976088E+03  0.00000000000E+00 0.  1.
         11    1    1    2    0    0  0.38464702140E+02  0.33015623351E+02  0.25626706448E+03  0.26123241191E+03  0.00000000000E+00 0. -1.
</event>
<event>
 7    1  0.2651429E-009  0.1383977E+03  0.7561462E-02  0.1215501E+00
         -2   -1    0    0    0  501 -0.00000000000E+00  0.00000000000E+00  0.47634505243E+03  0.47634505243E+03  0.00000000000E+00 0. -1.
          2   -1    0    0  501    0  0.00000000000E+00 -0.00000000000E+00 -0.41365841955E+02  0.41365841955E+02  0.00000000000E+00 0.  1.
         25    2    1    2    0    0 -0.83006696334E+02 -0.33606128300E+02  0.24433177617E+03  0.28873141523E+03  0.12509328437E+03 0.  0.
          5    1    3    3  502    0 -0.11291287712E+03 -0.38560873929E+02  0.16468277609E+03  0.20340636165E+03  0.41800000000E+01 0.  1.
         -5    1    3    3    0  502  0.29906180791E+02  0.49547456287E+01  0.79649000077E+02  0.85325053572E+02  0.41800000000E+01 0.  1.
        -11    1    1    2    0    0  0.95724232735E+02  0.54131388535E+01  0.14232131535E+03  0.17160357691E+03  0.00000000000E+00 0.  1.
         11    1    1    2    0    0 -0.12717536400E+02  0.28192989447E+02  0.48326118956E+02  0.57375902254E+02  0.00000000000E+00 0. -1.
</event>
<event>
 7    1  0.2651429E-009  0.1662780E+03  0.7561462E-02  0.1181786E+00
          2   -1    0    0  501    0  0.00000000000E+00  0.00000000000E+00  0.15349559486E+04  0.15349559486E+04  0.00000000000E+00 0. -1.
         -2   -1    0    0    0  501 -0.00000000000E+00 -0.00000000000E+00 -0.23553522165E+02  0.23553522165E+02  0.00000000000E+00 0.  1.
         25    2    1    2    0    0 -0.91711022924E+02  0.10733715003E+03  0.10584172390E+04  0.10750938916E+04  0.12509056112E+03 0.  0.
          5    1    3    3  502    0 -0.11996672912E+03  0.10300772871E+03  0.93916434102E+03  0.95239158969E+03  0.41800000000E+01 0.  1.
         -5    1    3    3    0  502  0.28255706200E+02  0.43294213202E+01  0.11925289798E+03  0.12270230192E+03  0.41800000000E+01 0.  1.
        -11    1    1    2    0    0  0.59091832330E+02 -0.42111383240E+02  0.10349655461E+03  0.12639916955E+03  0.00000000000E+00 0.  1.
         11    1    1    2    0    0  0.32619190593E+02 -0.65225766789E+02  0.34948863281E+03  0.35701640958E+03  0.00000000000E+00 0. -1.
</event>
<event>
 7    1  0.2651429E-009  0.1835406E+03  0.7561462E-02  0.1164420E+00
         -1   -1    0    0    0  501 -0.00000000000E+00  0.00000000000E+00  0.96564428243E+02  0.96564428243E+02  0.00000000000E+00 0.  1.
          1   -1    0    0  501    0  0.00000000000E+00 -0.00000000000E+00 -0.40519265318E+03  0.40519265318E+03  0.00000000000E+00 0. -1.
         25    2    1    2    0    0 -0.91914296362E+02  0.13515390356E+03 -0.18486443343E+03  0.27665235706E+03  0.12508737905E+03 0.  0.
          5    1    3    3  502    0 -0.23914811595E+02 -0.11647849199E+02  0.47703716251E+01  0.27346287683E+02  0.41800000000E+01 0.  1.
         -5    1    3    3    0  502 -0.67999484767E+02  0.14680175276E+03 -0.18963480505E+03  0.24930606938E+03  0.41800000000E+01 0.  1.
        -11    1    1    2    0    0  0.29938167408E+02 -0.34346437243E+00  0.28170970943E+01  0.30072377218E+02  0.00000000000E+00 0.  1.
         11    1    1    2    0    0  0.61976128954E+02 -0.13481043918E+03 -0.12658088860E+03  0.19503234714E+03  0.00000000000E+00 0. -1.
</event>
<event>
 7    1  0.2651429E-009  0.1209082E+03  0.7561462E-02  0.1241606E+00
          2   -1    0    0  501    0  0.00000000000E+00  0.00000000000E+00  0.45349335663E+03  0.45349335663E+03  0.00000000000E+00 0. -1.
         -2   -1    0    0    0  501 -0.00000000000E+00 -0.00000000000E+00 -0.36272494688E+02  0.36272494688E+02  0.00000000000E+00 0.  1.
         25    2    1    2    0    0 -0.26919322365E+02 -0.63853669782E+02  0.25452370702E+03  0.29194020373E+03  0.12507927108E+03 0.  0.
          5    1    3    3  502    0  0.39922497431E+02 -0.44867706203E+02  0.18073404777E+03  0.19049720545E+03  0.41800000000E+01 0. -1.
         -5    1    3    3    0  502 -0.66841819795E+02 -0.18985963579E+02  0.73789659249E+02  0.10144299827E+03  0.41800000000E+01 0. -1.
        -11    1    1    2    0    0  0.36243982857E+02 -0.99712080702E+01  0.63963672787E+02  0.74191662066E+02  0.00000000000E+00 0.  1.
         11    1    1    2    0    0 -0.93246604923E+01  0.73824877852E+02  0.98733482134E+02  0.12363398553E+03  0.00000000000E+00 0. -1.
</event>
<event>
 7    1  0.2651429E-009  0.6185300E+02  0.7561462E-02  0.1390216E+00
          2   -1    0    0  501    0  0.00000000000E+00  0.00000000000E+00  0.18823916758E+03  0.18823916758E+03  0.00000000000E+00 0. -1.
         -2   -1    0    0    0  501 -0.00000000000E+00 -0.00000000000E+00 -0.74625934765E+02  0.74625934765E+02  0.00000000000E+00 0.  1.
         25    2    1    2    0    0  0.10903766489E+02 -0.38376644167E+02  0.98146004036E+02  0.16392610729E+03  0.12508985411E+03 0.  0.
          5    1    3    3  502    0  0.22787777238E+02 -0.76104732145E+01 -0.25857882366E+02  0.35542996138E+02  0.41800000000E+01 0.  1.
         -5    1    3    3    0  502 -0.11884010749E+02 -0.30766170952E+02  0.12400388640E+03  0.12838311115E+03  0.41800000000E+01 0.  1.
        -11    1    1    2    0    0 -0.26072722753E+02  0.14031953862E+01 -0.29087138186E+02  0.39087305316E+02  0.00000000000E+00 0.  1.
         11    1    1    2    0    0  0.15168956264E+02  0.36973448780E+02  0.44554366964E+02  0.59851689737E+02  0.00000000000E+00 0. -1.
</event>
<event>
 7    1  0.2651429E-009  0.1070226E+03  0.7561462E-02  0.1266185E+00
          1   -1    0    0  501    0  0.00000000000E+00  0.00000000000E+00  0.10018533782E+03  0.10018533782E+03  0.00000000000E+00 0. -1.
         -1   -1    0    0    0  501 -0.00000000000E+00 -0.00000000000E+00 -0.19473581120E+03  0.19473581120E+03  0.00000000000E+00 0.  1.
         25    2    1    2    0    0  0.50703685213E+02 -0.63244246110E+02 -0.88798852291E+02  0.17350370885E+03  0.12509037715E+03 0.  0.
          5    1    3    3  502    0 -0.19630166348E+02 -0.47127354964E+01  0.21729402742E+02  0.29953174293E+02  0.41800000000E+01 0. -1.
         -5    1    3    3    0  502  0.70333851561E+02 -0.58531510613E+02 -0.11052825503E+03  0.14355053455E+03  0.41800000000E+01 0. -1.
        -11    1    1    2    0    0 -0.10512491373E+01 -0.11800316491E+02  0.23899283202E+02  0.26674488403E+02  0.00000000000E+00 0. -1.
         11    1    1    2    0    0 -0.49652436076E+02  0.75044562601E+02 -0.29650904291E+02  0.94742951767E+02  0.00000000000E+00 0.  1.
</event>
<event>
 7    1  0.2651429E-009  0.1993280E+03  0.7561462E-02  0.1150307E+00
         -2   -1    0    0    0  501 -0.00000000000E+00  0.00000000000E+00  0.41489579708E+03  0.41489579708E+03  0.00000000000E+00 0.  1.
          2   -1    0    0  501    0  0.00000000000E+00 -0.00000000000E+00 -0.11410780083E+03  0.11410780083E+03  0.00000000000E+00 0. -1.
         25    2    1    2    0    0  0.68232168515E+02  0.16583156812E+03  0.86438344023E+02  0.23510155570E+03  0.12508163882E+03 0.  0.
          5    1    3    3  502    0  0.82730345001E+02  0.16759271736E+03  0.46892324670E+02  0.19273814207E+03  0.41800000000E+01 0.  1.
         -5    1    3    3    0  502 -0.14498176486E+02 -0.17611492376E+01  0.39546019353E+02  0.42363413633E+02  0.41800000000E+01 0.  1.
        -11    1    1    2    0    0 -0.71039091830E+02 -0.67011141023E+02  0.75429032137E+02  0.12339604726E+03  0.00000000000E+00 0.  1.
         11    1    1    2    0    0  0.28069233147E+01 -0.98820427097E+02  0.13892062009E+03  0.17050599496E+03  0.00000000000E+00 0. -1.
</event>
<event>
 7    1  0.2651429E-009  0.1449793E+03  0.7561462E-02  0.1206782E+00
          2   -1    0    0  501    0  0.00000000000E+00  0.00000000000E+00  0.90220003023E+02  0.90220003023E+02  0.00000000000E+00 0. -1.
         -2   -1    0    0    0  501 -0.00000000000E+00 -0.00000000000E+00 -0.27911943665E+03  0.27911943665E+03  0.00000000000E+00 0.  1.
         25    2    1    2    0    0  0.65417760271E+02 -0.88051408108E+02 -0.60637088430E+02  0.17706782966E+03  0.12507448172E+03 0.  0.
          5    1    3    3  502    0  0.89550505727E+02 -0.10317283955E+03 -0.42885087256E+02  0.14324989007E+03  0.41800000000E+01 0. -1.
         -5    1    3    3    0  502 -0.24132745456E+02  0.15121431443E+02 -0.17752001174E+02  0.33817939585E+02  0.41800000000E+01 0. -1.
        -11    1    1    2    0    0 -0.11719517814E+02  0.65016374274E+02 -0.19624599418E+02  0.68917348497E+02  0.00000000000E+00 0. -1.
         11    1    1    2    0    0 -0.53698242456E+02  0.23035033835E+02 -0.10863774578E+03  0.12335426152E+03  0.00000000000E+00 0.  1.
</event>
<event>
 7    1  0.2651429E-009  0.9156410E+02  0.7561462E-02  0.1299108E+00
         -2   -1    0    0    0  501 -0.00000000000E+00  0.00000000000E+00  0.61578899274E+03  0.61578899274E+03  0.00000000000E+00 0. -1.
          2   -1    0    0  501    0  0.00000000000E+00 -0.00000000000E+00 -0.26038539152E+02  0.26038539152E+02  0.00000000000E+00 0.  1.
         25    2    1    2    0    0  0.56671343875E+02  0.29519132696E+02  0.35586082614E+03  0.38258119244E+03  0.12509364819E+03 0.  0.
          5    1    3    3  502    0  0.32200461810E+02  0.56545179066E+02  0.33304781617E+03  0.33937081087E+03  0.41800000000E+01 0.  1.
         -5    1    3    3    0  502  0.24470882065E+02 -0.27026046371E+02  0.22813009972E+02  0.43210381570E+02  0.41800000000E+01 0.  1.
        -11    1    1    2    0    0 -0.19101977014E+02  0.14037295864E+02  0.63387295825E+01  0.24537943959E+02  0.00000000000E+00 0.  1.
         11    1    1    2    0    0 -0.37569366861E+02 -0.43556428559E+02  0.22755089787E+03  0.23470839550E+03  0.00000000000E+00 0. -1.
</event>
<event>
 7    1  0.2651429E-009  0.1297556E+03  0.7561462E-02  0.1227819E+00
          2   -1    0    0  501    0  0.00000000000E+00  0.00000000000E+00  0.96076399499E+02  0.96076399499E+02  0.00000000000E+00 0.  1.
         -2   -1    0    0    0  501 -0.00000000000E+00 -0.00000000000E+00 -0.20889605617E+03  0.20889605617E+03  0.00000000000E+00 0. -1.
         25    2    1    2    0    0  0.73397136419E+02 -0.43351239466E+02 -0.96823688289E+02  0.17970753235E+03  0.12511395194E+03 0.  0.
          5    1    3    3  502    0 -0.16421038680E+02 -0.57822913350E+02 -0.41165280443E+02  0.72973916803E+02  0.41800000000E+01 0.  1.
         -5    1    3    3    0  502  0.89818175099E+02  0.14471673884E+02 -0.55658407847E+02  0.10673361554E+03  0.41800000000E+01 0.  1.
        -11    1    1    2    0    0 -0.24948033055E+02 -0.17446395239E+02  0.23130057748E+02  0.38233239878E+02  0.00000000000E+00 0.  1.
         11    1    1    2    0    0 -0.48449103364E+02  0.60797634705E+02 -0.39126026132E+02  0.87031683445E+02  0.00000000000E+00 0. -1.
</event>
<event>
 7    1  0.2651429E-009  0.1248195E+03  0.7561462E-02  0.1235352E+00
          2   -1    0    0  501    0  0.00000000000E+00  0.00000000000E+00  0.39450895489E+03  0.39450895489E+03  0.00000000000E+00 0. -1.
         -2   -1    0    0    0  501 -0.00000000000E+00 -0.00000000000E+00 -0.61229471212E+02  0.61229471212E+02  0.00000000000E+00 0.  1.
         25    2    1    2    0    0  0.18118652350E+02  0.89920277477E+02  0.25451507552E+03  0.29805943329E+03  0.12509020841E+03 0.  0.
          5    1    3    3  502    0 -0.22091829138E+02  0.80585064756E+01  0.17608527631E+03  0.17769773599E+03  0.41800000000E+01 0. -1.
         -5    1    3    3    0  502  0.40210481488E+02  0.81861771001E+02  0.78429799210E+02  0.12036169730E+03  0.41800000000E+01 0. -1.
        -11    1    1    2    0    0 -0.18665760989E+02  0.18354640530E+02  0.27200871342E+02  0.37751700148E+02  0.00000000000E+00 0. -1.
         11    1    1    2    0    0  0.54710863845E+00 -0.10827491801E+03  0.51563536813E+02  0.11992729266E+03  0.00000000000E+00 0.  1.
</event>
<event>
 7    1  0.2651429E-009  0.1637973E+03  0.7561462E-02  0.1184475E+00
          2   -1    0    0  501    0  0.00000000000E+00  0.00000000000E+00  0.36387870437E+03  0.36387870437E+03  0.00000000000E+00 0. -1.
         -2   -1    0    0    0  501 -0.00000000000E+00 -0.00000000000E+00 -0.90091527263E+02  0.90091527263E+02  0.00000000000E+00 0.  1.
         25    2    1    2    0    0 -0.17955548502E+02 -0.14293226391E+03  0.13649517288E+03  0.23458893508E+03  0.12509597296E+03 0.  0.
          5    1    3    3  502    0 -0.57462871540E+02 -0.35656704224E+02  0.18482209799E+02  0.70231379317E+02  0.41800000000E+01 0.  1.
         -5    1    3    3    0  502  0.39507323038E+02 -0.10727555969E+03  0.11801296308E+03  0.16435755576E+03  0.41800000000E+01 0.  1.
        -11    1    1    2    0    0  0.92970977004E+00  0.86347814728E+02  0.13498877475E+03  0.16024599458E+03  0.00000000000E+00 0. -1.
         11    1    1    2    0    0  0.17025838732E+02  0.56584449183E+02  0.23032294686E+01  0.59135301976E+02  0.00000000000E+00 0.  1.
</event>
<event>
 7    1  0.2651429E-009  0.1341481E+03  0.7561462E-02  0.1221427E+00
         -1   -1    0    0    0  501 -0.00000000000E+00  0.00000000000E+00  0.10786020384E+02  0.10786020384E+02  0.00000000000E+00 0.  1.
          1   -1    0    0  501    0  0.00000000000E+00 -0.00000000000E+00 -0.17830726850E+04  0.17830726850E+04  0.00000000000E+00 0. -1.
         25    2    1    2    0    0  0.35916880809E+02 -0.71548256762E+02 -0.11760592102E+04  0.11853996506E+04  0.12509152860E+03 0.  0.
          5    1    3    3  502    0  0.42406710455E+02  0.25567444853E+02 -0.32395094320E+03  0.32774030776E+03  0.41800000000E+01 0.  1.
         -5    1    3    3    0  502 -0.64898296461E+01 -0.97115701615E+02 -0.85210826696E+03  0.85765934287E+03  0.41800000000E+01 0.  1.
        -11    1    1    2    0    0  0.19022369043E+02  0.62713600010E+02 -0.34013239981E+03  0.34638835944E+03  0.00000000000E+00 0. -1.
         11    1    1    2    0    0 -0.54939249852E+02  0.88346567514E+01 -0.25609505462E+03  0.26207069530E+03  0.00000000000E+00 0.  1.
</event>
<event>
 7    1  0.2651429E-009  0.1566337E+03  0.7561462E-02  0.1192551E+00
         -1   -1    0    0    0  501 -0.00000000000E+00  0.00000000000E+00  0.30487336730E+02  0.30487336730E+02  0.00000000000E+00 0.  1.
          1   -1    0    0  501    0  0.00000000000E+00 -0.00000000000E+00 -0.98480424230E+03  0.98480424230E+03  0.00000000000E+00 0. -1.
         25    2    1    2    0    0 -0.12875114103E+02  0.12538377680E+03 -0.65013956894E+03  0.67395555886E+03  0.12509107150E+03 0.  0.
          5    1    3    3  502    0 -0.61250796350E+02  0.10837593775E+03 -0.41691112651E+03  0.43511994179E+03  0.41800000000E+01 0.  1.
         -5    1    3    3    0  502  0.48375682247E+02  0.17007839045E+02 -0.23322844243E+03  0.23883561707E+03  0.41800000000E+01 0.  1.
        -11    1    1    2    0    0 -0.14963697605E+02 -0.87128730585E+01 -0.35667008083E+01  0.17679020267E+02  0.00000000000E+00 0.  1.
         11    1    1    2    0    0  0.27838811708E+02 -0.11667090374E+03 -0.30061063582E+03  0.32365699990E+03  0.00000000000E+00 0. -1.
</event>
<event>
 7    1  0.2651429E-009  0.1524607E+03  0.7561462E-02  0.1197482E+00
          2   -1    0    0  501    0  0.00000000000E+00  0.00000000000E+00  0.90894086578E+03  0.90894086578E+03  0.00000000000E+00 0.  1.
         -2   -1    0    0    0  501 -0.00000000000E+00 -0.00000000000E+00 -0.26800675569E+02  0.26800675569E+02  0.00000000000E+00 0. -1.
         25    2    1    2    0    0 -0.92755730564E+02 -0.57158750293E+02  0.52103546782E+03  0.54680531341E+03  0.12508934313E+03 0.  0.
          5    1    3    3  502    0  0.27926709752E+02 -0.40656610480E+01  0.15782312897E+03  0.16038093139E+03  0.41800000000E+01 0.  1.
         -5    1    3    3    0  502 -0.12068244032E+03 -0.53093089245E+02  0.36321233885E+03  0.38642438202E+03  0.41800000000E+01 0.  1.
        -11    1    1    2    0    0  0.46041832329E+02 -0.23180419343E+02  0.12873793370E+03  0.13867457496E+03  0.00000000000E+00 0.  1.
         11    1    1    2    0    0  0.46713898235E+02  0.80339169636E+02  0.23236678869E+03  0.25026165298E+03  0.00000000000E+00 0. -1.
</event>
<event>
 7    1  0.2651429E-009  0.1647432E+03  0.7561462E-02  0.1183443E+00
          2   -1    0    0  501    0  0.00000000000E+00  0.00000000000E+00  0.67845230248E+03  0.67845230248E+03  0.00000000000E+00 0. -1.
         -2   -1    0    0    0  501 -0.00000000000E+00 -0.00000000000E+00 -0.10412374648E+03  0.10412374648E+03  0.00000000000E+00 0.  1.
         25    2    1    2    0    0  0.81377858134E+02 -0.13887087826E+03  0.22891164091E+02  0.20513129705E+03  0.12508943605E+03 0.  0.
          5    1    3    3  502    0  0.55421423315E+02 -0.10022548509E+03  0.73572260072E+02  0.13618748796E+03  0.41800000000E+01 0. -1.
         -5    1    3    3    0  502  0.25956434819E+02 -0.38645393175E+02 -0.50681095980E+02  0.68943809091E+02  0.41800000000E+01 0. -1.
        -11    1    1    2    0    0 -0.82011232429E+02  0.10027820679E+03  0.37222877406E+03  0.39412665635E+03  0.00000000000E+00 0. -1.
         11    1    1    2    0    0  0.63337429559E+00  0.38592671472E+02  0.17920861784E+03  0.18331809557E+03  0.00000000000E+00 0.  1.
</event>
<event>
 7    1  0.2651429E-009  0.1702372E+03  0.7561462E-02  0.1177601E+00
          1   -1    0    0  501    0  0.00000000000E+00  0.00000000000E+00  0.57551210621E+03  0.57551210621E+03  0.00000000000E+00 0. -1.
         -1   -1    0    0    0  501 -0.00000000000E+00 -0.00000000000E+00 -0.55202649461E+02  0.55202649461E+02  0.00000000000E+00 0.  1.
         25    2    1    2    0    0 -0.57351204122E+02 -0.12379651415E+03  0.33954382509E+03  0.38671976023E+03  0.12508967289E+03 0.  0.
          5    1    3    3  502    0 -0.53600197875E+02  0.23581917474E+01  0.14620577813E+03  0.15579519967E+03  0.41800000000E+01 0. -1.
         -5    1    3    3    0  502 -0.37510062472E+01 -0.12615470590E+03  0.19333804696E+03  0.23092456056E+03  0.41800000000E+01 0. -1.
        -11    1    1    2    0    0 -0.17533027711E+02  0.58349549247E+02  0.45206408971E+02  0.75866305895E+02  0.00000000000E+00 0.  1.
         11    1    1    2    0    0  0.74884231834E+02  0.65446964907E+02  0.13555922268E+03  0.16812868954E+03  0.00000000000E+00 0. -1.
</event>
<event>
 7    1  0.2651429E-009  0.9866227E+02  0.7561462E-02  0.1283134E+00
          2   -1    0    0  501    0  0.00000000000E+00  0.00000000000E+00  0.91100365489E+03  0.91100365489E+03  0.00000000000E+00 0. -1.
         -2   -1    0    0    0  501 -0.00000000000E+00 -0.00000000000E+00 -0.14008002285E+02  0.14008002285E+02  0.00000000000E+00 0.  1.
         25    2    1    2    0    0 -0.13237043231E+02 -0.18468851869E+02  0.63426253583E+03  0.64687937185E+03  0.12509052548E+03 0.  0.
          5    1    3    3  502    0  0.30987900691E+02  0.39698165071E+02  0.18887614432E+03  0.19551947369E+03  0.41800000000E+01 0. -1.
         -5    1    3    3    0  502 -0.44224943922E+02 -0.58167016940E+02  0.44538639151E+03  0.45135989816E+03  0.41800000000E+01 0. -1.
        -11    1    1    2    0    0  0.72102975540E+01 -0.26891902980E+02  0.29941550691E+02  0.40885930275E+02  0.00000000000E+00 0.  1.
         11    1    1    2    0    0  0.60267456769E+01  0.45360754849E+02  0.23279156609E+03  0.23724635505E+03  0.00000000000E+00 0. -1.
</event>
<event>
 7    1  0.2651429E-009  0.1465793E+03  0.7561462E-02  0.1204740E+00
          1   -1    0    0  501    0  0.00000000000E+00  0.00000000000E+00  0.55654562413E+02  0.55654562413E+02  0.00000000000E+00 0. -1.
         -1   -1    0    0    0  501 -0.00000000000E+00 -0.00000000000E+00 -0.45001320798E+03  0.45001320798E+03  0.00000000000E+00 0.  1.
         25    2    1    2    0    0 -0.96132855548E+01  0.11129846355E+03 -0.26919719200E+03  0.31716616984E+03  0.12508991912E+03 0.  0.
          5    1    3    3  502    0  0.47067654863E+01  0.13615677513E+03 -0.19885723130E+03  0.24108606740E+03  0.41800000000E+01 0. -1.
         -5    1    3    3    0  502 -0.14320051041E+02 -0.24858311580E+02 -0.70339960700E+02  0.76080102443E+02  0.41800000000E+01 0. -1.
        -11    1    1    2    0    0  0.22590340532E+02 -0.11258113224E+03 -0.13101150792E+03  0.17420921339E+03  0.00000000000E+00 0.  1.
         11    1    1    2    0    0 -0.12977054978E+02  0.12826686921E+01  0.58500543478E+01  0.14292387160E+02  0.00000000000E+00 0. -1.
</event>
<event>
 7    1  0.2651429E-009  0.3185262E+03  0.7561462E-02  0.1076330E+00
         -1   -1    0    0    0  501 -0.00000000000E+00  0.00000000000E+00  0.38653715120E+03  0.38653715120E+03  0.00000000000E+00 0.  1.
          1   -1    0    0  501    0  0.00000000000E+00 -0.00000000000E+00 -0.26913999910E+03  0.26913999910E+03  0.00000000000E+00 0. -1.
         25    2    1    2    0    0 -0.13366975024E+03  0.26998032768E+03  0.21516792516E+02  0.32690749155E+03  0.12509418936E+03 0.  0.
          5    1    3    3  502    0 -0.15356608221E+03  0.21036504269E+03  0.33997568733E+02  0.26269621213E+03  0.41800000000E+01 0. -1.
         -5    1    3    3    0  502  0.19896331965E+02  0.59615284989E+02 -0.12480776217E+02  0.64211279422E+02  0.41800000000E+01 0. -1.
        -11    1    1    2    0    0  0.99469214051E+02 -0.10321948646E+03  0.56230226413E+02  0.15398124981E+03  0.00000000000E+00 0.  1.
         11    1    1    2    0    0  0.34200536190E+02 -0.16676084121E+03  0.39650133167E+02  0.17478840893E+03  0.00000000000E+00 0. -1.
</event>
<event>
 7    1  0.2651429E-009  0.2126674E+03  0.7561462E-02  0.1139471E+00
          2   -1    0    0  501    0  0.00000000000E+00  0.00000000000E+00  0.41028879580E+03  0.41028879580E+03  0.00000000000E+00 0. -1.
         -2   -1    0    0    0  501 -0.00000000000E+00 -0.00000000000E+00 -0.12158583341E+03  0.12158583341E+03  0.00000000000E+00 0.  1.
         25    2    1    2    0    0 -0.17818565787E+03 -0.78688499148E+02  0.13867276792E+03  0.26985086861E+03  0.12508935270E+03 0.  0.
          5    1    3    3  502    0 -0.13363114900E+03 -0.97235102694E+02  0.56951067808E+02  0.17485092423E+03  0.41800000000E+01 0. -1.
         -5    1    3    3    0  502 -0.44554508868E+02  0.18546603547E+02  0.81721700111E+02  0.94999944382E+02  0.41800000000E+01 0. -1.
        -11    1    1    2    0    0  0.79113591300E+01  0.34868805334E+02  0.44034045573E+02  0.56722309176E+02  0.00000000000E+00 0.  1.
         11    1    1    2    0    0  0.17027429874E+03  0.43819693814E+02  0.10599614889E+03  0.20530145142E+03  0.00000000000E+00 0. -1.
</event>
<event>
 7    1  0.2651429E-009  0.1497711E+03  0.7561462E-02  0.1200755E+00
         -3   -1    0    0    0  501 -0.00000000000E+00  0.00000000000E+00  0.42340211309E+03  0.42340211309E+03  0.00000000000E+00 0.  1.
          3   -1    0    0  501    0  0.00000000000E+00 -0.00000000000E+00 -0.61395578256E+02  0.61395578256E+02  0.00000000000E+00 0. -1.
         25    2    1    2    0    0 -0.89449395594E+02 -0.76392235733E+02  0.21107446242E+03  0.27209598290E+03  0.12508727821E+03 0.  0.
          5    1    3    3  502    0  0.14984145488E+02  0.17820222086E+02  0.78729912310E+01  0.24930730477E+02  0.41800000000E+01 0. -1.
         -5    1    3    3    0  502 -0.10443354108E+03 -0.94212457819E+02  0.20320147119E+03  0.24716525242E+03  0.41800000000E+01 0. -1.
        -11    1    1    2    0    0  0.60944981898E+02  0.84907914177E+01  0.11574556568E+03  0.13108554585E+03  0.00000000000E+00 0.  1.
         11    1    1    2    0    0  0.28504413697E+02  0.67901444315E+02  0.35186506736E+02  0.81616162594E+02  0.00000000000E+00 0. -1.
</event>
<event>
 7    1  0.2651429E-009  0.1703268E+03  0.7561462E-02  0.1177507E+00
          2   -1    0    0  501    0  0.00000000000E+00  0.00000000000E+00  0.69649830649E+03  0.69649830649E+03  0.00000000000E+00 0. -1.
         -2   -1    0    0    0  501 -0.00000000000E+00 -0.00000000000E+00 -0.76148664338E+02  0.76148664338E+02  0.00000000000E+00 0.  1.
         25    2    1    2    0    0 -0.13761076230E+03  0.99784763467E+01  0.56874191961E+03  0.59845773368E+03  0.12509195014E+03 0.  0.
          5    1    3    3  502    0 -0.96213093299E+02  0.57085692968E+02  0.25516215770E+03  0.27864122952E+03  0.41800000000E+01 0.  1.
         -5    1    3    3    0  502 -0.41397668999E+02 -0.47107216621E+02  0.31357976190E+03  0.31981650416E+03  0.41800000000E+01 0.  1.
        -11    1    1    2    0    0  0.98249902388E+02  0.36620026897E+02  0.25956610356E+02  0.10801766203E+03  0.00000000000E+00 0.  1.
         11    1    1    2    0    0  0.39360859910E+02 -0.46598503243E+02  0.25651112186E+02  0.66171575120E+02  0.00000000000E+00 0. -1.
</event>
<event>
 7    1  0.2651429E-009  0.1402241E+03  0.7561462E-02  0.1213028E+00
          2   -1    0    0  501    0  0.00000000000E+00  0.00000000000E+00  0.16043605186E+03  0.16043605186E+03  0.00000000000E+00 0. -1.
         -2   -1    0    0    0  501 -0.00000000000E+00 -0.00000000000E+00 -0.17418049726E+03  0.17418049726E+03  0.00000000000E+00 0.  1.
         25    2    1    2    0    0 -0.85642196467E+02 -0.79677360901E+02  0.40345080454E+02  0.17594480039E+03  0.12508309083E+03 0.  0.
          5    1    3    3  502    0 -0.49901859611E+02 -0.75057861854E+01 -0.38155162289E+02  0.63402060126E+02  0.41800000000E+01 0.  1.
         -5    1    3    3    0  502 -0.35740336856E+02 -0.72171574715E+02  0.78500242743E+02  0.11254274026E+03  0.41800000000E+01 0.  1.
        -11    1    1    2    0    0  0.93202665105E+01  0.71842318848E+02 -0.26075833847E+02  0.76994384575E+02  0.00000000000E+00 0.  1.
         11    1    1    2    0    0  0.76321929956E+02  0.78350420531E+01 -0.28013692000E+02  0.81677364158E+02  0.00000000000E+00 0. -1.
</event>
<event>
 7    1  0.2651429E-009  0.1825113E+03  0.7561462E-02  0.1165394E+00
          1   -1    0    0  501    0  0.00000000000E+00  0.00000000000E+00  0.18691233774E+03  0.18691233774E+03  0.00000000000E+00 0. -1.
         -1   -1    0    0    0  501 -0.00000000000E+00 -0.00000000000E+00 -0.25149605644E+03  0.25149605644E+03  0.00000000000E+00 0.  1.
         25    2    1    2    0    0 -0.16220947670E+03 -0.25255635524E+02  0.58875518075E+02  0.21462345170E+03  0.12508852041E+03 0.  0.
          5    1    3    3  502    0 -0.14362821951E+03  0.20627578997E+02  0.73673042935E+02  0.16278744457E+03  0.41800000000E+01 0.  1.
         -5    1    3    3    0  502 -0.18581257185E+02 -0.45883214521E+02 -0.14797524861E+02  0.51836007132E+02  0.41800000000E+01 0.  1.
        -11    1    1    2    0    0  0.10782377425E+03  0.37997551270E+02 -0.35719655188E+02  0.11977342761E+03  0.00000000000E+00 0. -1.
         11    1    1    2    0    0  0.54385702448E+02 -0.12741915745E+02 -0.87739581580E+02  0.10401151486E+03  0.00000000000E+00 0.  1.
</event>
<event>
 7    1  0.2651429E-009  0.1814094E+03  0.7561462E-02  0.1166446E+00
          2   -1    0    0  501    0  0.00000000000E+00  0.00000000000E+00  0.44540189837E+03  0.44540189837E+03  0.00000000000E+00 0. -1.
         -2   -1    0    0    0  501 -0.00000000000E+00 -0.00000000000E+00 -0.85398809879E+02  0.85398809879E+02  0.00000000000E+00 0.  1.
         25    2    1    2    0    0 -0.10606384127E+03  0.12168755304E+03  0.17625762745E+03  0.26976507448E+03  0.12509614376E+03 0.  0.
          5    1    3    3  502    0 -0.24233167738E+02  0.11599743491E+03  0.79078417793E+02  0.14252550609E+03  0.41800000000E+01 0.  1.
         -5    1    3    3    0  502 -0.81830673536E+02  0.56901181297E+01  0.97179209656E+02  0.12723956839E+03  0.41800000000E+01 0.  1.
        -11    1    1    2    0    0  0.90126651345E+02 -0.11070894750E+03  0.19261320919E+03  0.23974806087E+03  0.00000000000E+00 0. -1.
         11    1    1    2    0    0  0.15937189929E+02 -0.10978605545E+02 -0.88677481461E+01  0.21287572894E+02  0.00000000000E+00 0.  1.
</event>
<event>
 7    1  0.2651429E-009  0.1107597E+03  0.7561462E-02  0.1259170E+00
          2   -1    0    0  501    0  0.00000000000E+00  0.00000000000E+00  0.85001714293E+02  0.85001714293E+02  0.00000000000E+00 0.  1.
         -2   -1    0    0    0  501 -0.00000000000E+00 -0.00000000000E+00 -0.17326041310E+03  0.17326041310E+03  0.00000000000E+00 0. -1.
         25    2    1    2    0    0  0.46818706938E+02 -0.26771146828E+02 -0.62976197008E+02  0.15006970375E+03  0.12508488706E+03 0.  0.
          5    1    3    3  502    0  0.69958792920E+02  0.16743294604E+02 -0.69582801760E+02  0.10016890397E+03  0.41800000000E+01 0.  1.
         -5    1    3    3    0  502 -0.23140085983E+02 -0.43514441431E+02  0.66066047515E+01  0.49900799780E+02  0.41800000000E+01 0.  1.
        -11    1    1    2    0    0 -0.31505115111E+02 -0.28601176649E+02  0.56811866824E+01  0.42928725417E+02  0.00000000000E+00 0.  1.
         11    1    1    2    0    0 -0.15313591827E+02  0.55372323477E+02 -0.30963688477E+02  0.65263698224E+02  0.00000000000E+00 0. -1.
</event>
<event>
 7    1  0.2651429E-009  0.1206186E+03  0.7561462E-02  0.1242080E+00
          2   -1    0    0  501    0  0.00000000000E+00  0.00000000000E+00  0.33401031645E+03  0.33401031645E+03  0.00000000000E+00 0. -1.
         -2   -1    0    0    0  501 -0.00000000000E+00 -0.00000000000E+00 -0.79155538167E+02  0.79155538167E+02  0.00000000000E+00 0.  1.
         25    2    1    2    0    0  0.39497406220E+02  0.41357793759E+02  0.27164368975E+03  0.30447997828E+03  0.12508897150E+03 0.  0.
          5    1    3    3  502    0 -0.42372721169E+02  0.11184460364E+01  0.56488344108E+02  0.70746758518E+02  0.41800000000E+01 0. -1.
         -5    1    3    3    0  502  0.81870127389E+02  0.40239347722E+02  0.21515534564E+03  0.23373321976E+03  0.41800000000E+01 0. -1.
        -11    1    1    2    0    0  0.29685217811E+02 -0.15303644857E+02 -0.68749017643E+01  0.34098064119E+02  0.00000000000E+00 0. -1.
         11    1    1    2    0    0 -0.69182624031E+02 -0.26054148902E+02 -0.99140097000E+01  0.74587812216E+02  0.00000000000E+00 0.  1.
</event>
<event>
 7    1  0.2651429E-009  0.2486416E+03  0.7561462E-02  0.1114166E+00
          2   -1    0    0  501    0  0.00000000000E+00  0.00000000000E+00  0.46944515533E+03  0.46944515533E+03  0.00000000000E+00 0. -1.
         -2   -1    0    0    0  501 -0.00000000000E+00 -0.00000000000E+00 -0.13796194642E+03  0.13796194642E+03  0.00000000000E+00 0.  1.
         25    2    1    2    0    0  0.22363118633E+03 -0.18862934281E+02  0.23234160671E+03  0.34640544122E+03  0.12508952677E+03 0.  0.
          5    1    3    3  502    0  0.23351449018E+03  0.17260854983E+01  0.20775020028E+03  0.31258537172E+03  0.41800000000E+01 0. -1.
         -5    1    3    3    0  502 -0.98833038554E+01 -0.20589019779E+02  0.24591406430E+02  0.33820069497E+02  0.41800000000E+01 0. -1.
        -11    1    1    2    0    0 -0.83661140037E+02  0.49521163393E+02  0.28905225463E+02  0.10142506611E+03  0.00000000000E+00 0.  1.
         11    1    1    2    0    0 -0.13997004629E+03 -0.30658229113E+02  0.70236376731E+02  0.15957659442E+03  0.00000000000E+00 0. -1.
</event>
<event>
 7    1  0.2651429E-009  0.1084672E+03  0.7561462E-02  0.1263435E+00
          2   -1    0    0  501    0  0.00000000000E+00  0.00000000000E+00  0.53860967958E+03  0.53860967958E+03  0.00000000000E+00 0. -1.
         -2   -1    0    0    0  501 -0.00000000000E+00 -0.00000000000E+00 -0.38893325744E+02  0.38893325744E+02  0.00000000000E+00 0.  1.
         25    2    1    2    0    0 -0.45894053447E+02 -0.61426594974E+02  0.38541740639E+03  0.41239971148E+03  0.12508978442E+03 0.  0.
          5    1    3    3  502    0  0.28675922629E+02 -0.42548708477E+02  0.26126846566E+03  0.26629191629E+03  0.41800000000E+01 0.  1.
         -5    1    3    3    0  502 -0.74569976076E+02 -0.18877886497E+02  0.12414894073E+03  0.14610779519E+03  0.41800000000E+01 0.  1.
        -11    1    1    2    0    0 -0.40684517692E+01  0.28026352624E+02 -0.74894663072E+01  0.29293699779E+02  0.00000000000E+00 0.  1.
         11    1    1    2    0    0  0.49962505216E+02  0.33400242350E+02  0.12178841375E+03  0.13580959407E+03  0.00000000000E+00 0. -1.
</event>
<event>
 7    1  0.2651429E-009  0.5947862E+02  0.7561462E-02  0.1400033E+00
         -2   -1    0    0    0  501 -0.00000000000E+00  0.00000000000E+00  0.21596586829E+03  0.21596586829E+03  0.00000000000E+00 0. -1.
          2   -1    0    0  501    0  0.00000000000E+00 -0.00000000000E+00 -0.72111475435E+02  0.72111475435E+02  0.00000000000E+00 0.  1.
         25    2    1    2    0    0  0.92632546239E+01 -0.20747768935E+02  0.14593760265E+03  0.19355041141E+03  0.12509076739E+03 0.  0.
          5    1    3    3  502    0 -0.40420826933E+02 -0.13994095458E+02  0.13551536768E+03  0.14216738457E+03  0.41800000000E+01 0. -1.
         -5    1    3    3    0  502  0.49684081557E+02 -0.67536734771E+01  0.10422234976E+02  0.51383026842E+02  0.41800000000E+01 0. -1.
        -11    1    1    2    0    0  0.15698085134E+01  0.10935259981E+02 -0.46485803596E+02  0.47780478708E+02  0.00000000000E+00 0.  1.
         11    1    1    2    0    0 -0.10833063137E+02  0.98125089534E+01  0.44402593799E+02  0.46746453608E+02  0.00000000000E+00 0. -1.
</event>
<event>
 7    1  0.2651429E-009  0.1427828E+03  0.7561462E-02  0.1209633E+00
         -2   -1    0    0    0  501 -0.00000000000E+00  0.00000000000E+00  0.14969938952E+03  0.14969938952E+03  0.00000000000E+00 0.  1.
          2   -1    0    0  501    0  0.00000000000E+00 -0.00000000000E+00 -0.19002737652E+03  0.19002737652E+03  0.00000000000E+00 0. -1.
         25    2    1    2    0    0 -0.49382589433E+02 -0.10869751492E+03 -0.71421401247E+02  0.18709027806E+03  0.12509182907E+03 0.  0.
          5    1    3    3  502    0 -0.32924281462E+02 -0.13156378199E+03 -0.79786817812E+02  0.15740535486E+03  0.41800000000E+01 0.  1.
         -5    1    3    3    0  502 -0.16458307971E+02  0.22866267071E+02  0.83654165655E+01  0.29684923199E+02  0.41800000000E+01 0.  1.
        -11    1    1    2    0    0  0.39918833267E+02  0.61913780363E+02  0.61566927030E+02  0.96006853673E+02  0.00000000000E+00 0.  1.
         11    1    1    2    0    0  0.94637561662E+01  0.46783734560E+02 -0.30473512782E+02  0.56629634304E+02  0.00000000000E+00 0. -1.
</event>
<event>
 7    1  0.2898062E-009  0.1245645E+03  0.7561462E-02  0.1235752E+00
          1   -1    0    0  501    0  0.00000000000E+00  0.00000000000E+00  0.66640085647E+03  0.66640085647E+03  0.00000000000E+00 0. -1.
         -1   -1    0    0    0  501 -0.00000000000E+00 -0.00000000000E+00 -0.32180674213E+02  0.32180674213E+02  0.00000000000E+00 0.  1.
         25    2    1    2    0    0  0.73171994911E+02  0.56924159529E+02  0.26874737955E+03  0.31059330723E+03  0.12509415537E+03 0.  0.
          5    1    3    3  502    0  0.86901403021E+02  0.80204675307E+02  0.16335373665E+03  0.20170909614E+03  0.41800000000E+01 0.  1.
         -5    1    3    3    0  502 -0.13729408111E+02 -0.23280515777E+02  0.10539364290E+03  0.10888421109E+03  0.41800000000E+01 0.  1.
        -11    1    1    2    0    0  0.25170227322E+01 -0.18305580526E+02  0.72891280106E+01  0.19863561337E+02  0.00000000000E+00 0.  1.
         11    1    1    2    0    0 -0.75689017643E+02 -0.38618579003E+02  0.35818367470E+03  0.36812466212E+03  0.00000000000E+00 0. -1.
</event>
<event>
 7    1  0.2651429E-009  0.5120979E+02  0.7561462E-02  0.1438923E+00
          2   -1    0    0  501    0  0.00000000000E+00  0.00000000000E+00  0.17363312393E+03  0.17363312393E+03  0.00000000000E+00 0. -1.
         -2   -1    0    0    0  501 -0.00000000000E+00 -0.00000000000E+00 -0.75186579874E+02  0.75186579874E+02  0.00000000000E+00 0.  1.
         25    2    1    2    0    0  0.19581485505E+02  0.34976360993E+01  0.83253113581E+02  0.15157040947E+03  0.12508732979E+03 0.  0.
          5    1    3    3  502    0  0.35512376990E+02  0.29249440049E+02 -0.15079916312E+02  0.48595626744E+02  0.41800000000E+01 0. -1.
         -5    1    3    3    0  502 -0.15930891485E+02 -0.25751803949E+02  0.98333029893E+02  0.10297478273E+03  0.41800000000E+01 0. -1.
        -11    1    1    2    0    0 -0.90142912141E+01 -0.98283551804E+01 -0.39237451631E+02  0.41441906593E+02  0.00000000000E+00 0.  1.
         11    1    1    2    0    0 -0.10567194291E+02  0.63307190810E+01  0.54430882109E+02  0.55807387740E+02  0.00000000000E+00 0. -1.
</event>
<event>
 7    1  0.2651429E-009  0.1330795E+03  0.7561462E-02  0.1222957E+00
          1   -1    0    0  501    0  0.00000000000E+00  0.00000000000E+00  0.73118296180E+03  0.73118296180E+03  0.00000000000E+00 0. -1.
         -1   -1    0    0    0  501 -0.00000000000E+00 -0.00000000000E+00 -0.30804969032E+02  0.30804969032E+02  0.00000000000E+00 0.  1.
         25    2    1    2    0    0 -0.95890660709E+02 -0.25662334466E+02  0.45335504004E+03  0.48065907107E+03  0.12509506803E+03 0.  0.
          5    1    3    3  502    0 -0.81380192025E+02 -0.68710189461E+02  0.24195478813E+03  0.26439254469E+03  0.41800000000E+01 0.  1.
         -5    1    3    3    0  502 -0.14510468684E+02  0.43047854995E+02  0.21140025191E+03  0.21626652638E+03  0.41800000000E+01 0.  1.
        -11    1    1    2    0    0  0.15959762835E+02  0.29915003144E+02  0.15806374355E+03  0.16165942121E+03  0.00000000000E+00 0. -1.
         11    1    1    2    0    0  0.79930897874E+02 -0.42526686787E+01  0.88959209177E+02  0.11966943855E+03  0.00000000000E+00 0.  1.
</event>
<event>
 7    1  0.2651429E-009  0.1955880E+03  0.7561462E-02  0.1153516E+00
          2   -1    0    0  501    0  0.00000000000E+00  0.00000000000E+00  0.11773200794E+03  0.11773200794E+03  0.00000000000E+00 0. -1.
         -2   -1    0    0    0  501 -0.00000000000E+00 -0.00000000000E+00 -0.42652009562E+03  0.42652009562E+03  0.00000000000E+00 0.  1.
         25    2    1    2    0    0  0.16313710887E+03  0.15047792300E+02 -0.29052327114E+03  0.35621967227E+03  0.12509409058E+03 0.  0.
          5    1    3    3  502    0  0.88818126038E+02  0.69328584059E+02 -0.17920855926E+03  0.21172692836E+03  0.41800000000E+01 0.  1.
         -5    1    3    3    0  502  0.74318982827E+02 -0.54280791758E+02 -0.11131471187E+03  0.14449274391E+03  0.41800000000E+01 0.  1.
        -11    1    1    2    0    0 -0.10036031031E+03 -0.52435749788E+02 -0.23761842423E+01  0.11325787387E+03  0.00000000000E+00 0.  1.
         11    1    1    2    0    0 -0.62776798557E+02  0.37387957488E+02 -0.15888632296E+02  0.74774557427E+02  0.00000000000E+00 0. -1.
</event>
<event>
 7    1  0.2651429E-009  0.9788478E+02  0.7561462E-02  0.1284808E+00
         -1   -1    0    0    0  501 -0.00000000000E+00  0.00000000000E+00  0.76072734204E+03  0.76072734204E+03  0.00000000000E+00 0.  1.
          1   -1    0    0  501    0  0.00000000000E+00 -0.00000000000E+00 -0.17525641344E+02  0.17525641344E+02  0.00000000000E+00 0. -1.
         25    2    1    2    0    0 -0.26460141597E+02 -0.32535205034E+02  0.42457836454E+03  0.44460465097E+03  0.12509128414E+03 0.  0.
          5    1    3    3  502    0  0.14511032726E+02  0.23169926384E+02  0.19980986389E+02  0.34119316764E+02  0.41800000000E+01 0. -1.
         -5    1    3    3    0  502 -0.40971174322E+02 -0.55705131417E+02  0.40459737815E+03  0.41048533420E+03  0.41800000000E+01 0. -1.
        -11    1    1    2    0    0 -0.33383870805E+02  0.94612430805E+01  0.12106295581E+03  0.12593743375E+03  0.00000000000E+00 0. -1.
         11    1    1    2    0    0  0.59844012402E+02  0.23073961953E+02  0.19756038035E+03  0.20771089866E+03  0.00000000000E+00 0.  1.
</event>
<event>
 7    1  0.2651429E-009  0.1521874E+03  0.7561462E-02  0.1197811E+00
         -1   -1    0    0    0  501 -0.00000000000E+00  0.00000000000E+00  0.38271465708E+03  0.38271465708E+03  0.00000000000E+00 0.  1.
          1   -1    0    0  501    0  0.00000000000E+00 -0.00000000000E+00 -0.73734013134E+02  0.73734013134E+02  0.00000000000E+00 0. -1.
         25    2    1    2    0    0 -0.45641934376E+02 -0.11405473384E+03  0.20972455953E+03  0.27335512491E+03  0.12508782897E+03 0.  0.
          5    1    3    3  502    0 -0.60711402187E+02 -0.12131023907E+03  0.11744606621E+03  0.17948008059E+03  0.41800000000E+01 0.  1.
         -5    1    3    3    0  502  0.15069467811E+02  0.72555052324E+01  0.92278493323E+02  0.93875044321E+02  0.41800000000E+01 0.  1.
        -11    1    1    2    0    0  0.52272859359E+02  0.18226710941E+02  0.52365582605E+02  0.76202487223E+02  0.00000000000E+00 0. -1.
         11    1    1    2    0    0 -0.66309249835E+01  0.95828022897E+02  0.46890501804E+02  0.10689105808E+03  0.00000000000E+00 0.  1.
</event>
<event>
 7    1  0.2651429E-009  0.1184724E+03  0.7561462E-02  0.1245639E+00
         -2   -1    0    0    0  501 -0.00000000000E+00  0.00000000000E+00  0.47457359183E+02  0.47457359183E+02  0.00000000000E+00 0.  1.
          2   -1    0    0  501    0  0.00000000000E+00 -0.00000000000E+00 -0.43820336310E+03  0.43820336310E+03  0.00000000000E+00 0. -1.
         25    2    1    2    0    0  0.18741184657E+02 -0.76250903003E+02 -0.12792521931E+03  0.19539134812E+03  0.12508990756E+03 0.  0.
          5    1    3    3  502    0  0.45566304712E+02 -0.10018310306E+03 -0.10715285677E+03  0.15366245272E+03  0.41800000000E+01 0.  1.
         -5    1    3    3    0  502 -0.26825120055E+02  0.23932200056E+02 -0.20772362547E+02  0.41728895399E+02  0.41800000000E+01 0.  1.
        -11    1    1    2    0    0 -0.31600768654E+02  0.68904326125E+02 -0.26469977114E+03  0.27534048664E+03  0.00000000000E+00 0.  1.
         11    1    1    2    0    0  0.12859583997E+02  0.73465768781E+01  0.18789865356E+01  0.14928887527E+02  0.00000000000E+00 0. -1.
</event>
<event>
 7    1  0.2651429E-009  0.1974346E+03  0.7561462E-02  0.1151922E+00
         -2   -1    0    0    0  501 -0.00000000000E+00  0.00000000000E+00  0.28643942181E+02  0.28643942181E+02  0.00000000000E+00 0.  1.
          2   -1    0    0  501    0  0.00000000000E+00 -0.00000000000E+00 -0.14671924561E+04  0.14671924561E+04  0.00000000000E+00 0. -1.
         25    2    1    2    0    0  0.32658863529E+02 -0.17103570304E+03 -0.73941539740E+03  0.76987149842E+03  0.12508869289E+03 0.  0.
          5    1    3    3  502    0  0.55786087844E+02 -0.31707565108E+02 -0.34425767474E+03  0.35021175922E+03  0.41800000000E+01 0.  1.
         -5    1    3    3    0  502 -0.23127224316E+02 -0.13932813794E+03 -0.39515772266E+03  0.41965973920E+03  0.41800000000E+01 0.  1.
        -11    1    1    2    0    0  0.20603901299E+02  0.89771872022E+02 -0.24962450732E+03  0.26607499772E+03  0.00000000000E+00 0.  1.
         11    1    1    2    0    0 -0.53262764827E+02  0.81263831023E+02 -0.44950860923E+03  0.45988990217E+03  0.00000000000E+00 0. -1.
</event>
<event>
 7    1  0.2651429E-009  0.8700210E+02  0.7561462E-02  0.1310278E+00
          1   -1    0    0  501    0  0.00000000000E+00  0.00000000000E+00  0.20338365738E+03  0.20338365738E+03  0.00000000000E+00 0. -1.
         -1   -1    0    0    0  501 -0.00000000000E+00 -0.00000000000E+00 -0.61532563962E+02  0.61532563962E+02  0.00000000000E+00 0.  1.
         25    2    1    2    0    0 -0.33228547912E+02  0.11768588223E+02  0.39655669998E+02  0.13587748965E+03  0.12508990353E+03 0.  0.
          5    1    3    3  502    0 -0.99559307589E+01  0.56777439365E+02 -0.16521052121E+02  0.60110030289E+02  0.41800000000E+01 0.  1.
         -5    1    3    3    0  502 -0.23272617153E+02 -0.45008851143E+02  0.56176722119E+02  0.75767459364E+02  0.41800000000E+01 0.  1.
        -11    1    1    2    0    0  0.54679028614E+01 -0.31075588077E+02  0.13879574423E+02  0.34470751691E+02  0.00000000000E+00 0.  1.
         11    1    1    2    0    0  0.27760645051E+02  0.19306999854E+02  0.88315849000E+02  0.94567980002E+02  0.00000000000E+00 0. -1.
</event>
<event>
 7    1  0.2651429E-009  0.2031773E+03  0.7561462E-02  0.1147086E+00
         -2   -1    0    0    0  501 -0.00000000000E+00  0.00000000000E+00  0.52330692175E+03  0.52330692175E+03  0.00000000000E+00 0. -1.
          2   -1    0    0  501    0  0.00000000000E+00 -0.00000000000E+00 -0.86556051503E+02  0.86556051503E+02  0.00000000000E+00 0.  1.
         25    2    1    2    0    0  0.16414900924E+03 -0.62429125138E+02  0.28888371917E+03  0.36048092895E+03  0.12510157488E+03 0.  0.
          5    1    3    3  502    0  0.12562016657E+03  0.10772291252E+02  0.12907735722E+03  0.18048519345E+03  0.41800000000E+01 0.  1.
         -5    1    3    3    0  502  0.38528842668E+02 -0.73201416390E+02  0.15980636195E+03  0.17999573550E+03  0.41800000000E+01 0.  1.
        -11    1    1    2    0    0 -0.98342583094E+01 -0.20101794362E+02  0.33638216688E+02  0.40402034541E+02  0.00000000000E+00 0. -1.
         11    1    1    2    0    0 -0.15431475093E+03  0.82530919500E+02  0.11422893439E+03  0.20898000976E+03  0.00000000000E+00 0.  1.
</event>
<event>
 7    1  0.2651429E-009  0.7353929E+02  0.7561462E-02  0.1348455E+00
          2   -1    0    0  501    0  0.00000000000E+00  0.00000000000E+00  0.10434676592E+03  0.10434676592E+03  0.00000000000E+00 0. -1.
         -2   -1    0    0    0  501 -0.00000000000E+00 -0.00000000000E+00 -0.14759550867E+03  0.14759550867E+03  0.00000000000E+00 0.  1.
         25    2    1    2    0    0  0.25594380963E+02  0.33424794164E+02 -0.18305539059E+02  0.13324769499E+03  0.12509023247E+03 0.  0.
          5    1    3    3  502    0 -0.32385599491E+01  0.59186063762E+01  0.51851447055E+02  0.52455344186E+02  0.41800000000E+01 0. -1.
         -5    1    3    3    0  502  0.28832940913E+02  0.27506187788E+02 -0.70156986114E+02  0.80792350807E+02  0.41800000000E+01 0. -1.
        -11    1    1    2    0    0 -0.57372501400E+02 -0.35090259092E+02 -0.45146764975E+02  0.81000991276E+02  0.00000000000E+00 0.  1.
         11    1    1    2    0    0  0.31778120436E+02  0.16654649280E+01  0.20203561280E+02  0.37693588318E+02  0.00000000000E+00 0. -1.
</event>
<event>
 7    1  0.2651429E-009  0.1124248E+03  0.7561462E-02  0.1256144E+00
          2   -1    0    0  501    0  0.00000000000E+00  0.00000000000E+00  0.28891673952E+03  0.28891673952E+03  0.00000000000E+00 0. -1.
         -2   -1    0    0    0  501 -0.00000000000E+00 -0.00000000000E+00 -0.80365805213E+02  0.80365805213E+02  0.00000000000E+00 0.  1.
         25    2    1    2    0    0  0.92652311168E+01 -0.60994183515E+02  0.21820610772E+03  0.25897351012E+03  0.12508892262E+03 0.  0.
          5    1    3    3  502    0  0.51938424829E+02 -0.20035917446E+02  0.17994239072E+03  0.18840322274E+03  0.41800000000E+01 0. -1.
         -5    1    3    3    0  502 -0.42673193712E+02 -0.40958266069E+02  0.38263717002E+02  0.70570287372E+02  0.41800000000E+01 0. -1.
        -11    1    1    2    0    0  0.26005230162E+02  0.68845864162E+02 -0.92520863802E+01  0.74172947294E+02  0.00000000000E+00 0.  1.
         11    1    1    2    0    0 -0.35270461279E+02 -0.78516806463E+01 -0.40308703692E+00  0.36136087322E+02  0.00000000000E+00 0. -1.
</event>
<event>
 6    1  0.2651429E-009  0.6518919E+02  0.7561462E-02  0.1377261E+00
         -1   -1    0    0    0  501 -0.00000000000E+00  0.00000000000E+00  0.27057010532E+03  0.27057010532E+03  0.00000000000E+00 0.  1.
          1   -1    0    0  501    0  0.00000000000E+00 -0.00000000000E+00 -0.47593839578E+02  0.47593839578E+02  0.00000000000E+00 0. -1.
          5    1    1    2  502    0 -0.21044085987E+02  0.32213313431E+02  0.10443658228E+03  0.11137783997E+03  0.41800000000E+01 0. -1.
         -5    1    1    2    0  502  0.30151310397E+02 -0.25994896188E+02 -0.14971272276E+02  0.42736957543E+02  0.41800000000E+01 0. -1.
        -11    1    1    2    0    0  0.88812864535E+01 -0.24462172802E+02  0.13585149882E+03  0.13832174406E+03  0.00000000000E+00 0.  1.
         11    1    1    2    0    0 -0.17988510863E+02  0.18243755560E+02 -0.23405430874E+01  0.25727403327E+02  0.00000000000E+00 0. -1.
</event>
<event>
 7    1  0.2651429E-009  0.7981220E+02  0.7561462E-02  0.1329585E+00
         -1   -1    0    0    0  501 -0.00000000000E+00  0.00000000000E+00  0.36524238245E+03  0.36524238245E+03  0.00000000000E+00 0.  1.
          1   -1    0    0  501    0  0.00000000000E+00 -0.00000000000E+00 -0.35153216158E+02  0.35153216158E+02  0.00000000000E+00 0. -1.
         25    2    1    2    0    0 -0.54492095278E+01 -0.14177135569E+02  0.13596913750E+03  0.18538430361E+03  0.12509615747E+03 0.  0.
          5    1    3    3  502    0 -0.14472089050E+02 -0.42357778841E+02  0.14685305802E+03  0.15358032373E+03  0.41800000000E+01 0.  1.
         -5    1    3    3    0  502  0.90228795222E+01  0.28180643272E+02 -0.10883920515E+02  0.31803979875E+02  0.41800000000E+01 0.  1.
        -11    1    1    2    0    0  0.13550769572E+02 -0.33649856965E+02  0.42793551348E+02  0.56100127155E+02  0.00000000000E+00 0. -1.
         11    1    1    2    0    0 -0.81015600441E+01  0.47826992534E+02  0.15132647744E+03  0.15891116784E+03  0.00000000000E+00 0.  1.
</event>
<event>
 7    1  0.2651429E-009  0.1265227E+03  0.7561462E-02  0.1232709E+00
         -1   -1    0    0    0  501 -0.00000000000E+00  0.00000000000E+00  0.93490097245E+02  0.93490097245E+02  0.00000000000E+00 0. -1.
          1   -1    0    0  501    0  0.00000000000E+00 -0.00000000000E+00 -0.21734643920E+03  0.21734643920E+03  0.00000000000E+00 0.  1.
         25    2    1    2    0    0 -0.64162847132E+02  0.56270912921E+02 -0.10604944588E+03  0.18487544674E+03  0.12509659965E+03 0.  0.
          5    1    3    3  502    0  0.33032422192E+02 -0.80842234801E+01 -0.30742943042E+02  0.46033645652E+02  0.41800000000E+01 0.  1.
         -5    1    3    3    0  502 -0.97195269324E+02  0.64355136401E+02 -0.75306502836E+02  0.13884180109E+03  0.41800000000E+01 0.  1.
        -11    1    1    2    0    0  0.30681214268E+02  0.61615507249E+01 -0.40854569328E+02  0.51462583022E+02  0.00000000000E+00 0.  1.
         11    1    1    2    0    0  0.33481632864E+02 -0.62432463646E+02  0.23047673248E+02  0.74498506685E+02  0.00000000000E+00 0. -1.
</event>
<event>
 7    1  0.2651429E-009  0.1273531E+03  0.7561462E-02  0.1231437E+00
          1   -1    0    0  501    0  0.00000000000E+00  0.00000000000E+00  0.20350693846E+03  0.20350693846E+03  0.00000000000E+00 0. -1.
         -1   -1    0    0    0  501 -0.00000000000E+00 -0.00000000000E+00 -0.84559556552E+02  0.84559556552E+02  0.00000000000E+00 0.  1.
         25    2    1    2    0    0  0.70500514393E+02 -0.17604369489E+02  0.62088560208E+02  0.15742470489E+03  0.12508921635E+03 0.  0.
          5    1    3    3  502    0  0.79075822132E+02  0.36433485260E+02  0.52396798335E+02  0.10170192412E+03  0.41800000000E+01 0.  1.
         -5    1    3    3    0  502 -0.85753077391E+01 -0.54037854749E+02  0.96917618727E+01  0.55722780771E+02  0.41800000000E+01 0.  1.
        -11    1    1    2    0    0 -0.43440568277E+02 -0.33488779947E+02  0.89936432473E+01  0.55582973773E+02  0.00000000000E+00 0.  1.
         11    1    1    2    0    0 -0.27059946116E+02  0.51093149436E+02  0.47865178452E+02  0.75058816347E+02  0.00000000000E+00 0. -1.
</event>
<event>
 7    1  0.2651429E-009  0.7586571E+02  0.7561462E-02  0.1341211E+00
          1   -1    0    0  501    0  0.00000000000E+00  0.00000000000E+00  0.17180037048E+03  0.17180037048E+03  0.00000000000E+00 0. -1.
         -1   -1    0    0    0  501 -0.00000000000E+00 -0.00000000000E+00 -0.78091837285E+02  0.78091837285E+02  0.00000000000E+00 0.  1.
         25    2    1    2    0    0 -0.16945093042E+02  0.34842023706E+02  0.68456928503E+02  0.14776744470E+03  0.12509102229E+03 0.  0.
          5    1    3    3  502    0  0.11903510786E+02  0.19712416150E+02 -0.33379101447E+02  0.40766527114E+02  0.41800000000E+01 0.  1.
         -5    1    3    3    0  502 -0.28848603829E+02  0.15129607556E+02  0.10183602995E+03  0.10700091758E+03  0.41800000000E+01 0.  1.
        -11    1    1    2    0    0  0.50359164355E+02 -0.36237462116E+02  0.33178803312E+01  0.62130567558E+02  0.00000000000E+00 0.  1.
         11    1    1    2    0    0 -0.33414071313E+02  0.13954384103E+01  0.21933724356E+02  0.39994195506E+02  0.00000000000E+00 0. -1.
</event>
<event>
 7    1  0.2651429E-009  0.1259301E+03  0.7561462E-02  0.1233623E+00
          2   -1    0    0  501    0  0.00000000000E+00  0.00000000000E+00  0.35835387447E+03  0.35835387447E+03  0.00000000000E+00 0. -1.
         -2   -1    0    0    0  501 -0.00000000000E+00 -0.00000000000E+00 -0.61994763939E+02  0.61994763939E+02  0.00000000000E+00 0.  1.
         25    2    1    2    0    0 -0.93875058347E+02 -0.48363543854E+02  0.15565698138E+03  0.22589682078E+03  0.12509483935E+03 0.  0.
          5    1    3    3  502    0 -0.89789364396E+02 -0.59546970723E+02  0.17336123670E+03  0.20415573093E+03  0.41800000000E+01 0.  1.
         -5    1    3    3    0  502 -0.40856939507E+01  0.11183426869E+02 -0.17704255320E+02  0.21741089854E+02  0.41800000000E+01 0.  1.
        -11    1    1    2    0    0  0.68611667923E+02 -0.85587494547E+01  0.93597134218E+02  0.11636681959E+03  0.00000000000E+00 0.  1.
         11    1    1    2    0    0  0.25263390424E+02  0.56922293309E+02  0.47104994942E+02  0.78084998046E+02  0.00000000000E+00 0. -1.
</event>
<event>
 7    1  0.2651429E-009  0.9058381E+02  0.7561462E-02  0.1301444E+00
         -2   -1    0    0    0  501 -0.00000000000E+00  0.00000000000E+00  0.14852577067E+02  0.14852577067E+02  0.00000000000E+00 0.  1.
          2   -1    0    0  501    0  0.00000000000E+00 -0.00000000000E+00 -0.11095935812E+04  0.11095935812E+04  0.00000000000E+00 0. -1.
         25    2    1    2    0    0  0.63075245088E+02 -0.29814627040E+02 -0.70579754599E+03  0.72018393632E+03  0.12508927885E+03 0.  0.
          5    1    3    3  502    0  0.72895814140E+01 -0.21643741322E+01  0.25881437435E+01  0.90550207406E+01  0.41800000000E+01 0. -1.
         -5    1    3    3    0  502  0.55785663674E+02 -0.27650252908E+02 -0.70838568974E+03  0.71112891558E+03  0.41800000000E+01 0. -1.
        -11    1    1    2    0    0  0.34314210668E+01  0.42283588007E+02 -0.16002272420E+03  0.16555044163E+03  0.00000000000E+00 0.  1.
         11    1    1    2    0    0 -0.66506666155E+02 -0.12468960967E+02 -0.22892073399E+03  0.23871178035E+03  0.00000000000E+00 0. -1.
</event>
<event>
 7    1  0.2651429E-009  0.1025438E+03  0.7561462E-02  0.1275036E+00
         -1   -1    0    0    0  501 -0.00000000000E+00  0.00000000000E+00  0.25355038979E+03  0.25355038979E+03  0.00000000000E+00 0.  1.
          1   -1    0    0  501    0  0.00000000000E+00 -0.00000000000E+00 -0.57693902189E+02  0.57693902189E+02  0.00000000000E+00 0. -1.
         25    2    1    2    0    0  0.32324063376E+02 -0.38070417710E+02  0.89180165314E+02  0.16153133991E+03  0.12508025468E+03 0.  0.
          5    1    3    3  502    0  0.52495502828E+02  0.44069885178E+01  0.99994237118E+02  0.11309959868E+03  0.41800000000E+01 0.  1.
         -5    1    3    3    0  502 -0.20171439453E+02 -0.42477406228E+02 -0.10814071804E+02  0.48431741228E+02  0.41800000000E+01 0.  1.
        -11    1    1    2    0    0  0.24937072702E+02 -0.13162426492E+02  0.29589286563E+02  0.40873376976E+02  0.00000000000E+00 0.  1.
         11    1    1    2    0    0 -0.57261136078E+02  0.51232844202E+02  0.77087035724E+02  0.10883957509E+03  0.00000000000E+00 0. -1.
</event>
<event>
 7    1  0.2651429E-009  0.8401395E+02  0.7561462E-02  0.1318031E+00
          1   -1    0    0  501    0  0.00000000000E+00  0.00000000000E+00  0.40558349200E+02  0.40558349200E+02  0.00000000000E+00 0. -1.
         -1   -1    0    0    0  501 -0.00000000000E+00 -0.00000000000E+00 -0.30888258531E+03  0.30888258531E+03  0.00000000000E+00 0.  1.
         25    2    1    2    0    0 -0.24415499918E+02  0.68741653206E+01 -0.14302718693E+03  0.19169935845E+03  0.12509395287E+03 0.  0.
          5    1    3    3  502    0 -0.11358210551E+02 -0.42571995116E+02 -0.13199163469E+03  0.13921439488E+03  0.41800000000E+01 0.  1.
         -5    1    3    3    0  502 -0.13057289367E+02  0.49446160436E+02 -0.11035552239E+02  0.52484963568E+02  0.41800000000E+01 0.  1.
        -11    1    1    2    0    0  0.53564033014E+00 -0.35315889604E+02 -0.11335692312E+03  0.11873201333E+03  0.00000000000E+00 0.  1.
         11    1    1    2    0    0  0.23879859588E+02  0.28441724284E+02 -0.11940126063E+02  0.39009562732E+02  0.00000000000E+00 0. -1.
</event>
<event>
 7    1  0.2651429E-009  0.2282446E+03  0.7561462E-02  0.1127881E+00
          1   -1    0    0  501    0  0.00000000000E+00  0.00000000000E+00  0.10133100983E+03  0.10133100983E+03  0.00000000000E+00 0. -1.
         -1   -1    0    0    0  501 -0.00000000000E+00 -0.00000000000E+00 -0.65578644869E+03  0.65578644869E+03  0.00000000000E+00 0.  1.
         25    2    1    2    0    0 -0.19225275613E+03  0.60212164320E+02 -0.28806889486E+03  0.37311586382E+03  0.12508050478E+03 0.  0.
          5    1    3    3  502    0  0.12363569551E+02  0.49191407856E+01  0.17288518209E+01  0.14054078651E+02  0.41800000000E+01 0. -1.
         -5    1    3    3    0  502 -0.20461632568E+03  0.55293023534E+02 -0.28979774668E+03  0.35906178517E+03  0.41800000000E+01 0. -1.
        -11    1    1    2    0    0  0.15608283136E+03 -0.93031308640E+02 -0.93502333240E+02  0.20435107280E+03  0.00000000000E+00 0. -1.
         11    1    1    2    0    0  0.36169924774E+02  0.32819144321E+02 -0.17288421076E+03  0.17965052191E+03  0.00000000000E+00 0.  1.
</event>
<event>
 7    1  0.2651429E-009  0.1055111E+03  0.7561462E-02  0.1269116E+00
          3   -1    0    0  501    0  0.00000000000E+00  0.00000000000E+00  0.14379737002E+02  0.14379737002E+02  0.00000000000E+00 0. -1.
         -3   -1    0    0    0  501 -0.00000000000E+00 -0.00000000000E+00 -0.10181658603E+04  0.10181658603E+04  0.00000000000E+00 0.  1.
         25    2    1    2    0    0 -0.37722740125E+02 -0.23794589748E+02 -0.68006750063E+03  0.69291280463E+03  0.12508861571E+03 0.  0.
          5    1    3    3  502    0  0.25397065468E+02  0.36876853783E+02 -0.24800234474E+03  0.25204671924E+03  0.41800000000E+01 0.  1.
         -5    1    3    3    0  502 -0.63119805593E+02 -0.60671443530E+02 -0.43206515589E+03  0.44086608539E+03  0.41800000000E+01 0.  1.
        -11    1    1    2    0    0  0.45291901574E+02  0.40056340035E+02 -0.31289433303E+03  0.31868280526E+03  0.00000000000E+00 0.  1.
         11    1    1    2    0    0 -0.75691614486E+01 -0.16261750287E+02 -0.10824289681E+02  0.20949987459E+02  0.00000000000E+00 0. -1.
</event>
<event>
 7    1  0.2651429E-009  0.2181198E+03  0.7561462E-02  0.1135293E+00
         -1   -1    0    0    0  501 -0.00000000000E+00  0.00000000000E+00  0.81127200305E+02  0.81127200305E+02  0.00000000000E+00 0.  1.
          1   -1    0    0  501    0  0.00000000000E+00 -0.00000000000E+00 -0.71621732958E+03  0.71621732958E+03  0.00000000000E+00 0. -1.
         25    2    1    2    0    0 -0.68689010246E+02  0.19824181507E+03 -0.40330473357E+03  0.47150765773E+03  0.12508703294E+03 0.  0.
          5    1    3    3  502    0 -0.92333065845E+00  0.10320787083E+03 -0.89513502862E+02  0.13668524696E+03  0.41800000000E+01 0. -1.
         -5    1    3    3    0  502 -0.67765679588E+02  0.95033944238E+02 -0.31379123071E+03  0.33482241078E+03  0.41800000000E+01 0.  1.
        -11    1    1    2    0    0  0.28983417873E+01 -0.85975090240E+02 -0.42007169892E+02  0.95732538090E+02  0.00000000000E+00 0.  1.
         11    1    1    2    0    0  0.65790668459E+02 -0.11226672483E+03 -0.18977822581E+03  0.23010433406E+03  0.00000000000E+00 0. -1.
</event>
<event>
 7    1  0.2651429E-009  0.9598088E+02  0.7561462E-02  0.1288982E+00
         -2   -1    0    0    0  501 -0.00000000000E+00  0.00000000000E+00  0.32072701863E+03  0.32072701863E+03  0.00000000000E+00 0.  1.
          2   -1    0    0  501    0  0.00000000000E+00 -0.00000000000E+00 -0.37992547978E+02  0.37992547978E+02  0.00000000000E+00 0. -1.
         25    2    1    2    0    0  0.49135309088E+01 -0.21589493425E+02  0.17674652567E+03  0.21765955000E+03  0.12508435697E+03 0.  0.
          5    1    3    3  502    0 -0.25635777924E+02  0.30336032587E+02  0.14301662336E+03  0.14848802962E+03  0.41800000000E+01 0. -1.
         -5    1    3    3    0  502  0.30549308833E+02 -0.51925526012E+02  0.33729902307E+02  0.69171520379E+02  0.41800000000E+01 0. -1.
        -11    1    1    2    0    0 -0.46687934804E+02  0.61167589052E+01  0.42027556772E+02  0.63114923148E+02  0.00000000000E+00 0.  1.
         11    1    1    2    0    0  0.41774403895E+02  0.15472734520E+02  0.63960388210E+02  0.77945093458E+02  0.00000000000E+00 0. -1.
</event>
<event>
 7    1  0.2651429E-009  0.2298168E+03  0.7561462E-02  0.1126769E+00
          1   -1    0    0  501    0  0.00000000000E+00  0.00000000000E+00  0.33192268718E+03  0.33192268718E+03  0.00000000000E+00 0. -1.
         -1   -1    0    0    0  501 -0.00000000000E+00 -0.00000000000E+00 -0.18966997993E+03  0.18966997993E+03  0.00000000000E+00 0.  1.
         25    2    1    2    0    0 -0.15506755441E+03 -0.14399090609E+03 -0.93026063911E+01  0.24599824670E+03  0.12509704803E+03 0.  0.
          5    1    3    3  502    0 -0.38774280712E+02 -0.10056911317E+03 -0.44830692445E+02  0.11681119276E+03  0.41800000000E+01 0.  1.
         -5    1    3    3    0  502 -0.11629327370E+03 -0.43421792921E+02  0.35528086054E+02  0.12918705394E+03  0.41800000000E+01 0.  1.
        -11    1    1    2    0    0  0.92089276167E+02  0.13576247398E+03  0.12714410026E+03  0.20755121382E+03  0.00000000000E+00 0. -1.
         11    1    1    2    0    0  0.62978278240E+02  0.82284321083E+01  0.24411213377E+02  0.68043206594E+02  0.00000000000E+00 0.  1.
</event>
<event>
 7    1  0.2651429E-009  0.7974192E+02  0.7561462E-02  0.1329785E+00
          1   -1    0    0  501    0  0.00000000000E+00  0.00000000000E+00  0.27766270496E+03  0.27766270496E+03  0.00000000000E+00 0. -1.
         -1   -1    0    0    0  501 -0.00000000000E+00 -0.00000000000E+00 -0.48659231669E+02  0.48659231669E+02  0.00000000000E+00 0.  1.
         25    2    1    2    0    0  0.29153296565E+02 -0.28537180747E+01  0.82993410499E+02  0.15294752201E+03  0.12508788869E+03 0.  0.
          5    1    3    3  502    0  0.66921901163E+02  0.28249045480E+02  0.72538463176E+02  0.10274166860E+03  0.41800000000E+01 0. -1.
         -5    1    3    3    0  502 -0.37768604599E+02 -0.31102763554E+02  0.10454947323E+02  0.50205853419E+02  0.41800000000E+01 0. -1.
        -11    1    1    2    0    0 -0.42653266552E+01 -0.90691665961E+01 -0.10461787722E+02  0.14487642892E+02  0.00000000000E+00 0.  1.
         11    1    1    2    0    0 -0.24887969910E+02  0.11922884671E+02  0.15647185052E+03  0.15888677172E+03  0.00000000000E+00 0. -1.
</event>
<event>
 7    1  0.2651429E-009  0.7797960E+02  0.7561462E-02  0.1334885E+00
          1   -1    0    0  501    0  0.00000000000E+00  0.00000000000E+00  0.36082768497E+03  0.36082768497E+03  0.00000000000E+00 0. -1.
         -1   -1    0    0    0  501 -0.00000000000E+00 -0.00000000000E+00 -0.46531467070E+02  0.46531467070E+02  0.00000000000E+00 0.  1.
         25    2    1    2    0    0  0.69429682252E+01 -0.19127363835E+02  0.28043260981E+03  0.30773985194E+03  0.12508919606E+03 0.  0.
          5    1    3    3  502    0  0.55778654035E+02  0.22770682808E+01  0.65078505822E+02  0.85843622977E+02  0.41800000000E+01 0.  1.
         -5    1    3    3    0  502 -0.48835685810E+02 -0.21404432116E+02  0.21535410399E+03  0.22189622896E+03  0.41800000000E+01 0.  1.
        -11    1    1    2    0    0 -0.21489787090E+02  0.22962613215E+02  0.60978298084E+02  0.68610825619E+02  0.00000000000E+00 0. -1.
         11    1    1    2    0    0  0.14546818865E+02 -0.38352493805E+01 -0.27114689988E+02  0.31008474488E+02  0.00000000000E+00 0.  1.
</event>
<event>
 7    1  0.2651429E-009  0.1449672E+03  0.7561462E-02  0.1206797E+00
          2   -1    0    0  501    0  0.00000000000E+00  0.00000000000E+00  0.43911737446E+03  0.43911737446E+03  0.00000000000E+00 0. -1.
         -2   -1    0    0    0  501 -0.00000000000E+00 -0.00000000000E+00 -0.55986562883E+02  0.55986562883E+02  0.00000000000E+00 0.  1.
         25    2    1    2    0    0 -0.93461492147E+02  0.55081323713E+02  0.15501418705E+03  0.22681277541E+03  0.12508250943E+03 0.  0.
          5    1    3    3  502    0  0.16731599283E+02  0.50642934161E+02  0.66446396135E+02  0.85306794303E+02  0.41800000000E+01 0.  1.
         -5    1    3    3    0  502 -0.11019309143E+03  0.44383895520E+01  0.88567790918E+02  0.14150598111E+03  0.41800000000E+01 0.  1.
        -11    1    1    2    0    0  0.29963727971E+02 -0.54935711175E+02  0.52955652281E+02  0.81975962725E+02  0.00000000000E+00 0.  1.
         11    1    1    2    0    0  0.63497764177E+02 -0.14561253766E+00  0.17516097225E+03  0.18631519921E+03  0.00000000000E+00 0. -1.
</event>
<event>
 7    1  0.2651429E-009  0.1308914E+03  0.7561462E-02  0.1226139E+00
          1   -1    0    0  501    0  0.00000000000E+00  0.00000000000E+00  0.55243803003E+03  0.55243803003E+03  0.00000000000E+00 0. -1.
         -1   -1    0    0    0  501 -0.00000000000E+00 -0.00000000000E+00 -0.38192448776E+02  0.38192448776E+02  0.00000000000E+00 0.  1.
         25    2    1    2    0    0 -0.69695341962E+02 -0.57895564067E+02  0.21909765411E+03  0.26806873387E+03  0.12509087501E+03 0.  0.
          5    1    3    3  502    0  0.17358850891E+02 -0.64583966937E+02  0.98101431917E+02  0.11880143869E+03  0.41800000000E+01 0.  1.
         -5    1    3    3    0  502 -0.87054192853E+02  0.66884028696E+01  0.12099622220E+03  0.14926729518E+03  0.41800000000E+01 0.  1.
        -11    1    1    2    0    0 -0.22987407525E+01  0.30106900984E+02  0.18634926416E+02  0.35481969765E+02  0.00000000000E+00 0.  1.
         11    1    1    2    0    0  0.71994082714E+02  0.27788663083E+02  0.27651300073E+03  0.28707977517E+03  0.00000000000E+00 0. -1.
</event>
<event>
 7    1  0.2651429E-009  0.1304798E+03  0.7561462E-02  0.1226746E+00
         -1   -1    0    0    0  501 -0.00000000000E+00  0.00000000000E+00  0.22260496314E+03  0.22260496314E+03  0.00000000000E+00 0.  1.
          1   -1    0    0  501    0  0.00000000000E+00 -0.00000000000E+00 -0.80265406554E+02  0.80265406554E+02  0.00000000000E+00 0. -1.
         25    2    1    2    0    0  0.59462511105E+02  0.39140136417E+02  0.10847434891E+03  0.18022441725E+03  0.12508563344E+03 0.  0.
          5    1    3    3  502    0  0.57978460759E+02  0.82171431138E+02  0.76903156485E+02  0.12666970389E+03  0.41800000000E+01 0.  1.
         -5    1    3    3    0  502  0.14840503457E+01 -0.43031294721E+02  0.31571192429E+02  0.53554713352E+02  0.41800000000E+01 0.  1.
        -11    1    1    2    0    0  0.12546650665E+02  0.20172020387E+02  0.12883800828E+02  0.27024455095E+02  0.00000000000E+00 0. -1.
         11    1    1    2    0    0 -0.72009161770E+02 -0.59312156804E+02  0.20981406848E+02  0.95621497357E+02  0.00000000000E+00 0.  1.
</event>
<event>
 7    1  0.2651429E-009  0.1047249E+03  0.7561462E-02  0.1270663E+00
          3   -1    0    0  501    0  0.00000000000E+00  0.00000000000E+00  0.91181821514E+02  0.91181821514E+02  0.00000000000E+00 0. -1.
         -3   -1    0    0    0  501 -0.00000000000E+00 -0.00000000000E+00 -0.15619461751E+03  0.15619461751E+03  0.00000000000E+00 0.  1.
         25    2    1    2    0    0  0.11937499089E+02  0.43714445244E+02 -0.14662478230E+02  0.13384948398E+03  0.12508892632E+03 0.  0.
          5    1    3    3  502    0 -0.98730905185E+01  0.84770938032E+02 -0.19369805040E+01  0.85468205461E+02  0.41800000000E+01 0. -1.
         -5    1    3    3    0  502  0.21810589608E+02 -0.41056492788E+02 -0.12725497726E+02  0.48381278523E+02  0.41800000000E+01 0. -1.
        -11    1    1    2    0    0  0.10575867865E+02 -0.52204370092E+02  0.46763828278E+01  0.53469746532E+02  0.00000000000E+00 0. -1.
         11    1    1    2    0    0 -0.22513366954E+02  0.84899248484E+01 -0.55026700594E+02  0.60057208508E+02  0.00000000000E+00 0.  1.
</event>
<event>
 7    1  0.2651429E-009  0.9080608E+02  0.7561462E-02  0.1300911E+00
          1   -1    0    0  501    0  0.00000000000E+00  0.00000000000E+00  0.21978517036E+02  0.21978517036E+02  0.00000000000E+00 0. -1.
         -1   -1    0    0    0  501 -0.00000000000E+00 -0.00000000000E+00 -0.58752682630E+03  0.58752682630E+03  0.00000000000E+00 0.  1.
         25    2    1    2    0    0  0.26055087736E+02  0.23027949969E+02 -0.38277342635E+03  0.40418983680E+03  0.12507907169E+03 0.  0.
          5    1    3    3  502    0 -0.13502243571E+02 -0.33878140207E+02 -0.39332222741E+02  0.53800883925E+02  0.41800000000E+01 0.  1.
         -5    1    3    3    0  502  0.39557331307E+02  0.56906090176E+02 -0.34344120361E+03  0.35038895287E+03  0.41800000000E+01 0.  1.
        -11    1    1    2    0    0 -0.48573735725E+02 -0.10467895389E+02 -0.16885357063E+03  0.17601282041E+03  0.00000000000E+00 0.  1.
         11    1    1    2    0    0  0.22518647989E+02 -0.12560054581E+02 -0.13921312285E+02  0.29302686124E+02  0.00000000000E+00 0. -1.
</event>
<event>
 6    1  0.2651429E-009  0.1136086E+03  0.7561462E-02  0.1254030E+00
          1   -1    0    0  501    0  0.00000000000E+00  0.00000000000E+00  0.83855350840E+02  0.83855350840E+02  0.00000000000E+00 0. -1.
         -1   -1    0    0    0  501 -0.00000000000E+00 -0.00000000000E+00 -0.20007214043E+03  0.20007214043E+03  0.00000000000E+00 0.  1.
          5    1    1    2  502    0  0.20298607934E+02 -0.86691549016E+02 -0.11549237160E+02  0.89879449452E+02  0.41800000000E+01 0.  1.
         -5    1    1    2    0  502  0.22043303799E+02  0.31190750809E+02 -0.57611999886E+02  0.69248719189E+02  0.41800000000E+01 0.  1.
        -11    1    1    2    0    0 -0.51915980921E+02  0.96299283176E+01 -0.56137851037E+02  0.77067911049E+02  0.00000000000E+00 0.  1.
         11    1    1    2    0    0  0.95740691881E+01  0.45870869889E+02  0.90822984966E+01  0.47731411578E+02  0.00000000000E+00 0. -1.
</event>
<event>
 7    1  0.2651429E-009  0.7863238E+02  0.7561462E-02  0.1332978E+00
         -1   -1    0    0    0  501 -0.00000000000E+00  0.00000000000E+00  0.20461310314E+03  0.20461310314E+03  0.00000000000E+00 0.  1.
          1   -1    0    0  501    0  0.00000000000E+00 -0.00000000000E+00 -0.73166980151E+02  0.73166980151E+02  0.00000000000E+00 0. -1.
         25    2    1    2    0    0  0.37199055594E+02 -0.30411944058E+02  0.40973422906E+02  0.14013629890E+03  0.12510277698E+03 0.  0.
          5    1    3    3  502    0  0.13753526200E+02  0.18059151902E+01 -0.43928617948E+02  0.46255990827E+02  0.41800000000E+01 0. -1.
         -5    1    3    3    0  502  0.23445529394E+02 -0.32217859248E+02  0.84902040854E+02  0.93880308075E+02  0.41800000000E+01 0. -1.
        -11    1    1    2    0    0  0.65071394868E+01  0.53080299434E+02  0.37448105798E+02  0.65285692768E+02  0.00000000000E+00 0. -1.
         11    1    1    2    0    0 -0.43706195081E+02 -0.22668355376E+02  0.53024594287E+02  0.72358091622E+02  0.00000000000E+00 0.  1.
</event>
<event>
 7    1  0.2651429E-009  0.2892505E+03  0.7561462E-02  0.1090741E+00
         -2   -1    0    0    0  501 -0.00000000000E+00  0.00000000000E+00  0.43576603849E+03  0.43576603849E+03  0.00000000000E+00 0.  1.
          2   -1    0    0  501    0  0.00000000000E+00 -0.00000000000E+00 -0.21279985748E+03  0.21279985748E+03  0.00000000000E+00 0. -1.
         25    2    1    2    0    0  0.25395420217E+03 -0.12749040964E+03  0.10750277731E+03  0.32855816935E+03  0.12508829749E+03 0.  0.
          5    1    3    3  502    0  0.13868398767E+03 -0.52357133870E+02  0.11939592338E+03  0.19038743872E+03  0.41800000000E+01 0. -1.
         -5    1    3    3    0  502  0.11527021451E+03 -0.75133275771E+02 -0.11893146072E+02  0.13817073063E+03  0.41800000000E+01 0. -1.
        -11    1    1    2    0    0 -0.90672767758E+02  0.83928227996E+02  0.80417776893E+02  0.14741952757E+03  0.00000000000E+00 0.  1.
         11    1    1    2    0    0 -0.16328143441E+03  0.43562181645E+02  0.35045626809E+02  0.17258819905E+03  0.00000000000E+00 0. -1.
</event>
<event>
 7    1  0.2651429E-009  0.6548240E+02  0.7561462E-02  0.1376166E+00
         -1   -1    0    0    0  501 -0.00000000000E+00  0.00000000000E+00  0.68878866577E+03  0.68878866577E+03  0.00000000000E+00 0.  1.
          1   -1    0    0  501    0  0.00000000000E+00 -0.00000000000E+00 -0.16987203884E+02  0.16987203884E+02  0.00000000000E+00 0. -1.
         25    2    1    2    0    0 -0.41241224846E+01  0.10887064889E+01  0.43130711933E+03  0.44909808545E+03  0.12508023624E+03 0.  0.
          5    1    3    3  502    0 -0.15847009521E+02 -0.20267004685E+02  0.11373754671E+02  0.28437895228E+02  0.41800000000E+01 0.  1.
         -5    1    3    3    0  502  0.11722887036E+02  0.21355711174E+02  0.41993336466E+03  0.42066019022E+03  0.41800000000E+01 0.  1.
        -11    1    1    2    0    0  0.40785952416E+02 -0.10925945589E+02  0.18282185315E+03  0.18763448561E+03  0.00000000000E+00 0.  1.
         11    1    1    2    0    0 -0.36661829931E+02  0.98372391000E+01  0.57672489410E+02  0.69043298602E+02  0.00000000000E+00 0. -1.
</event>
<event>
 7    1  0.2832652E-009  0.6852612E+02  0.7561462E-02  0.1365178E+00
          2   -1    0    0  501    0  0.00000000000E+00  0.00000000000E+00  0.80319639269E+03  0.80319639269E+03  0.00000000000E+00 0. -1.
         -2   -1    0    0    0  501 -0.00000000000E+00 -0.00000000000E+00 -0.17443092533E+02  0.17443092533E+02  0.00000000000E+00 0.  1.
         25    2    1    2    0    0  0.34890236203E+02  0.11919939394E+02  0.54817801350E+03  0.56347568534E+03  0.12508517075E+03 0.  0.
          5    1    3    3  502    0 -0.78059615749E+01 -0.56520699861E+01 -0.25418619815E+01  0.10807978237E+02  0.41800000000E+01 0. -1.
         -5    1    3    3    0  502  0.42696197778E+02  0.17572009380E+02  0.55071987548E+03  0.55266770710E+03  0.41800000000E+01 0. -1.
        -11    1    1    2    0    0  0.73759902103E+01 -0.32394446682E+02  0.17914094690E+03  0.18219573064E+03  0.00000000000E+00 0. -1.
         11    1    1    2    0    0 -0.42266226413E+02  0.20474507288E+02  0.58434339755E+02  0.74968069246E+02  0.00000000000E+00 0.  1.
</event>
<event>
 7    1  0.2651429E-009  0.1193952E+03  0.7561462E-02  0.1244098E+00
          1   -1    0    0  501    0  0.00000000000E+00  0.00000000000E+00  0.99290443545E+02  0.99290443545E+02  0.00000000000E+00 0. -1.
         -1   -1    0    0    0  501 -0.00000000000E+00 -0.00000000000E+00 -0.23876069820E+03  0.23876069820E+03  0.00000000000E+00 0.  1.
         25    2    1    2    0    0 -0.69188331530E+02  0.84175744151E+02 -0.82903881319E+02  0.18545495591E+03  0.12509159049E+03 0.  0.
          5    1    3    3  502    0  0.37872578835E+01  0.42557791315E+02  0.24191750405E+02  0.49276993735E+02  0.41800000000E+01 0. -1.
         -5    1    3    3    0  502 -0.72975589413E+02  0.41617952836E+02 -0.10709563172E+03  0.13617796218E+03  0.41800000000E+01 0. -1.
        -11    1    1    2    0    0  0.50549424436E+02 -0.76271968515E+02  0.10689496536E+01  0.91508470348E+02  0.00000000000E+00 0. -1.
         11    1    1    2    0    0  0.18638907094E+02 -0.79037756365E+01 -0.57635322992E+02  0.61087715487E+02  0.00000000000E+00 0.  1.
</event>
<event>
 7    1  0.2651429E-009  0.1340040E+03  0.7561462E-02  0.1221633E+00
         -1   -1    0    0    0  501 -0.00000000000E+00  0.00000000000E+00  0.56607507447E+02  0.56607507447E+02  0.00000000000E+00 0.  1.
          1   -1    0    0  501    0  0.00000000000E+00 -0.00000000000E+00 -0.46417218420E+03  0.46417218420E+03  0.00000000000E+00 0. -1.
         25    2    1    2    0    0 -0.16348647135E+02 -0.92993932038E+02 -0.33533036281E+03  0.37014895909E+03  0.12509456436E+03 0.  0.
          5    1    3    3  502    0 -0.68673410791E+02 -0.73094974510E+02 -0.20573271557E+03  0.22891556370E+03  0.41800000000E+01 0.  1.
         -5    1    3    3    0  502  0.52324763656E+02 -0.19898957527E+02 -0.12959764724E+03  0.14123339539E+03  0.41800000000E+01 0.  1.
        -11    1    1    2    0    0  0.85351461662E+01 -0.70935810528E+01  0.14292934623E+02  0.18095734093E+02  0.00000000000E+00 0.  1.
         11    1    1    2    0    0  0.78135009690E+01  0.10008751309E+03 -0.86527248560E+02  0.13253499846E+03  0.00000000000E+00 0. -1.
</event>
<event>
 7    1  0.2651429E-009  0.9544998E+02  0.7561462E-02  0.1290166E+00
          1   -1    0    0  501    0  0.00000000000E+00  0.00000000000E+00  0.40095006289E+03  0.40095006289E+03  0.00000000000E+00 0. -1.
         -1   -1    0    0    0  501 -0.00000000000E+00 -0.00000000000E+00 -0.38304114184E+02  0.38304114184E+02  0.00000000000E+00 0.  1.
         25    2    1    2    0    0  0.12378158211E+02 -0.49661810520E+02  0.25779654794E+03  0.29107704589E+03  0.12508905743E+03 0.  0.
          5    1    3    3  502    0  0.11210823560E+00 -0.74868158576E+02  0.74854177820E+02  0.10595222543E+03  0.41800000000E+01 0.  1.
         -5    1    3    3    0  502  0.12266049975E+02  0.25206348056E+02  0.18294237012E+03  0.18512482045E+03  0.41800000000E+01 0.  1.
        -11    1    1    2    0    0  0.22117812467E+02 -0.52428581778E+01 -0.23924892353E+01  0.22856272551E+02  0.00000000000E+00 0.  1.
         11    1    1    2    0    0 -0.34495970678E+02  0.54904668698E+02  0.10724189000E+03  0.12532085863E+03  0.00000000000E+00 0. -1.
</event>
<event>
 7    1  0.2651429E-009  0.1243666E+03  0.7561462E-02  0.1236063E+00
          2   -1    0    0  501    0  0.00000000000E+00  0.00000000000E+00  0.80384435694E+03  0.80384435694E+03  0.00000000000E+00 0.  1.
         -2   -1    0    0    0  501 -0.00000000000E+00 -0.00000000000E+00 -0.21587991216E+02  0.21587991216E+02  0.00000000000E+00 0. -1.
         25    2    1    2    0    0  0.38292264696E+02  0.63347851761E+02  0.45140783229E+03  0.47423131411E+03  0.12508821036E+03 0.  0.
          5    1    3    3  502    0 -0.38762457978E+02  0.48945359531E+02  0.25843090445E+03  0.26589881749E+03  0.41800000000E+01 0. -1.
         -5    1    3    3    0  502  0.77054722674E+02  0.14402492229E+02  0.19297692784E+03  0.20833249662E+03  0.41800000000E+01 0. -1.
        -11    1    1    2    0    0  0.12827917459E+02 -0.54234945258E+02  0.24161161351E+03  0.24795595685E+03  0.00000000000E+00 0. -1.
         11    1    1    2    0    0 -0.51120182155E+02 -0.91129065028E+01  0.89236919929E+02  0.10324507720E+03  0.00000000000E+00 0.  1.
</event>
<event>
 7    1  0.2651429E-009  0.1078408E+03  0.7561462E-02  0.1264622E+00
         -2   -1    0    0    0  501 -0.00000000000E+00  0.00000000000E+00  0.37308753312E+03  0.37308753312E+03  0.00000000000E+00 0.  1.
          2   -1    0    0  501    0  0.00000000000E+00 -0.00000000000E+00 -0.41213411118E+02  0.41213411118E+02  0.00000000000E+00 0. -1.
         25    2    1    2    0    0  0.27972031505E+01 -0.56866564190E+02  0.16260456172E+03  0.21290147769E+03  0.12508063496E+03 0.  0.
          5    1    3    3  502    0 -0.51124204734E+02 -0.56701247420E+02  0.12670520973E+03  0.14798783173E+03  0.41800000000E+01 0.  1.
         -5    1    3    3    0  502  0.53921407884E+02 -0.16531677007E+00  0.35899351991E+02  0.64913645956E+02  0.41800000000E+01 0.  1.
        -11    1    1    2    0    0 -0.30318428522E+02  0.12216197552E+02  0.13463345001E+03  0.13854460817E+03  0.00000000000E+00 0.  1.
         11    1    1    2    0    0  0.27521225372E+02  0.44650366639E+02  0.34636110265E+02  0.62854858374E+02  0.00000000000E+00 0. -1.
</event>
<event>
 7    1  0.2651429E-009  0.1928823E+03  0.7561462E-02  0.1155887E+00
         -2   -1    0    0    0  501 -0.00000000000E+00  0.00000000000E+00  0.72815761098E+02  0.72815761098E+02  0.00000000000E+00 0.  1.
          2   -1    0    0  501    0  0.00000000000E+00 -0.00000000000E+00 -0.55364180881E+03  0.55364180881E+03  0.00000000000E+00 0. -1.
         25    2    1    2    0    0  0.34975906867E+02  0.16121783180E+03 -0.19745311804E+03  0.28609469180E+03  0.12509170835E+03 0.  0.
          5    1    3    3  502    0  0.80097875813E+02  0.77174879787E+02 -0.99330286093E+02  0.14918314220E+03  0.41800000000E+01 0.  1.
         -5    1    3    3    0  502 -0.45121968946E+02  0.84042952014E+02 -0.98122831951E+02  0.13691154960E+03  0.41800000000E+01 0.  1.
        -11    1    1    2    0    0  0.20669770868E+02 -0.29832703375E+02 -0.21615050821E+02  0.42242632971E+02  0.00000000000E+00 0.  1.
         11    1    1    2    0    0 -0.55645677735E+02 -0.13138512843E+03 -0.26175787885E+03  0.29812024514E+03  0.00000000000E+00 0. -1.
</event>
<event>
 7    1  0.2651429E-009  0.8257373E+02  0.7561462E-02  0.1321902E+00
         -1   -1    0    0    0  501 -0.00000000000E+00  0.00000000000E+00  0.37547353094E+03  0.37547353094E+03  0.00000000000E+00 0.  1.
          1   -1    0    0  501    0  0.00000000000E+00 -0.00000000000E+00 -0.63931332150E+02  0.63931332150E+02  0.00000000000E+00 0. -1.
         25    2    1    2    0    0 -0.41902200878E+02 -0.33210606924E+02  0.29987237362E+03  0.32928411098E+03  0.12508335792E+03 0.  0.
          5    1    3    3  502    0 -0.30417572523E+02 -0.12132744946E+02  0.30293405638E+03  0.30472766060E+03  0.41800000000E+01 0. -1.
         -5    1    3    3    0  502 -0.11484628355E+02 -0.21077861977E+02 -0.30616827574E+01  0.24556450380E+02  0.41800000000E+01 0. -1.
        -11    1    1    2    0    0 -0.24132918061E+02  0.34042257904E+02 -0.49502243644E+01  0.42021158702E+02  0.00000000000E+00 0.  1.
         11    1    1    2    0    0  0.66035118939E+02 -0.83165098050E+00  0.16620049535E+02  0.68099593414E+02  0.00000000000E+00 0. -1.
</event>
<event>
 7    1  0.2651429E-009  0.1032695E+03  0.7561462E-02  0.1273567E+00
         -1   -1    0    0    0  501 -0.00000000000E+00  0.00000000000E+00  0.59377991344E+02  0.59377991344E+02  0.00000000000E+00 0.  1.
          1   -1    0    0  501    0  0.00000000000E+00 -0.00000000000E+00 -0.38859204740E+03  0.38859204740E+03  0.00000000000E+00 0. -1.
         25    2    1    2    0    0  0.70581287302E+02  0.63629823793E+02 -0.24897989100E+03  0.29439640954E+03  0.12509111574E+03 0.  0.
          5    1    3    3  502    0  0.15565378231E+02  0.67453525165E+01  0.12297468817E+02  0.21365414093E+02  0.41800000000E+01 0.  1.
         -5    1    3    3    0  502  0.55015909071E+02  0.56884471277E+02 -0.26127735982E+03  0.27303099545E+03  0.41800000000E+01 0.  1.
        -11    1    1    2    0    0 -0.66279571920E+01 -0.41682618075E+02 -0.74616484803E+02  0.85726251933E+02  0.00000000000E+00 0. -1.
         11    1    1    2    0    0 -0.63953330110E+02 -0.21947205718E+02 -0.56176802546E+01  0.67847377270E+02  0.00000000000E+00 0.  1.
</event>
<event>
 7    1  0.2651429E-009  0.8109460E+02  0.7561462E-02  0.1325973E+00
          3   -1    0    0  501    0  0.00000000000E+00  0.00000000000E+00  0.75830865533E+02  0.75830865533E+02  0.00000000000E+00 0. -1.
         -3   -1    0    0    0  501 -0.00000000000E+00 -0.00000000000E+00 -0.16563961827E+03  0.16563961827E+03  0.00000000000E+00 0.  1.
         25    2    1    2    0    0 -0.27095335789E+00 -0.15161549662E+02 -0.80391869241E+02  0.14946511653E+03  0.12508805865E+03 0.  0.
          5    1    3    3  502    0  0.26575449987E+02  0.23146764996E+02  0.18474889654E+02  0.40010263927E+02  0.41800000000E+01 0.  1.
         -5    1    3    3    0  502 -0.26846403344E+02 -0.38308314658E+02 -0.98866758895E+02  0.10945485261E+03  0.41800000000E+01 0.  1.
        -11    1    1    2    0    0 -0.38703676759E+02  0.26219040244E+01  0.17965283281E+02  0.42750443024E+02  0.00000000000E+00 0. -1.
         11    1    1    2    0    0  0.38974630116E+02  0.12539645638E+02 -0.27382166781E+02  0.49254924252E+02  0.00000000000E+00 0.  1.
</event>
<event>
 7    1  0.2945460E-009  0.1388041E+03  0.7561462E-02  0.1214947E+00
         -2   -1    0    0    0  501 -0.00000000000E+00  0.00000000000E+00  0.84715759537E+02  0.84715759537E+02  0.00000000000E+00 0. -1.
          2   -1    0    0  501    0  0.00000000000E+00 -0.00000000000E+00 -0.27433129846E+03  0.27433129846E+03  0.00000000000E+00 0.  1.
         25    2    1    2    0    0  0.79413915011E+02 -0.70913185811E+02 -0.11154108258E+03  0.19855412029E+03  0.12508827187E+03 0.  0.
          5    1    3    3  502    0  0.61995157928E+02 -0.10578798114E+03 -0.69232601528E+02  0.14087271586E+03  0.41800000000E+01 0.  1.
         -5    1    3    3    0  502  0.17418757083E+02  0.34874795327E+02 -0.42308481051E+02  0.57681404424E+02  0.41800000000E+01 0.  1.
        -11    1    1    2    0    0 -0.43851907767E+02  0.96843695280E+01  0.11456154003E+02  0.46346739826E+02  0.00000000000E+00 0.  1.
         11    1    1    2    0    0 -0.35562007244E+02  0.61228816283E+02 -0.89530610351E+02  0.11414619789E+03  0.00000000000E+00 0. -1.
</event>
<event>
 7    1  0.2651429E-009  0.9779515E+02  0.7561462E-02  0.1285002E+00
          2   -1    0    0  501    0  0.00000000000E+00  0.00000000000E+00  0.34049509382E+03  0.34049509382E+03  0.00000000000E+00 0. -1.
         -2   -1    0    0    0  501 -0.00000000000E+00 -0.00000000000E+00 -0.41432941583E+02  0.41432941583E+02  0.00000000000E+00 0.  1.
         25    2    1    2    0    0 -0.41690752110E+02  0.27679556504E+02  0.14946325615E+03  0.20121139423E+03  0.12506991472E+03 0.  0.
          5    1    3    3  502    0 -0.12504512082E+02  0.55345327673E+02  0.12293630793E+02  0.58207163440E+02  0.41800000000E+01 0.  1.
         -5    1    3    3    0  502 -0.29186240028E+02 -0.27665771169E+02  0.13716962536E+03  0.14300423079E+03  0.41800000000E+01 0.  1.
        -11    1    1    2    0    0 -0.14886526812E+01 -0.49749653395E+02  0.53475295848E+02  0.73053756685E+02  0.00000000000E+00 0.  1.
         11    1    1    2    0    0  0.43179404791E+02  0.22070096890E+02  0.96123600236E+02  0.10766288449E+03  0.00000000000E+00 0. -1.
</event>
<event>
 6    1  0.2651429E-009  0.2252175E+03  0.7561462E-02  0.1130052E+00
         -4   -1    0    0    0  501 -0.00000000000E+00  0.00000000000E+00  0.82403192881E+02  0.82403192881E+02  0.00000000000E+00 0.  1.
          4   -1    0    0  501    0  0.00000000000E+00 -0.00000000000E+00 -0.92303534889E+03  0.92303534889E+03  0.00000000000E+00 0. -1.
          5    1    1    2  502    0  0.79067877695E+02  0.58038398726E+02 -0.22947352429E+03  0.24959117725E+03  0.41800000000E+01 0.  1.
         -5    1    1    2    0  502 -0.17257968507E+02  0.14186610200E+03 -0.46451325930E+03  0.48601838323E+03  0.41800000000E+01 0.  1.
        -11    1    1    2    0    0 -0.14225666223E+02 -0.52680026293E+02  0.29045333744E+01  0.54644222603E+02  0.00000000000E+00 0.  1.
         11    1    1    2    0    0 -0.47584242965E+02 -0.14722447443E+03 -0.14954990580E+03  0.21518475869E+03  0.00000000000E+00 0. -1.
</event>
<event>
 7    1  0.2651429E-009  0.1483972E+03  0.7561462E-02  0.1202456E+00
         -3   -1    0    0    0  501 -0.00000000000E+00  0.00000000000E+00  0.34722852295E+03  0.34722852295E+03  0.00000000000E+00 0.  1.
          3   -1    0    0  501    0  0.00000000000E+00 -0.00000000000E+00 -0.75599927377E+02  0.75599927377E+02  0.00000000000E+00 0. -1.
         25    2    1    2    0    0 -0.10675496677E+03  0.15985190499E+02  0.86285591733E+02  0.18639998617E+03  0.12509037637E+03 0.  0.
          5    1    3    3  502    0 -0.13312065378E+03  0.94748248323E+01  0.86185742322E+02  0.15892241927E+03  0.41800000000E+01 0.  1.
         -5    1    3    3    0  502  0.26365687013E+02  0.65103656669E+01  0.99849411263E-01  0.27477566899E+02  0.41800000000E+01 0.  1.
        -11    1    1    2    0    0  0.40313622901E+02 -0.47463382102E+02  0.13085574755E+03  0.14491786466E+03  0.00000000000E+00 0.  1.
         11    1    1    2    0    0  0.66441343865E+02  0.31478191602E+02  0.54487256294E+02  0.91510599493E+02  0.00000000000E+00 0. -1.
</event>
<event>
 7    1  0.2651429E-009  0.1439041E+03  0.7561462E-02  0.1208170E+00
         -2   -1    0    0    0  501 -0.00000000000E+00  0.00000000000E+00  0.12259116269E+03  0.12259116269E+03  0.00000000000E+00 0.  1.
          2   -1    0    0  501    0  0.00000000000E+00 -0.00000000000E+00 -0.25005188438E+03  0.25005188438E+03  0.00000000000E+00 0. -1.
         25    2    1    2    0    0  0.13430817961E+03  0.25139517833E+02 -0.69774817058E+02  0.19792137356E+03  0.12503464540E+03 0.  0.
          5    1    3    3  502    0  0.10383289834E+03  0.75865126292E+01  0.15727857038E+02  0.10537392390E+03  0.41800000000E+01 0.  1.
         -5    1    3    3    0  502  0.30475281266E+02  0.17553005204E+02 -0.85502674096E+02  0.92547449654E+02  0.41800000000E+01 0.  1.
        -11    1    1    2    0    0 -0.12971374403E+03 -0.37488322787E+02 -0.22156850856E+02  0.13682819803E+03  0.00000000000E+00 0.  1.
         11    1    1    2    0    0 -0.45944355728E+01  0.12348804954E+02 -0.35529053776E+02  0.37893475484E+02  0.00000000000E+00 0. -1.
</event>
<event>
 7    1  0.2651429E-009  0.1671968E+03  0.7561462E-02  0.1180803E+00
         -2   -1    0    0    0  501 -0.00000000000E+00  0.00000000000E+00  0.42207308161E+02  0.42207308161E+02  0.00000000000E+00 0.  1.
          2   -1    0    0  501    0  0.00000000000E+00 -0.00000000000E+00 -0.80693810695E+03  0.80693810695E+03  0.00000000000E+00 0. -1.
         25    2    1    2    0    0 -0.13152155260E+02  0.12857776207E+03 -0.57312347775E+03  0.60068576007E+03  0.12509053326E+03 0.  0.
          5    1    3    3  502    0 -0.47252295605E+02  0.43620777931E+01 -0.21103961090E+03  0.21634924759E+03  0.41800000000E+01 0. -1.
         -5    1    3    3    0  502  0.34100140345E+02  0.12421568428E+03 -0.36208386685E+03  0.38433651248E+03  0.41800000000E+01 0. -1.
        -11    1    1    2    0    0 -0.37789102729E+02 -0.35905155627E+02 -0.56239131258E+02  0.76681395203E+02  0.00000000000E+00 0. -1.
         11    1    1    2    0    0  0.50941257988E+02 -0.92672606441E+02 -0.13536818978E+03  0.17177825984E+03  0.00000000000E+00 0.  1.
</event>
<event>
 7    1  0.2651429E-009  0.1113501E+03  0.7561462E-02  0.1258090E+00
          2   -1    0    0  501    0  0.00000000000E+00  0.00000000000E+00  0.11410290330E+04  0.11410290330E+04  0.00000000000E+00 0. -1.
         -2   -1    0    0    0  501 -0.00000000000E+00 -0.00000000000E+00 -0.15638257963E+02  0.15638257963E+02  0.00000000000E+00 0.  1.
         25    2    1    2    0    0 -0.52155924992E+02  0.18521028582E+02  0.86539874867E+03  0.87614195145E+03  0.12508579407E+03 0.  0.
          5    1    3    3  502    0 -0.92108188401E+02  0.22233071431E+01  0.64011071778E+03  0.64672101008E+03  0.41800000000E+01 0.  1.
         -5    1    3    3    0  502  0.39952263409E+02  0.16297721439E+02  0.22528803090E+03  0.22942094137E+03  0.41800000000E+01 0.  1.
        -11    1    1    2    0    0 -0.10250627159E+02  0.13521614671E+02  0.76485027638E+01  0.18612066382E+02  0.00000000000E+00 0.  1.
         11    1    1    2    0    0  0.62406552151E+02 -0.32042643254E+02  0.25234352362E+03  0.26191327314E+03  0.00000000000E+00 0. -1.
</event>
<event>
 7    1  0.2651429E-009  0.1108362E+03  0.7561462E-02  0.1259029E+00
         -2   -1    0    0    0  501 -0.00000000000E+00  0.00000000000E+00  0.26821654117E+02  0.26821654117E+02  0.00000000000E+00 0.  1.
          2   -1    0    0  501    0  0.00000000000E+00 -0.00000000000E+00 -0.50543719794E+03  0.50543719794E+03  0.00000000000E+00 0. -1.
         25    2    1    2    0    0 -0.37241177490E+02 -0.10731792141E+02 -0.31780717810E+03  0.34373093503E+03  0.12508987401E+03 0.  0.
          5    1    3    3  502    0 -0.39945559825E+02  0.49000955107E+02 -0.10491579261E+03  0.12256238122E+03  0.41800000000E+01 0.  1.
         -5    1    3    3    0  502  0.27043823349E+01 -0.59732747248E+02 -0.21289138549E+03  0.22116855381E+03  0.41800000000E+01 0.  1.
        -11    1    1    2    0    0  0.66591291452E+02 -0.14250617939E+01 -0.11102931731E+03  0.12947563555E+03  0.00000000000E+00 0.  1.
         11    1    1    2    0    0 -0.29350113962E+02  0.12156853935E+02 -0.49779048411E+02  0.59052281479E+02  0.00000000000E+00 0. -1.
</event>
<event>
 7    1  0.2651429E-009  0.1451595E+03  0.7561462E-02  0.1206550E+00
          2   -1    0    0  501    0  0.00000000000E+00  0.00000000000E+00  0.61450447197E+03  0.61450447197E+03  0.00000000000E+00 0. -1.
         -2   -1    0    0    0  501 -0.00000000000E+00 -0.00000000000E+00 -0.35628435083E+02  0.35628435083E+02  0.00000000000E+00 0.  1.
         25    2    1    2    0    0  0.13916297421E+02 -0.97197020015E+02  0.34748011651E+03  0.38213846071E+03  0.12508576158E+03 0.  0.
          5    1    3    3  502    0 -0.15961206342E+02  0.24741264321E+02  0.38857069042E+02  0.48930915408E+02  0.41800000000E+01 0. -1.
         -5    1    3    3    0  502  0.29877503764E+02 -0.12193828434E+03  0.30862304747E+03  0.33320754530E+03  0.41800000000E+01 0. -1.
        -11    1    1    2    0    0 -0.92745956054E+01  0.11560773883E+03  0.19316698447E+03  0.22531012247E+03  0.00000000000E+00 0.  1.
         11    1    1    2    0    0 -0.46417018160E+01 -0.18410718818E+02  0.38228935906E+02  0.42684323863E+02  0.00000000000E+00 0. -1.
</event>
<event>
 7    1  0.2651429E-009  0.1414743E+03  0.7561462E-02  0.1211359E+00
         -1   -1    0    0    0  501 -0.00000000000E+00  0.00000000000E+00  0.21784280260E+02  0.21784280260E+02  0.00000000000E+00 0.  1.
          1   -1    0    0  501    0  0.00000000000E+00 -0.00000000000E+00 -0.20572967095E+04  0.20572967095E+04  0.00000000000E+00 0. -1.
         25    2    1    2    0    0  0.89310462264E+02 -0.41828355054E+02 -0.18050017100E+04  0.18120173447E+04  0.12509881881E+03 0.  0.
          5    1    3    3  502    0 -0.10640701675E+01 -0.64634964803E+02 -0.85212253753E+03  0.85458124382E+03  0.41800000000E+01 0. -1.
         -5    1    3    3    0  502  0.90374532432E+02  0.22806609750E+02 -0.95287917245E+03  0.95743610087E+03  0.41800000000E+01 0. -1.
        -11    1    1    2    0    0 -0.34539653807E+02 -0.21853921034E+02 -0.12892961193E+03  0.13525319361E+03  0.00000000000E+00 0. -1.
         11    1    1    2    0    0 -0.54770808457E+02  0.63682276087E+02 -0.10158110732E+03  0.13181045145E+03  0.00000000000E+00 0.  1.
</event>
<event>
 7    1  0.2651429E-009  0.1862539E+03  0.7561462E-02  0.1161884E+00
         -1   -1    0    0    0  501 -0.00000000000E+00  0.00000000000E+00  0.17458710626E+03  0.17458710626E+03  0.00000000000E+00 0.  1.
          1   -1    0    0  501    0  0.00000000000E+00 -0.00000000000E+00 -0.30127201650E+03  0.30127201650E+03  0.00000000000E+00 0. -1.
         25    2    1    2    0    0  0.16938196661E+03  0.23757299870E+02  0.44934856863E+02  0.21660962946E+03  0.12508369320E+03 0.  0.
          5    1    3    3  502    0  0.68484246430E+00  0.12388119160E+02 -0.29156747827E+02  0.31961271085E+02  0.41800000000E+01 0. -1.
         -5    1    3    3    0  502  0.16869712414E+03  0.11369180710E+02  0.74091604690E+02  0.18464835837E+03  0.41800000000E+01 0. -1.
        -11    1    1    2    0    0 -0.81444376119E+02 -0.53509501619E+02 -0.61558710449E+02  0.11526459993E+03  0.00000000000E+00 0.  1.
         11    1    1    2    0    0 -0.87937590488E+02  0.29752201749E+02 -0.11006105665E+03  0.14398489338E+03  0.00000000000E+00 0. -1.
</event>
<event>
 7    1  0.2651429E-009  0.1059898E+03  0.7561462E-02  0.1268182E+00
          2   -1    0    0  501    0  0.00000000000E+00  0.00000000000E+00  0.61898359781E+03  0.61898359781E+03  0.00000000000E+00 0. -1.
         -2   -1    0    0    0  501 -0.00000000000E+00 -0.00000000000E+00 -0.19376192639E+02  0.19376192639E+02  0.00000000000E+00 0.  1.
         25    2    1    2    0    0 -0.21785246408E+02  0.17747768375E+01  0.32902616136E+03  0.35268226976E+03  0.12509525072E+03 0.  0.
          5    1    3    3  502    0 -0.60145673869E+02  0.39217824366E+02  0.16289382214E+03  0.17806574495E+03  0.41800000000E+01 0. -1.
         -5    1    3    3    0  502  0.38360427461E+02 -0.37443047529E+02  0.16613233922E+03  0.17461652481E+03  0.41800000000E+01 0. -1.
        -11    1    1    2    0    0 -0.46462080438E+00  0.39444366286E+02  0.17294424301E+03  0.17738597772E+03  0.00000000000E+00 0. -1.
         11    1    1    2    0    0  0.22249867212E+02 -0.41219143123E+02  0.97637000805E+02  0.10829154296E+03  0.00000000000E+00 0.  1.
</event>
<event>
 7    1  0.2651429E-009  0.1424513E+03  0.7561462E-02  0.1210068E+00
          1   -1    0    0  501    0  0.00000000000E+00  0.00000000000E+00  0.97503894577E+02  0.97503894577E+02  0.00000000000E+00 0. -1.
         -1   -1    0    0    0  501 -0.00000000000E+00 -0.00000000000E+00 -0.32061329949E+03  0.32061329949E+03  0.00000000000E+00 0.  1.
         25    2    1    2    0    0  0.82040400548E+02  0.10086247099E+03 -0.17898090075E+03  0.25413606995E+03  0.12508842409E+03 0.  0.
          5    1    3    3  502    0  0.78057423199E+01  0.48528429655E+02 -0.15122954383E+03  0.15907163614E+03  0.41800000000E+01 0. -1.
         -5    1    3    3    0  502  0.74234658228E+02  0.52334041331E+02 -0.27751356915E+02  0.95064433806E+02  0.41800000000E+01 0. -1.
        -11    1    1    2    0    0 -0.81299685174E+02 -0.53594544326E+02 -0.59687226756E+02  0.11421286718E+03  0.00000000000E+00 0.  1.
         11    1    1    2    0    0 -0.74071537416E+00 -0.47267926660E+02  0.15558722593E+02  0.49768256938E+02  0.00000000000E+00 0. -1.
</event>
<event>
 7    1  0.2651429E-009  0.1027151E+03  0.7561462E-02  0.1274688E+00
          1   -1    0    0  501    0  0.00000000000E+00  0.00000000000E+00  0.11352287491E+04  0.11352287491E+04  0.00000000000E+00 0. -1.
         -1   -1    0    0    0  501 -0.00000000000E+00 -0.00000000000E+00 -0.15148402272E+02  0.15148402272E+02  0.00000000000E+00 0.  1.
         25    2    1    2    0    0  0.32818845814E+02  0.17174543824E+02  0.91406070184E+03  0.92332400114E+03  0.12509277688E+03 0.  0.
          5    1    3    3  502    0  0.70980558643E+02  0.22670627261E+02  0.34680169029E+03  0.35474086575E+03  0.41800000000E+01 0.  1.
         -5    1    3    3    0  502 -0.38161712828E+02 -0.54960834374E+01  0.56725901155E+03  0.56858313539E+03  0.41800000000E+01 0.  1.
        -11    1    1    2    0    0  0.53915747849E+01  0.30470639642E+02  0.10024564082E+03  0.10491290417E+03  0.00000000000E+00 0. -1.
         11    1    1    2    0    0 -0.38210420599E+02 -0.47645183466E+02  0.10577400415E+03  0.12214024604E+03  0.00000000000E+00 0.  1.
</event>
<event>
 7    1  0.2651429E-009  0.2481102E+03  0.7561462E-02  0.1114505E+00
          1   -1    0    0  501    0  0.00000000000E+00  0.00000000000E+00  0.72115171162E+03  0.72115171162E+03  0.00000000000E+00 0. -1.
         -1   -1    0    0    0  501 -0.00000000000E+00 -0.00000000000E+00 -0.10741890528E+03  0.10741890528E+03  0.00000000000E+00 0.  1.
         25    2    1    2    0    0  0.76732304344E+02 -0.21693897270E+03  0.14675912706E+03  0.30022679504E+03  0.12509005827E+03 0.  0.
          5    1    3    3  502    0  0.92981086702E+02 -0.22178763388E+03  0.12137543841E+03  0.26941549042E+03  0.41800000000E+01 0.  1.
         -5    1    3    3    0  502 -0.16248782358E+02  0.48486611747E+01  0.25383688651E+02  0.30811304628E+02  0.41800000000E+01 0.  1.
        -11    1    1    2    0    0 -0.28759648362E+02  0.18783024645E+02  0.13028257374E+03  0.13473480771E+03  0.00000000000E+00 0.  1.
         11    1    1    2    0    0 -0.47972655981E+02  0.19815594806E+03  0.33669110554E+03  0.39360901415E+03  0.00000000000E+00 0. -1.
</event>
<event>
 7    1  0.2651429E-009  0.1541963E+03  0.7561462E-02  0.1195409E+00
         -1   -1    0    0    0  501 -0.00000000000E+00  0.00000000000E+00  0.37947462411E+03  0.37947462411E+03  0.00000000000E+00 0.  1.
          1   -1    0    0  501    0  0.00000000000E+00 -0.00000000000E+00 -0.13475369365E+03  0.13475369365E+03  0.00000000000E+00 0. -1.
         25    2    1    2    0    0 -0.10409090490E+03 -0.49689445754E+02 -0.55473895570E+02  0.17896462388E+03  0.12508807301E+03 0.  0.
          5    1    3    3  502    0  0.11000840696E+02  0.25918387851E+02  0.43000011433E+01  0.28787909522E+02  0.41800000000E+01 0.  1.
         -5    1    3    3    0  502 -0.11509174560E+03 -0.75607833605E+02 -0.59773896713E+02  0.15017671436E+03  0.41800000000E+01 0.  1.
        -11    1    1    2    0    0  0.11437497928E+03  0.27399128656E+02  0.27920577412E+03  0.30296569515E+03  0.00000000000E+00 0.  1.
         11    1    1    2    0    0 -0.10284074378E+02  0.22290317098E+02  0.20989051906E+02  0.32297998731E+02  0.00000000000E+00 0. -1.
</event>
<event>
 7    1  0.2651429E-009  0.1097061E+03  0.7561462E-02  0.1261115E+00
          1   -1    0    0  501    0  0.00000000000E+00  0.00000000000E+00  0.34415621403E+03  0.34415621403E+03  0.00000000000E+00 0. -1.
         -1   -1    0    0    0  501 -0.00000000000E+00 -0.00000000000E+00 -0.40547732796E+02  0.40547732796E+02  0.00000000000E+00 0.  1.
         25    2    1    2    0    0 -0.30730156907E+02 -0.30686282416E+02  0.19478947145E+03  0.23553675346E+03  0.12509449857E+03 0.  0.
          5    1    3    3  502    0 -0.43368855699E+02  0.31529816722E+02  0.14529121404E+03  0.15492577663E+03  0.41800000000E+01 0.  1.
         -5    1    3    3    0  502  0.12638698791E+02 -0.62216099138E+02  0.49498257401E+02  0.80610976826E+02  0.41800000000E+01 0.  1.
        -11    1    1    2    0    0  0.68000625375E+01  0.62125135775E+02  0.65243692905E+02  0.90346625889E+02  0.00000000000E+00 0.  1.
         11    1    1    2    0    0  0.23930094370E+02 -0.31438853359E+02  0.43575316884E+02  0.58820567480E+02  0.00000000000E+00 0. -1.
</event>
<event>
 7    1  0.2651429E-009  0.1622908E+03  0.7561462E-02  0.1186134E+00
          2   -1    0    0  501    0  0.00000000000E+00  0.00000000000E+00  0.59927990492E+02  0.59927990492E+02  0.00000000000E+00 0. -1.
         -2   -1    0    0    0  501 -0.00000000000E+00 -0.00000000000E+00 -0.51760192143E+03  0.51760192143E+03  0.00000000000E+00 0.  1.
         25    2    1    2    0    0 -0.95397296726E+02  0.94814686337E+02 -0.19057444928E+03  0.26467819460E+03  0.12508180129E+03 0.  0.
          5    1    3    3  502    0 -0.24606931502E+02  0.93635171129E+02 -0.16083431897E+03  0.18777166162E+03  0.41800000000E+01 0. -1.
         -5    1    3    3    0  502 -0.70790365225E+02  0.11795152085E+01 -0.29740130311E+02  0.76906532985E+02  0.41800000000E+01 0. -1.
        -11    1    1    2    0    0  0.77406417702E+01 -0.63043002581E+02 -0.15192801744E+03  0.16467076302E+03  0.00000000000E+00 0.  1.
         11    1    1    2    0    0  0.87656654956E+02 -0.31771683756E+02 -0.11517146422E+03  0.14818095430E+03  0.00000000000E+00 0. -1.
</event>
<event>
 7    1  0.2651429E-009  0.9242267E+02  0.7561462E-02  0.1297089E+00
          2   -1    0    0  501    0  0.00000000000E+00  0.00000000000E+00  0.11970057919E+04  0.11970057919E+04  0.00000000000E+00 0. -1.
         -2   -1    0    0    0  501 -0.00000000000E+00 -0.00000000000E+00 -0.12768919901E+02  0.12768919901E+02  0.00000000000E+00 0.  1.
         25    2    1    2    0    0  0.49209187634E+02 -0.24180333298E+02  0.79804800638E+03  0.80964829984E+03  0.12507404320E+03 0.  0.
          5    1    3    3  502    0  0.40039920996E+02  0.18849147329E+02  0.70745950531E+03  0.70885464638E+03  0.41800000000E+01 0.  1.
         -5    1    3    3    0  502  0.91692666375E+01 -0.43029480627E+02  0.90588501065E+02  0.10079365347E+03  0.41800000000E+01 0.  1.
        -11    1    1    2    0    0 -0.57864978354E+01  0.46856711278E+02  0.11118945218E+03  0.12079788584E+03  0.00000000000E+00 0.  1.
         11    1    1    2    0    0 -0.43422689798E+02 -0.22676377979E+02  0.27499941342E+03  0.27932852609E+03  0.00000000000E+00 0. -1.
</event>
<event>
 7    1  0.2651429E-009  0.2222506E+03  0.7561462E-02  0.1132216E+00
          1   -1    0    0  501    0  0.00000000000E+00  0.00000000000E+00  0.72448138837E+03  0.72448138837E+03  0.00000000000E+00 0. -1.
         -1   -1    0    0    0  501 -0.00000000000E+00 -0.00000000000E+00 -0.81363225059E+02  0.81363225059E+02  0.00000000000E+00 0.  1.
         25    2    1    2    0    0  0.16924627552E+03 -0.10654582715E+03  0.47175496871E+03  0.52744315067E+03  0.12508881492E+03 0.  0.
          5    1    3    3  502    0  0.17653081131E+03 -0.56886906378E+02  0.37271318984E+03  0.41633140855E+03  0.41800000000E+01 0.  1.
         -5    1    3    3    0  502 -0.72845357981E+01 -0.49658920777E+02  0.99041778871E+02  0.11111174212E+03  0.41800000000E+01 0.  1.
        -11    1    1    2    0    0 -0.11002734428E+03  0.34394844960E+02  0.50920849092E+02  0.12602362763E+03  0.00000000000E+00 0.  1.
         11    1    1    2    0    0 -0.59218931238E+02  0.72150982195E+02  0.12044234550E+03  0.15237783513E+03  0.00000000000E+00 0. -1.
</event>
<event>
 7    1  0.2651429E-009  0.6224748E+02  0.7561462E-02  0.1388635E+00
         -1   -1    0    0    0  501 -0.00000000000E+00  0.00000000000E+00  0.51833369049E+02  0.51833369049E+02  0.00000000000E+00 0.  1.
          1   -1    0    0  501    0  0.00000000000E+00 -0.00000000000E+00 -0.28428550628E+03  0.28428550628E+03  0.00000000000E+00 0. -1.
         25    2    1    2    0    0  0.75986229552E+01 -0.43257745172E+02 -0.84124027825E+02  0.15701250856E+03  0.12508838554E+03 0.  0.
          5    1    3    3  502    0  0.62533800560E+01 -0.40653845864E+02  0.24639540664E+02  0.48129193945E+02  0.41800000000E+01 0.  1.
         -5    1    3    3    0  502  0.13452428992E+01 -0.26038993078E+01 -0.10876356849E+03  0.10888331461E+03  0.41800000000E+01 0.  1.
        -11    1    1    2    0    0  0.17320623805E+02  0.49427407230E+02 -0.35204642502E+02  0.63106572148E+02  0.00000000000E+00 0.  1.
         11    1    1    2    0    0 -0.24919246761E+02 -0.61696620586E+01 -0.11312346690E+03  0.11599979462E+03  0.00000000000E+00 0. -1.
</event>
<event>
 7    1  0.2651429E-009  0.1361705E+03  0.7561462E-02  0.1218577E+00
         -2   -1    0    0    0  501 -0.00000000000E+00  0.00000000000E+00  0.28610745810E+03  0.28610745810E+03  0.00000000000E+00 0.  1.
          2   -1    0    0  501    0  0.00000000000E+00 -0.00000000000E+00 -0.13223269135E+03  0.13223269135E+03  0.00000000000E+00 0. -1.
         25    2    1    2    0    0  0.25240632330E+02  0.10526492293E+03 -0.46643014780E+02  0.17187605808E+03  0.12509202610E+03 0.  0.
          5    1    3    3  502    0  0.31664193429E+02  0.12143766606E+03 -0.40016110965E+01  0.12563125874E+03  0.41800000000E+01 0.  1.
         -5    1    3    3    0  502 -0.64235610992E+01 -0.16172743125E+02 -0.42641403683E+02  0.46244799334E+02  0.41800000000E+01 0.  1.
        -11    1    1    2    0    0  0.10718289949E+02 -0.88596418503E+02  0.80908544527E+02  0.12045912040E+03  0.00000000000E+00 0.  1.
         11    1    1    2    0    0 -0.35958922278E+02 -0.16668504427E+02  0.11960923700E+03  0.12600497096E+03  0.00000000000E+00 0. -1.
</event>
<event>
 7    1  0.2651429E-009  0.9745941E+02  0.7561462E-02  0.1285731E+00
          1   -1    0    0  501    0  0.00000000000E+00  0.00000000000E+00  0.31627387706E+03  0.31627387706E+03  0.00000000000E+00 0. -1.
         -1   -1    0    0    0  501 -0.00000000000E+00 -0.00000000000E+00 -0.43722409494E+02  0.43722409494E+02  0.00000000000E+00 0.  1.
         25    2    1    2    0    0 -0.25404604470E+02  0.38504848226E+02  0.15197230273E+03  0.20216265779E+03  0.12508453998E+03 0.  0.
          5    1    3    3  502    0 -0.41880089740E+02 -0.36244035412E+02  0.51146377198E+02  0.75504942355E+02  0.41800000000E+01 0. -1.
         -5    1    3    3    0  502  0.16475485270E+02  0.74748883639E+02  0.10082592553E+03  0.12665771543E+03  0.41800000000E+01 0. -1.
        -11    1    1    2    0    0  0.31181847855E+00 -0.37608463195E+02  0.12655355684E+03  0.13202384816E+03  0.00000000000E+00 0. -1.
         11    1    1    2    0    0  0.25092785991E+02 -0.89638503095E+00 -0.59743920014E+01  0.25809780602E+02  0.00000000000E+00 0.  1.
</event>
<event>
 6    1  0.2651429E-009  0.1043973E+03  0.7561462E-02  0.1271312E+00
          1   -1    0    0  501    0  0.00000000000E+00  0.00000000000E+00  0.52707343758E+02  0.52707343758E+02  0.00000000000E+00 0. -1.
         -1   -1    0    0    0  501 -0.00000000000E+00 -0.00000000000E+00 -0.43082450141E+03  0.43082450141E+03  0.00000000000E+00 0.  1.
          5    1    1    2  502    0 -0.22529732696E+02  0.82158138191E+02 -0.92953515286E+02  0.12615616089E+03  0.41800000000E+01 0.  1.
         -5    1    1    2    0  502 -0.20204170270E+02 -0.12076324094E+02 -0.21483205896E+03  0.21615811819E+03  0.41800000000E+01 0.  1.
        -11    1    1    2    0    0 -0.13782232471E+02 -0.18566560967E+02 -0.59686158233E+02  0.64008629126E+02  0.00000000000E+00 0.  1.
         11    1    1    2    0    0  0.56516135436E+02 -0.51515253130E+02 -0.10645425167E+02  0.77208936961E+02  0.00000000000E+00 0. -1.
</event>
<event>
 7    1  0.2651429E-009  0.1425613E+03  0.7561462E-02  0.1209924E+00
         -1   -1    0    0    0  501 -0.00000000000E+00  0.00000000000E+00  0.43457632891E+03  0.43457632891E+03  0.00000000000E+00 0.  1.
          1   -1    0    0  501    0  0.00000000000E+00 -0.00000000000E+00 -0.66505022671E+02  0.66505022671E+02  0.00000000000E+00 0. -1.
         25    2    1    2    0    0 -0.11703885909E+03 -0.57737623000E+02  0.19375343415E+03  0.26499014025E+03  0.12509058134E+03 0.  0.
          5    1    3    3  502    0 -0.20811168860E+02 -0.26368995725E+02  0.15149562703E+03  0.15523152416E+03  0.41800000000E+01 0.  1.
         -5    1    3    3    0  502 -0.96227690230E+02 -0.31368627275E+02  0.42257807122E+02  0.10975861609E+03  0.41800000000E+01 0.  1.
        -11    1    1    2    0    0  0.32706971733E+02  0.56908413792E+02  0.11689367417E+03  0.13406134648E+03  0.00000000000E+00 0.  1.
         11    1    1    2    0    0  0.84331887357E+02  0.82920920876E+00  0.57424197920E+02  0.10202986484E+03  0.00000000000E+00 0. -1.
</event>
<event>
 7    1  0.2651429E-009  0.1139633E+03  0.7561462E-02  0.1253402E+00
          2   -1    0    0  501    0  0.00000000000E+00  0.00000000000E+00  0.17022539288E+04  0.17022539288E+04  0.00000000000E+00 0. -1.
         -2   -1    0    0    0  501 -0.00000000000E+00 -0.00000000000E+00 -0.98315670084E+01  0.98315670084E+01  0.00000000000E+00 0.  1.
         25    2    1    2    0    0  0.25924292212E+02  0.30682117887E+02  0.13178818300E+04  0.13244163629E+04  0.12511084360E+03 0.  0.
          5    1    3    3  502    0 -0.46002088859E+02  0.32568465332E+02  0.71786199068E+03  0.72008347237E+03  0.41800000000E+01 0. -1.
         -5    1    3    3    0  502  0.71926381071E+02 -0.18863474456E+01  0.60001983931E+03  0.60433289052E+03  0.41800000000E+01 0. -1.
        -11    1    1    2    0    0 -0.48401150487E+02 -0.50079073322E+02  0.24058954643E+03  0.25046739270E+03  0.00000000000E+00 0.  1.
         11    1    1    2    0    0  0.22476858275E+02  0.19396955435E+02  0.13395098538E+03  0.13720174023E+03  0.00000000000E+00 0. -1.
</event>
<event>
 7    1  0.2651429E-009  0.9319022E+02  0.7561462E-02  0.1295305E+00
         -1   -1    0    0    0  501 -0.00000000000E+00  0.00000000000E+00  0.76613555257E+02  0.76613555257E+02  0.00000000000E+00 0.  1.
          1   -1    0    0  501    0  0.00000000000E+00 -0.00000000000E+00 -0.16385968268E+03  0.16385968268E+03  0.00000000000E+00 0. -1.
         25    2    1    2    0    0  0.25901375717E+02 -0.51929405788E+01 -0.34395278517E+02  0.13240010176E+03  0.12509557892E+03 0.  0.
          5    1    3    3  502    0  0.60785404592E+01 -0.47808583445E+02  0.26661477931E+02  0.55235098538E+02  0.41800000000E+01 0. -1.
         -5    1    3    3    0  502  0.19822835257E+02  0.42615642866E+02 -0.61056756448E+02  0.77165003223E+02  0.41800000000E+01 0. -1.
        -11    1    1    2    0    0 -0.49511937525E+02 -0.22537312327E+02 -0.17064990907E+02  0.57013825684E+02  0.00000000000E+00 0.  1.
         11    1    1    2    0    0  0.23610561809E+02  0.27730252905E+02 -0.35785857998E+02  0.51059310491E+02  0.00000000000E+00 0. -1.
</event>
<event>
 7    1  0.2651429E-009  0.9144321E+02  0.7561462E-02  0.1299394E+00
          4   -1    0    0  501    0  0.00000000000E+00  0.00000000000E+00  0.29982071188E+03  0.29982071188E+03  0.00000000000E+00 0. -1.
         -4   -1    0    0    0  501 -0.00000000000E+00 -0.00000000000E+00 -0.39426398073E+02  0.39426398073E+02  0.00000000000E+00 0.  1.
         25    2    1    2    0    0 -0.50606246778E+00 -0.11548941088E+02  0.14653704053E+03  0.19301358697E+03  0.12508999308E+03 0.  0.
          5    1    3    3  502    0 -0.37317944094E+02 -0.55600177166E+02  0.66848204839E+02  0.94710947321E+02  0.41800000000E+01 0. -1.
         -5    1    3    3    0  502  0.36811881626E+02  0.44051236078E+02  0.79688835687E+02  0.98302639649E+02  0.41800000000E+01 0. -1.
        -11    1    1    2    0    0 -0.22348292155E+02  0.23511331362E+02  0.31842268017E+01  0.32593989707E+02  0.00000000000E+00 0.  1.
         11    1    1    2    0    0  0.22854354623E+02 -0.11962390275E+02  0.11067304648E+03  0.11363953328E+03  0.00000000000E+00 0. -1.
</event>
<event>
 7    1  0.2651429E-009  0.1123313E+03  0.7561462E-02  0.1256313E+00
          1   -1    0    0  501    0  0.00000000000E+00  0.00000000000E+00  0.68120002011E+03  0.68120002011E+03  0.00000000000E+00 0. -1.
         -1   -1    0    0    0  501 -0.00000000000E+00 -0.00000000000E+00 -0.24364052000E+02  0.24364052000E+02  0.00000000000E+00 0.  1.
         25    2    1    2    0    0 -0.66843866008E+02 -0.21105222090E+02  0.36677126602E+03  0.39380482179E+03  0.12509014056E+03 0.  0.
          5    1    3    3  502    0  0.47914886669E+01  0.31905670760E+02  0.26285536477E+02  0.41825016654E+02  0.41800000000E+01 0.  1.
         -5    1    3    3    0  502 -0.71635354675E+02 -0.53010892850E+02  0.34048572955E+03  0.35197980514E+03  0.41800000000E+01 0.  1.
        -11    1    1    2    0    0 -0.12972660970E+02  0.19080354874E+02  0.21355114994E+02  0.31438683356E+02  0.00000000000E+00 0.  1.
         11    1    1    2    0    0  0.79816526978E+02  0.20248672159E+01  0.26870958709E+03  0.28032056696E+03  0.00000000000E+00 0. -1.
</event>
<event>
 7    1  0.2651429E-009  0.1149873E+03  0.7561462E-02  0.1251603E+00
          1   -1    0    0  501    0  0.00000000000E+00  0.00000000000E+00  0.34214657355E+03  0.34214657355E+03  0.00000000000E+00 0.  1.
         -1   -1    0    0    0  501 -0.00000000000E+00 -0.00000000000E+00 -0.93985287728E+02  0.93985287728E+02  0.00000000000E+00 0. -1.
         25    2    1    2    0    0 -0.41373937970E+02  0.21305824258E+01 -0.34205390668E+02  0.13613753499E+03  0.12508827905E+03 0.  0.
          5    1    3    3  502    0 -0.74627940988E+02  0.34732416292E+02 -0.87043305200E+01  0.82878876002E+02  0.41800000000E+01 0.  1.
         -5    1    3    3    0  502  0.33254003018E+02 -0.32601833866E+02 -0.25501060148E+02  0.53258658985E+02  0.41800000000E+01 0.  1.
        -11    1    1    2    0    0 -0.24400147716E+02  0.19842870032E+02  0.10275151136E+03  0.10745687407E+03  0.00000000000E+00 0. -1.
         11    1    1    2    0    0  0.65774085686E+02 -0.21973452458E+02  0.17961516513E+03  0.19253745222E+03  0.00000000000E+00 0.  1.
</event>
<event>
 7    1  0.2651429E-009  0.7059105E+02  0.7561462E-02  0.1358095E+00
         -2   -1    0    0    0  501 -0.00000000000E+00  0.00000000000E+00  0.14955777065E+03  0.14955777065E+03  0.00000000000E+00 0.  1.
          2   -1    0    0  501    0  0.00000000000E+00 -0.00000000000E+00 -0.10022984779E+03  0.10022984779E+03  0.00000000000E+00 0. -1.
         25    2    1    2    0    0 -0.30070339710E+02  0.18465471936E+02  0.11094653633E+02  0.13044307198E+03  0.12508838757E+03 0.  0.
          5    1    3    3  502    0  0.28587722035E+02 -0.16548876845E+02  0.43448914445E+02  0.54739416716E+02  0.41800000000E+01 0.  1.
         -5    1    3    3    0  502 -0.58658061746E+02  0.35014348781E+02 -0.32354260812E+02  0.75703655268E+02  0.41800000000E+01 0.  1.
        -11    1    1    2    0    0  0.24244244741E+02 -0.49739176277E+01  0.75410624618E+02  0.79368038686E+02  0.00000000000E+00 0.  1.
         11    1    1    2    0    0  0.58260949692E+01 -0.13491554309E+02 -0.37177355389E+02  0.39976507776E+02  0.00000000000E+00 0. -1.
</event>
<event>
 7    1  0.2651429E-009  0.9176310E+02  0.7561462E-02  0.1298637E+00
         -1   -1    0    0    0  501 -0.00000000000E+00  0.00000000000E+00  0.24358073332E+03  0.24358073332E+03  0.00000000000E+00 0.  1.
          1   -1    0    0  501    0  0.00000000000E+00 -0.00000000000E+00 -0.52173175012E+02  0.52173175012E+02  0.00000000000E+00 0. -1.
         25    2    1    2    0    0  0.30810125456E+02  0.11637326749E+02  0.10389097418E+03  0.16590745321E+03  0.12508899755E+03 0.  0.
          5    1    3    3  502    0 -0.38144987525E+02  0.24568521369E+02  0.68310614114E+01  0.46073724785E+02  0.41800000000E+01 0. -1.
         -5    1    3    3    0  502  0.68955112981E+02 -0.12931194620E+02  0.97059912773E+02  0.11983372842E+03  0.41800000000E+01 0. -1.
        -11    1    1    2    0    0 -0.44147724919E+02 -0.23338727527E+02  0.97458855639E+02  0.10950774566E+03  0.00000000000E+00 0.  1.
         11    1    1    2    0    0  0.13337599463E+02  0.11701400779E+02 -0.99422715144E+01  0.20338709460E+02  0.00000000000E+00 0. -1.
</event>
<event>
 7    1  0.2651429E-009  0.2274393E+03  0.7561462E-02  0.1128455E+00
          3   -1    0    0  501    0  0.00000000000E+00  0.00000000000E+00  0.59330025941E+03  0.59330025941E+03  0.00000000000E+00 0. -1.
         -3   -1    0    0    0  501 -0.00000000000E+00 -0.00000000000E+00 -0.10473915855E+03  0.10473915855E+03  0.00000000000E+00 0.  1.
         25    2    1    2    0    0 -0.16655215008E+03 -0.13123363367E+03  0.35291936226E+03  0.43030364682E+03  0.12508903593E+03 0.  0.
          5    1    3    3  502    0 -0.17317381906E+03 -0.80190370227E+02  0.30527642936E+03  0.36004282774E+03  0.41800000000E+01 0. -1.
         -5    1    3    3    0  502  0.66216689817E+01 -0.51043263441E+02  0.47642932895E+02  0.70260819079E+02  0.41800000000E+01 0. -1.
        -11    1    1    2    0    0  0.81021330047E+02  0.71151206503E+02  0.12119149145E+03  0.16221691561E+03  0.00000000000E+00 0.  1.
         11    1    1    2    0    0  0.85530820033E+02  0.60082427165E+02  0.14450247154E+02  0.10551885553E+03  0.00000000000E+00 0. -1.
</event>
<event>
 7    1  0.2651429E-009  0.9604566E+02  0.7561462E-02  0.1288838E+00
         -1   -1    0    0    0  501 -0.00000000000E+00  0.00000000000E+00  0.10994843875E+03  0.10994843875E+03  0.00000000000E+00 0.  1.
          1   -1    0    0  501    0  0.00000000000E+00 -0.00000000000E+00 -0.14447597843E+03  0.14447597843E+03  0.00000000000E+00 0. -1.
         25    2    1    2    0    0 -0.23075911434E+02 -0.29711409977E+02 -0.68417954186E+02  0.14745811633E+03  0.12509042348E+03 0.  0.
          5    1    3    3  502    0 -0.10871431406E+01  0.39708943076E+02  0.91554990265E+01  0.40978989773E+02  0.41800000000E+01 0. -1.
         -5    1    3    3    0  502 -0.21988768293E+02 -0.69420353054E+02 -0.77573453213E+02  0.10647912656E+03  0.41800000000E+01 0. -1.
        -11    1    1    2    0    0  0.46345254047E+02  0.73275218974E+01 -0.14217597976E+02  0.49027698723E+02  0.00000000000E+00 0. -1.
         11    1    1    2    0    0 -0.23269342613E+02  0.22383888080E+02  0.48108012479E+02  0.57938602122E+02  0.00000000000E+00 0.  1.
</event>
<event>
 7    1  0.2651429E-009  0.1012805E+03  0.7561462E-02  0.1277626E+00
          1   -1    0    0  501    0  0.00000000000E+00  0.00000000000E+00  0.88944789546E+02  0.88944789546E+02  0.00000000000E+00 0. -1.
         -1   -1    0    0    0  501 -0.00000000000E+00 -0.00000000000E+00 -0.21506124118E+03  0.21506124118E+03  0.00000000000E+00 0.  1.
         25    2    1    2    0    0 -0.29197005105E+02 -0.75425324184E+02 -0.10200198539E+03  0.18053643272E+03  0.12509018299E+03 0.  0.
          5    1    3    3  502    0 -0.86702852358E+01 -0.68545670234E+02 -0.12856544029E+03  0.14601447734E+03  0.41800000000E+01 0. -1.
         -5    1    3    3    0  502 -0.20526719869E+02 -0.68796539499E+01  0.26563454905E+02  0.34521955384E+02  0.41800000000E+01 0. -1.
        -11    1    1    2    0    0  0.37953563621E+02  0.27065676609E+01  0.14440194487E+02  0.40697883444E+02  0.00000000000E+00 0. -1.
         11    1    1    2    0    0 -0.87565585159E+01  0.72718756523E+02 -0.38554660731E+02  0.82771714561E+02  0.00000000000E+00 0.  1.
</event>
<event>
 7    1  0.2651429E-009  0.5095407E+02  0.7561462E-02  0.1440262E+00
          1   -1    0    0  501    0  0.00000000000E+00  0.00000000000E+00  0.21728482944E+03  0.21728482944E+03  0.00000000000E+00 0. -1.
         -1   -1    0    0    0  501 -0.00000000000E+00 -0.00000000000E+00 -0.59231525712E+02  0.59231525712E+02  0.00000000000E+00 0.  1.
         25    2    1    2    0    0  0.19061336467E+02  0.24772172378E+02  0.10273849694E+03  0.16487319083E+03  0.12510385778E+03 0.  0.
          5    1    3    3  502    0  0.68857316549E+00  0.22581881730E+02  0.12980425118E+03  0.13182196911E+03  0.41800000000E+01 0. -1.
         -5    1    3    3    0  502  0.18372763302E+02  0.21902906472E+01 -0.27065754245E+02  0.33051221722E+02  0.41800000000E+01 0. -1.
        -11    1    1    2    0    0  0.10119519913E+02  0.10232134030E+02 -0.19382971094E+02  0.24141267956E+02  0.00000000000E+00 0.  1.
         11    1    1    2    0    0 -0.29180856381E+02 -0.35004306407E+02  0.74697777886E+02  0.87501896364E+02  0.00000000000E+00 0. -1.
</event>
<event>
 7    1  0.2651429E-009  0.9363292E+02  0.7561462E-02  0.1294285E+00
         -2   -1    0    0    0  501 -0.00000000000E+00  0.00000000000E+00  0.43387328395E+03  0.43387328395E+03  0.00000000000E+00 0. -1.
          2   -1    0    0  501    0  0.00000000000E+00 -0.00000000000E+00 -0.32658402207E+02  0.32658402207E+02  0.00000000000E+00 0.  1.
         25    2    1    2    0    0 -0.62957192726E+01  0.31017486248E+01  0.12955882535E+03  0.18022699333E+03  0.12508806087E+03 0.  0.
          5    1    3    3  502    0  0.37959454550E+02 -0.32238415898E+02  0.10885990552E+03  0.11978391828E+03  0.41800000000E+01 0. -1.
         -5    1    3    3    0  502 -0.44255173823E+02  0.35340164523E+02  0.20698919831E+02  0.60443075044E+02  0.41800000000E+01 0. -1.
        -11    1    1    2    0    0 -0.31563042278E+02 -0.21716972399E+02  0.65550829390E+02  0.75926041394E+02  0.00000000000E+00 0. -1.
         11    1    1    2    0    0  0.37858761551E+02  0.18615223774E+02  0.20610522700E+03  0.21037865144E+03  0.00000000000E+00 0.  1.
</event>
<event>
 7    1  0.2651429E-009  0.1173979E+03  0.7561462E-02  0.1247453E+00
          1   -1    0    0  501    0  0.00000000000E+00  0.00000000000E+00  0.11373049268E+03  0.11373049268E+03  0.00000000000E+00 0. -1.
         -1   -1    0    0    0  501 -0.00000000000E+00 -0.00000000000E+00 -0.18988558321E+03  0.18988558321E+03  0.00000000000E+00 0.  1.
         25    2    1    2    0    0 -0.83494288154E+02  0.24327970856E+01 -0.28754050132E+00  0.15041652101E+03  0.12509129649E+03 0.  0.
          5    1    3    3  502    0 -0.43186404350E+02  0.44745027145E+02  0.44574032753E+02  0.76625712204E+02  0.41800000000E+01 0. -1.
         -5    1    3    3    0  502 -0.40307883805E+02 -0.42312230059E+02 -0.44861573255E+02  0.73790808806E+02  0.41800000000E+01 0. -1.
        -11    1    1    2    0    0  0.92292498290E+02 -0.19817979678E+02 -0.88972327870E+02  0.12971789655E+03  0.00000000000E+00 0.  1.
         11    1    1    2    0    0 -0.87982101351E+01  0.17385182592E+02  0.13104777850E+02  0.23481658328E+02  0.00000000000E+00 0. -1.
</event>
<event>
 6    1  0.2651429E-009  0.8225250E+02  0.7561462E-02  0.1322778E+00
         -2   -1    0    0    0  501 -0.00000000000E+00  0.00000000000E+00  0.39974156038E+02  0.39974156038E+02  0.00000000000E+00 0.  1.
          2   -1    0    0  501    0  0.00000000000E+00 -0.00000000000E+00 -0.44910025697E+03  0.44910025697E+03  0.00000000000E+00 0. -1.
          5    1    1    2  502    0  0.42092792351E+02  0.29489282083E+02 -0.23486308924E+03  0.24045698994E+03  0.41800000000E+01 0.  1.
         -5    1    1    2    0  502 -0.63314377428E+02 -0.18458625519E+02 -0.12752646486E+03  0.14363113480E+03  0.41800000000E+01 0.  1.
        -11    1    1    2    0    0  0.54022913400E+01 -0.25107644501E+02 -0.69381942447E+02  0.73982650005E+02  0.00000000000E+00 0. -1.
         11    1    1    2    0    0  0.15819293737E+02  0.14076987937E+02  0.22645395603E+02  0.31003638266E+02  0.00000000000E+00 0.  1.
</event>
<event>
 7    1  0.2651429E-009  0.1228215E+03  0.7561462E-02  0.1238514E+00
          1   -1    0    0  501    0  0.00000000000E+00  0.00000000000E+00  0.41974869095E+02  0.41974869095E+02  0.00000000000E+00 0. -1.
         -1   -1    0    0    0  501 -0.00000000000E+00 -0.00000000000E+00 -0.48992190407E+03  0.48992190407E+03  0.00000000000E+00 0.  1.
         25    2    1    2    0    0 -0.84042979222E+02 -0.36366642666E+02 -0.20302390844E+03  0.25544499626E+03  0.12509070174E+03 0.  0.
          5    1    3    3  502    0 -0.76358992938E+02  0.31278284538E+02 -0.14008334744E+03  0.16263407858E+03  0.41800000000E+01 0.  1.
         -5    1    3    3    0  502 -0.76839862837E+01 -0.67644927204E+02 -0.62940561005E+02  0.92810917683E+02  0.41800000000E+01 0.  1.
        -11    1    1    2    0    0  0.52801199567E+02  0.95884490049E+01 -0.22390635744E+03  0.23024761005E+03  0.00000000000E+00 0.  1.
         11    1    1    2    0    0  0.31241779655E+02  0.26778193661E+02 -0.21016769092E+02  0.46204166856E+02  0.00000000000E+00 0. -1.
</event>
<event>
 7    1  0.2651429E-009  0.9715502E+02  0.7561462E-02  0.1286395E+00
         -2   -1    0    0    0  501 -0.00000000000E+00  0.00000000000E+00  0.49537278118E+02  0.49537278118E+02  0.00000000000E+00 0.  1.
          2   -1    0    0  501    0  0.00000000000E+00 -0.00000000000E+00 -0.21063784245E+03  0.21063784245E+03  0.00000000000E+00 0. -1.
         25    2    1    2    0    0  0.16770607743E+02  0.14837969254E+01 -0.89241320632E+02  0.15458158080E+03  0.12509195369E+03 0.  0.
          5    1    3    3  502    0 -0.24493410909E+02  0.48691179894E+02 -0.13766102992E+02  0.56371412693E+02  0.41800000000E+01 0. -1.
         -5    1    3    3    0  502  0.41264018652E+02 -0.47207382968E+02 -0.75475217641E+02  0.98210168109E+02  0.41800000000E+01 0. -1.
        -11    1    1    2    0    0 -0.37312764117E+02 -0.25507055089E+02 -0.35927677202E+02  0.57737771125E+02  0.00000000000E+00 0. -1.
         11    1    1    2    0    0  0.20542156374E+02  0.24023258164E+02 -0.35931566498E+02  0.47855768642E+02  0.00000000000E+00 0.  1.
</event>
<event>
 7    1  0.2651429E-009  0.1348419E+03  0.7561462E-02  0.1220443E+00
         -1   -1    0    0    0  501 -0.00000000000E+00  0.00000000000E+00  0.12389561088E+04  0.12389561088E+04  0.00000000000E+00 0.  1.
          1   -1    0    0  501    0  0.00000000000E+00 -0.00000000000E+00 -0.18479663134E+02  0.18479663134E+02  0.00000000000E+00 0. -1.
         25    2    1    2    0    0  0.85816875943E+02 -0.35294317289E+02  0.86925828067E+03  0.88310086894E+03  0.12508781387E+03 0.  0.
          5    1    3    3  502    0  0.94950939718E+02 -0.60816549281E+02  0.80977572784E+03  0.81759925111E+03  0.41800000000E+01 0.  1.
         -5    1    3    3    0  502 -0.91340637750E+01  0.25522231991E+02  0.59482552827E+02  0.65501617825E+02  0.41800000000E+01 0.  1.
        -11    1    1    2    0    0 -0.15372899538E+02 -0.29783632372E+02  0.97110714016E+02  0.10273208639E+03  0.00000000000E+00 0.  1.
         11    1    1    2    0    0 -0.70443976405E+02  0.65077949661E+02  0.25410745099E+03  0.27160281661E+03  0.00000000000E+00 0. -1.
</event>
<event>
 7    1  0.4733488E-009  0.1265682E+03  0.7561462E-02  0.1232639E+00
         -1   -1    0    0    0  501 -0.00000000000E+00  0.00000000000E+00  0.46208690997E+02  0.46208690997E+02  0.00000000000E+00 0.  1.
          1   -1    0    0  501    0  0.00000000000E+00 -0.00000000000E+00 -0.48004314933E+03  0.48004314933E+03  0.00000000000E+00 0. -1.
         25    2    1    2    0    0 -0.10367026948E+01  0.91917882684E+02 -0.15839434949E+03  0.22177954092E+03  0.12508965949E+03 0.  0.
          5    1    3    3  502    0  0.18937259733E+02 -0.27523799828E+02 -0.41166186531E+02  0.53181826564E+02  0.41800000000E+01 0.  1.
         -5    1    3    3    0  502 -0.19973962428E+02  0.11944168251E+03 -0.11722816296E+03  0.16859771436E+03  0.41800000000E+01 0.  1.
        -11    1    1    2    0    0 -0.16658928097E+02 -0.36553196300E+02 -0.24862755916E+02  0.47242064697E+02  0.00000000000E+00 0.  1.
         11    1    1    2    0    0  0.17695630792E+02 -0.55364686384E+02 -0.25057735293E+03  0.25723023471E+03  0.00000000000E+00 0. -1.
</event>
<event>
 7    1  0.2651429E-009  0.1259942E+03  0.7561462E-02  0.1233524E+00
          2   -1    0    0  501    0  0.00000000000E+00  0.00000000000E+00  0.49102411072E+03  0.49102411072E+03  0.00000000000E+00 0. -1.
         -2   -1    0    0    0  501 -0.00000000000E+00 -0.00000000000E+00 -0.56077890286E+02  0.56077890286E+02  0.00000000000E+00 0.  1.
         25    2    1    2    0    0 -0.64020895132E+02  0.86986474051E+02  0.33396737986E+03  0.37261319148E+03  0.12506421539E+03 0.  0.
          5    1    3    3  502    0 -0.64152378170E+02  0.80367223292E+02  0.34446864496E+03  0.35951430843E+03  0.41800000000E+01 0.  1.
         -5    1    3    3    0  502  0.13148303746E+00  0.66192507583E+01 -0.10501265101E+02  0.13098883049E+02  0.41800000000E+01 0.  1.
        -11    1    1    2    0    0  0.22792262510E+02 -0.96311620433E+02  0.60712319753E+02  0.11610943644E+03  0.00000000000E+00 0.  1.
         11    1    1    2    0    0  0.41228632622E+02  0.93251463826E+01  0.40266520821E+02  0.58379373086E+02  0.00000000000E+00 0. -1.
</event>
<event>
 7    1  0.2651429E-009  0.9665221E+02  0.7561462E-02  0.1287498E+00
         -1   -1    0    0    0  501 -0.00000000000E+00  0.00000000000E+00  0.13263020513E+03  0.13263020513E+03  0.00000000000E+00 0.  1.
          1   -1    0    0  501    0  0.00000000000E+00 -0.00000000000E+00 -0.26000408335E+03  0.26000408335E+03  0.00000000000E+00 0. -1.
         25    2    1    2    0    0  0.62391884342E+01 -0.53024768271E+02  0.81245199687E+02  0.15842615901E+03  0.12509001504E+03 0.  0.
          5    1    3    3  502    0 -0.25280244710E+02 -0.78389462359E+02  0.83925579775E+02  0.11766466726E+03  0.41800000000E+01 0. -1.
         -5    1    3    3    0  502  0.31519433144E+02  0.25364694089E+02 -0.26803800886E+01  0.40761491746E+02  0.41800000000E+01 0. -1.
        -11    1    1    2    0    0  0.18708259821E+02  0.33922155058E+02 -0.21174552897E+02  0.44148310044E+02  0.00000000000E+00 0.  1.
         11    1    1    2    0    0 -0.24947448255E+02  0.19102613212E+02 -0.18744452501E+03  0.19005981943E+03  0.00000000000E+00 0. -1.
</event>
<event>
 7    1  0.2651429E-009  0.1365957E+03  0.7561462E-02  0.1217984E+00
         -1   -1    0    0    0  501 -0.00000000000E+00  0.00000000000E+00  0.65196021968E+02  0.65196021968E+02  0.00000000000E+00 0.  1.
          1   -1    0    0  501    0  0.00000000000E+00 -0.00000000000E+00 -0.32193921970E+03  0.32193921970E+03  0.00000000000E+00 0. -1.
         25    2    1    2    0    0  0.36111486923E+02 -0.82016165761E+02 -0.97387994185E+02  0.18210588522E+03  0.12508973214E+03 0.  0.
          5    1    3    3  502    0 -0.39824657793E+02 -0.31063884608E+01 -0.86327734021E+01  0.41081019878E+02  0.41800000000E+01 0. -1.
         -5    1    3    3    0  502  0.75936144716E+02 -0.78909777300E+02 -0.88755220782E+02  0.14102486534E+03  0.41800000000E+01 0. -1.
        -11    1    1    2    0    0 -0.62426847467E+02  0.71957908031E+02 -0.14478102721E+03  0.17331069688E+03  0.00000000000E+00 0. -1.
         11    1    1    2    0    0  0.26315360545E+02  0.10058257730E+02 -0.14574176343E+02  0.31718659575E+02  0.00000000000E+00 0.  1.
</event>
<event>
 7    1  0.2651429E-009  0.9631925E+02  0.7561462E-02  0.1288232E+00
         -2   -1    0    0    0  501 -0.00000000000E+00  0.00000000000E+00  0.37892444604E+02  0.37892444604E+02  0.00000000000E+00 0.  1.
          2   -1    0    0  501    0  0.00000000000E+00 -0.00000000000E+00 -0.10057630841E+04  0.10057630841E+04  0.00000000000E+00 0. -1.
         25    2    1    2    0    0  0.62832856188E+01 -0.33196321910E+02 -0.81850207104E+03  0.82869426985E+03  0.12508827728E+03 0.  0.
          5    1    3    3  502    0  0.54480121459E+02  0.88021963824E+01 -0.54435152036E+03  0.54715775825E+03  0.41800000000E+01 0.  1.
         -5    1    3    3    0  502 -0.48196835841E+02 -0.41998518293E+02 -0.27415055068E+03  0.28153651160E+03  0.41800000000E+01 0.  1.
        -11    1    1    2    0    0  0.29199598381E+02  0.10125359014E+02 -0.16646889591E+03  0.16931341573E+03  0.00000000000E+00 0. -1.
         11    1    1    2    0    0 -0.35482884000E+02  0.23070962897E+02  0.17100327431E+02  0.45647843150E+02  0.00000000000E+00 0.  1.
</event>
<event>
 7    1  0.2651429E-009  0.9285180E+02  0.7561462E-02  0.1296089E+00
         -3   -1    0    0    0  501 -0.00000000000E+00  0.00000000000E+00  0.27842822091E+03  0.27842822091E+03  0.00000000000E+00 0.  1.
          3   -1    0    0  501    0  0.00000000000E+00 -0.00000000000E+00 -0.44135563514E+02  0.44135563514E+02  0.00000000000E+00 0. -1.
         25    2    1    2    0    0 -0.10213906811E+02 -0.10425899868E+02  0.15737512982E+03  0.20156823977E+03  0.12509916273E+03 0.  0.
          5    1    3    3  502    0 -0.66027394082E+01 -0.66068459640E+02  0.61614685483E+02  0.90677888121E+02  0.41800000000E+01 0.  1.
         -5    1    3    3    0  502 -0.36111674025E+01  0.55642559772E+02  0.95760444342E+02  0.11089035165E+03  0.41800000000E+01 0.  1.
        -11    1    1    2    0    0 -0.25828987812E+02  0.34076203843E+00  0.79390025668E+02  0.83486698975E+02  0.00000000000E+00 0.  1.
         11    1    1    2    0    0  0.36042894623E+02  0.10085137829E+02 -0.24724980918E+01  0.37508845685E+02  0.00000000000E+00 0. -1.
</event>
<event>
 7    1  0.2651429E-009  0.1041769E+03  0.7561462E-02  0.1271750E+00
          1   -1    0    0  501    0  0.00000000000E+00  0.00000000000E+00  0.10633151539E+04  0.10633151539E+04  0.00000000000E+00 0. -1.
         -1   -1    0    0    0  501 -0.00000000000E+00 -0.00000000000E+00 -0.16247131108E+02  0.16247131108E+02  0.00000000000E+00 0.  1.
         25    2    1    2    0    0  0.48100977098E+02 -0.44993589336E+01  0.81319897208E+03  0.82418077822E+03  0.12508972290E+03 0.  0.
          5    1    3    3  502    0  0.28176724679E+02  0.56006745680E+02  0.53890773685E+03  0.54255848036E+03  0.41800000000E+01 0. -1.
         -5    1    3    3    0  502  0.19924252419E+02 -0.60506104614E+02  0.27429123523E+03  0.28162229786E+03  0.41800000000E+01 0. -1.
        -11    1    1    2    0    0 -0.18242653054E+02 -0.30583824002E+02  0.30584801047E+02  0.46942461973E+02  0.00000000000E+00 0.  1.
         11    1    1    2    0    0 -0.29858324044E+02  0.35083182935E+02  0.20328424969E+03  0.20843904483E+03  0.00000000000E+00 0. -1.
</event>
<event>
 7    1  0.2651429E-009  0.2101562E+03  0.7561462E-02  0.1141442E+00
          1   -1    0    0  501    0  0.00000000000E+00  0.00000000000E+00  0.50545247446E+03  0.50545247446E+03  0.00000000000E+00 0. -1.
         -1   -1    0    0    0  501 -0.00000000000E+00 -0.00000000000E+00 -0.10688957896E+03  0.10688957896E+03  0.00000000000E+00 0.  1.
         25    2    1    2    0    0  0.18263238754E+03 -0.88643749598E+02  0.17422770201E+03  0.29532206704E+03  0.12509007879E+03 0.  0.
          5    1    3    3  502    0  0.18351588640E+03 -0.82539559726E+02  0.10749419863E+03  0.22817391310E+03  0.41800000000E+01 0.  1.
         -5    1    3    3    0  502 -0.88349886138E+00 -0.61041898717E+01  0.66733503374E+02  0.67148153934E+02  0.41800000000E+01 0.  1.
        -11    1    1    2    0    0 -0.13754872119E+03  0.93397557164E+02  0.12558473033E+03  0.20836093414E+03  0.00000000000E+00 0.  1.
         11    1    1    2    0    0 -0.45083666349E+02 -0.47538075664E+01  0.98750463159E+02  0.10865905223E+03  0.00000000000E+00 0. -1.
</event>
<event>
 7    1  0.2651429E-009  0.1232949E+03  0.7561462E-02  0.1237758E+00
         -2   -1    0    0    0  501 -0.00000000000E+00  0.00000000000E+00  0.28063521235E+02  0.28063521235E+02  0.00000000000E+00 0.  1.
          2   -1    0    0  501    0  0.00000000000E+00 -0.00000000000E+00 -0.68118087266E+03  0.68118087266E+03  0.00000000000E+00 0. -1.
         25    2    1    2    0    0 -0.66106792755E+02  0.10476449363E+02 -0.50378734824E+03  0.52338122680E+03  0.12508537998E+03 0.  0.
          5    1    3    3  502    0  0.25321526300E+02 -0.31939838675E+02 -0.14940398592E+03  0.15492048411E+03  0.41800000000E+01 0. -1.
         -5    1    3    3    0  502 -0.91428319055E+02  0.42416288038E+02 -0.35438336232E+03  0.36846074269E+03  0.41800000000E+01 0. -1.
        -11    1    1    2    0    0  0.60565915785E+02 -0.41375528997E+02 -0.73714498047E+02  0.10399034463E+03  0.00000000000E+00 0.  1.
         11    1    1    2    0    0  0.55408769703E+01  0.30899079634E+02 -0.75615505141E+02  0.81872822460E+02  0.00000000000E+00 0. -1.
</event>
<event>
 7    1  0.2651429E-009  0.1242097E+03  0.7561462E-02  0.1236310E+00
         -1   -1    0    0    0  501 -0.00000000000E+00  0.00000000000E+00  0.40930166365E+03  0.40930166365E+03  0.00000000000E+00 0.  1.
          1   -1    0    0  501    0  0.00000000000E+00 -0.00000000000E+00 -0.44536214092E+02  0.44536214092E+02  0.00000000000E+00 0. -1.
         25    2    1    2    0    0 -0.68260433528E+02  0.40009822441E+02  0.21278951983E+03  0.25920538048E+03  0.12509107420E+03 0.  0.
          5    1    3    3  502    0 -0.81771002069E+02 -0.71810367292E+01  0.69346107222E+02  0.10753798889E+03  0.41800000000E+01 0. -1.
         -5    1    3    3    0  502  0.13510568541E+02  0.47190859170E+02  0.14344341261E+03  0.15166739159E+03  0.41800000000E+01 0. -1.
        -11    1    1    2    0    0  0.13644250853E+02  0.27157803009E+02  0.18625259057E+02  0.35645646586E+02  0.00000000000E+00 0. -1.
         11    1    1    2    0    0  0.54616182675E+02 -0.67167625450E+02  0.13335067067E+03  0.15898685067E+03  0.00000000000E+00 0.  1.
</event>
<event>
 7    1  0.2651429E-009  0.1632910E+03  0.7561462E-02  0.1185031E+00
         -2   -1    0    0    0  501 -0.00000000000E+00  0.00000000000E+00  0.15107850868E+03  0.15107850868E+03  0.00000000000E+00 0.  1.
          2   -1    0    0  501    0  0.00000000000E+00 -0.00000000000E+00 -0.23507290429E+03  0.23507290429E+03  0.00000000000E+00 0. -1.
         25    2    1    2    0    0 -0.14208580262E+03  0.40744301148E+02 -0.88580559529E+02  0.21290210997E+03  0.12502927466E+03 0.  0.
          5    1    3    3  502    0 -0.11221694368E+03  0.71102828493E+02 -0.10256177290E+03  0.16788282917E+03  0.41800000000E+01 0. -1.
         -5    1    3    3    0  502 -0.29868858936E+02 -0.30358527345E+02  0.13981213369E+02  0.45019280803E+02  0.41800000000E+01 0. -1.
        -11    1    1    2    0    0  0.58903420621E+02 -0.15533837362E+01  0.43663018606E+02  0.73338156206E+02  0.00000000000E+00 0.  1.
         11    1    1    2    0    0  0.83182381995E+02 -0.39190917411E+02 -0.39076854683E+02  0.99911146794E+02  0.00000000000E+00 0. -1.
</event>
<event>
 6    1  0.2651429E-009  0.1493689E+03  0.7561462E-02  0.1201251E+00
         -2   -1    0    0    0  501 -0.00000000000E+00  0.00000000000E+00  0.14358024879E+03  0.14358024879E+03  0.00000000000E+00 0.  1.
          2   -1    0    0  501    0  0.00000000000E+00 -0.00000000000E+00 -0.30976374665E+03  0.30976374665E+03  0.00000000000E+00 0. -1.
          5    1    1    2  502    0 -0.59727701332E+02  0.85472993308E+01  0.57166918079E+02  0.83222494285E+02  0.41800000000E+01 0. -1.
         -5    1    1    2    0  502 -0.18041438126E+02  0.10070123235E+03 -0.19013719642E+02  0.10414041301E+03  0.41800000000E+01 0. -1.
        -11    1    1    2    0    0  0.49164603420E+02 -0.50255041727E+02 -0.18456544803E+03  0.19750223304E+03  0.00000000000E+00 0. -1.
         11    1    1    2    0    0  0.28604536039E+02 -0.58993489959E+02 -0.19771248265E+02  0.68478855112E+02  0.00000000000E+00 0.  1.
</event>
<event>
 7    1  0.2651429E-009  0.9190231E+02  0.7561462E-02  0.1298309E+00
         -2   -1    0    0    0  501 -0.00000000000E+00  0.00000000000E+00  0.74574334141E+02  0.74574334141E+02  0.00000000000E+00 0.  1.
          2   -1    0    0  501    0  0.00000000000E+00 -0.00000000000E+00 -0.25412493770E+03  0.25412493770E+03  0.00000000000E+00 0. -1.
         25    2    1    2    0    0 -0.16290851830E+02 -0.23933381856E+02 -0.30521126815E+01  0.12843321460E+03  0.12509027381E+03 0.  0.
          5    1    3    3  502    0 -0.57361897693E+02 -0.15700308679E+02 -0.40514255223E+02  0.72081650063E+02  0.41800000000E+01 0.  1.
         -5    1    3    3    0  502  0.41071045863E+02 -0.82330731766E+01  0.37462142541E+02  0.56351564539E+02  0.41800000000E+01 0.  1.
        -11    1    1    2    0    0 -0.29358049884E+02  0.21476705932E+02 -0.13026225523E+03  0.13524569911E+03  0.00000000000E+00 0. -1.
         11    1    1    2    0    0  0.45648901714E+02  0.24566759235E+01 -0.46236235654E+02  0.65020358133E+02  0.00000000000E+00 0.  1.
</event>
<event>
 7    1  0.3204027E-009  0.2119942E+03  0.7561462E-02  0.1139996E+00
          1   -1    0    0  501    0  0.00000000000E+00  0.00000000000E+00  0.28845699540E+03  0.28845699540E+03  0.00000000000E+00 0. -1.
         -1   -1    0    0    0  501 -0.00000000000E+00 -0.00000000000E+00 -0.16828365274E+03  0.16828365274E+03  0.00000000000E+00 0.  1.
         25    2    1    2    0    0 -0.15295350853E+03  0.11468512427E+03  0.69571960706E+02  0.23882083258E+03  0.12509068253E+03 0.  0.
          5    1    3    3  502    0 -0.16967246789E+03  0.79192800685E+02  0.45985720589E+02  0.19285332494E+03  0.41800000000E+01 0.  1.
         -5    1    3    3    0  502  0.16718959362E+02  0.35492323588E+02  0.23586240117E+02  0.45967507641E+02  0.41800000000E+01 0.  1.
        -11    1    1    2    0    0  0.15289638886E+03 -0.10030288629E+03  0.19804183213E+02  0.18392982465E+03  0.00000000000E+00 0.  1.
         11    1    1    2    0    0  0.57119670122E-01 -0.14382237987E+02  0.30797198734E+02  0.33989990910E+02  0.00000000000E+00 0. -1.
</event>
<event>
 7    1  0.2651429E-009  0.1823442E+03  0.7561462E-02  0.1165553E+00
          1   -1    0    0  501    0  0.00000000000E+00  0.00000000000E+00  0.20542591539E+03  0.20542591539E+03  0.00000000000E+00 0. -1.
         -1   -1    0    0    0  501 -0.00000000000E+00 -0.00000000000E+00 -0.22717797951E+03  0.22717797951E+03  0.00000000000E+00 0.  1.
         25    2    1    2    0    0  0.14322869327E+03  0.55575301819E+02  0.94587031115E+02  0.21953789262E+03  0.12508839711E+03 0.  0.
          5    1    3    3  502    0  0.71107156460E+01 -0.26118554090E+02 -0.10253149057E+02  0.29246206768E+02  0.41800000000E+01 0.  1.
         -5    1    3    3    0  502  0.13611797762E+03  0.81693855909E+02  0.10484018017E+03  0.19029168585E+03  0.41800000000E+01 0.  1.
        -11    1    1    2    0    0 -0.12750148350E+03 -0.72896247566E+01 -0.82318923643E+02  0.15194134432E+03  0.00000000000E+00 0.  1.
         11    1    1    2    0    0 -0.15727209771E+02 -0.48285677063E+02 -0.34020171592E+02  0.61124657968E+02  0.00000000000E+00 0. -1.
</event>
<event>
 7    1  0.2651429E-009  0.8679116E+02  0.7561462E-02  0.1310814E+00
          1   -1    0    0  501    0  0.00000000000E+00  0.00000000000E+00  0.50420752162E+03  0.50420752162E+03  0.00000000000E+00 0. -1.
         -1   -1    0    0    0  501 -0.00000000000E+00 -0.00000000000E+00 -0.25289237851E+02  0.25289237851E+02  0.00000000000E+00 0.  1.
         25    2    1    2    0    0 -0.19179606740E+02 -0.20708921708E+02  0.31606092628E+03  0.34108383536E+03  0.12508779664E+03 0.  0.
          5    1    3    3  502    0  0.49291698654E+02  0.37394063406E+01  0.18057722545E+03  0.18726788691E+03  0.41800000000E+01 0.  1.
         -5    1    3    3    0  502 -0.68471305394E+02 -0.24448328049E+02  0.13548370083E+03  0.15381594845E+03  0.41800000000E+01 0.  1.
        -11    1    1    2    0    0  0.32964764783E+02  0.15237454494E+02  0.16863121311E+03  0.17249736743E+03  0.00000000000E+00 0. -1.
         11    1    1    2    0    0 -0.13785158044E+02  0.54714672138E+01 -0.57738556197E+01  0.15915556681E+02  0.00000000000E+00 0.  1.
</event>
<event>
 7    1  0.2651429E-009  0.1349416E+03  0.7561462E-02  0.1220302E+00
          2   -1    0    0  501    0  0.00000000000E+00  0.00000000000E+00  0.87341630103E+03  0.87341630103E+03  0.00000000000E+00 0. -1.
         -2   -1    0    0    0  501 -0.00000000000E+00 -0.00000000000E+00 -0.43407919673E+02  0.43407919673E+02  0.00000000000E+00 0.  1.
         25    2    1    2    0    0  0.47577014548E+02  0.75274317644E+02  0.74764036317E+03  0.76324529540E+03  0.12508986009E+03 0.  0.
          5    1    3    3  502    0 -0.25452369870E+02 -0.14172516197E+02  0.27993935945E+03  0.28148214991E+03  0.41800000000E+01 0. -1.
         -5    1    3    3    0  502  0.73029384418E+02  0.89446833841E+02  0.46770100372E+03  0.48176314549E+03  0.41800000000E+01 0. -1.
        -11    1    1    2    0    0  0.17668760523E+02 -0.53148941501E+02  0.16810522466E+02  0.58477249822E+02  0.00000000000E+00 0.  1.
         11    1    1    2    0    0 -0.65245775071E+02 -0.22125376143E+02  0.65557495718E+02  0.95101675479E+02  0.00000000000E+00 0. -1.
</event>
<event>
 7    1  0.2651429E-009  0.1225730E+03  0.7561462E-02  0.1238912E+00
         -2   -1    0    0    0  501 -0.00000000000E+00  0.00000000000E+00  0.70943311792E+02  0.70943311792E+02  0.00000000000E+00 0.  1.
          2   -1    0    0  501    0  0.00000000000E+00 -0.00000000000E+00 -0.47858126862E+03  0.47858126862E+03  0.00000000000E+00 0. -1.
         25    2    1    2    0    0 -0.96403719628E+01  0.11887630305E+03 -0.82547438292E+02  0.19153740289E+03  0.12509190597E+03 0.  0.
          5    1    3    3  502    0  0.11107087086E+02  0.55052809763E+02 -0.10624035775E+03  0.12024419014E+03  0.41800000000E+01 0.  1.
         -5    1    3    3    0  502 -0.20747459049E+02  0.63823493290E+02  0.23692919460E+02  0.71293212757E+02  0.41800000000E+01 0.  1.
        -11    1    1    2    0    0  0.17006232020E+02 -0.64077978979E+02 -0.67813812142E+02  0.94836240092E+02  0.00000000000E+00 0.  1.
         11    1    1    2    0    0 -0.73658600576E+01 -0.54798324074E+02 -0.25727670639E+03  0.26315093743E+03  0.00000000000E+00 0. -1.
</event>
<event>
 7    1  0.2651429E-009  0.7113695E+02  0.7561462E-02  0.1356269E+00
         -3   -1    0    0    0  501 -0.00000000000E+00  0.00000000000E+00  0.97661172003E+02  0.97661172003E+02  0.00000000000E+00 0.  1.
          3   -1    0    0  501    0  0.00000000000E+00 -0.00000000000E+00 -0.13054359177E+03  0.13054359177E+03  0.00000000000E+00 0. -1.
         25    2    1    2    0    0 -0.24918071795E+02 -0.38903933037E+01 -0.42676747875E+02  0.13455470320E+03  0.12509043881E+03 0.  0.
          5    1    3    3  502    0  0.21314817144E+02 -0.26616137373E+02  0.29839579224E+02  0.45503989790E+02  0.41800000000E+01 0. -1.
         -5    1    3    3    0  502 -0.46232888940E+02  0.22725744069E+02 -0.72516327099E+02  0.89050713411E+02  0.41800000000E+01 0. -1.
        -11    1    1    2    0    0  0.23722645325E+01 -0.21871427777E+02  0.41511910926E+02  0.46981121110E+02  0.00000000000E+00 0.  1.
         11    1    1    2    0    0  0.22545807263E+02  0.25761821081E+02 -0.31717582814E+02  0.46668939457E+02  0.00000000000E+00 0. -1.
</event>
<event>
 7    1  0.2651429E-009  0.1241690E+03  0.7561462E-02  0.1236374E+00
          2   -1    0    0  501    0  0.00000000000E+00  0.00000000000E+00  0.12157520743E+04  0.12157520743E+04  0.00000000000E+00 0. -1.
         -2   -1    0    0    0  501 -0.00000000000E+00 -0.00000000000E+00 -0.14814098511E+02  0.14814098511E+02  0.00000000000E+00 0.  1.
         25    2    1    2    0    0 -0.61140444599E+02 -0.27347501912E+02  0.85965054802E+03  0.87128309844E+03  0.12509649508E+03 0.  0.
          5    1    3    3  502    0  0.17024041746E+02 -0.54554778284E+02  0.28667352117E+03  0.29234435512E+03  0.41800000000E+01 0. -1.
         -5    1    3    3    0  502 -0.78164486345E+02  0.27207276372E+02  0.57297702685E+03  0.57893874332E+03  0.41800000000E+01 0. -1.
        -11    1    1    2    0    0 -0.49240295389E+01  0.40505904659E+02  0.84936966357E+02  0.94229839398E+02  0.00000000000E+00 0.  1.
         11    1    1    2    0    0  0.66064474138E+02 -0.13158402747E+02  0.25635046143E+03  0.26505323499E+03  0.00000000000E+00 0. -1.
</event>
<event>
 7    1  0.3004377E-009  0.8693545E+02  0.7561462E-02  0.1310447E+00
          1   -1    0    0  501    0  0.00000000000E+00  0.00000000000E+00  0.58867942577E+02  0.58867942577E+02  0.00000000000E+00 0. -1.
         -1   -1    0    0    0  501 -0.00000000000E+00 -0.00000000000E+00 -0.27354392064E+03  0.27354392064E+03  0.00000000000E+00 0.  1.
         25    2    1    2    0    0 -0.25682702503E+02 -0.55633128026E+02 -0.15105951114E+03  0.20547802210E+03  0.12509034942E+03 0.  0.
          5    1    3    3  502    0  0.28567849305E+02 -0.24012609795E+02  0.43560056803E+01  0.37804426045E+02  0.41800000000E+01 0. -1.
         -5    1    3    3    0  502 -0.54250551807E+02 -0.31620518231E+02 -0.15541551682E+03  0.16767359605E+03  0.41800000000E+01 0. -1.
        -11    1    1    2    0    0  0.29364383137E+01  0.49823148273E+02 -0.82757920040E+02  0.96642858522E+02  0.00000000000E+00 0.  1.
         11    1    1    2    0    0  0.22746264189E+02  0.58099797527E+01  0.19141453118E+02  0.30290982598E+02  0.00000000000E+00 0. -1.
</event>
<event>
 7    1  0.2651429E-009  0.1049094E+03  0.7561462E-02  0.1270298E+00
          1   -1    0    0  501    0  0.00000000000E+00  0.00000000000E+00  0.21283371283E+02  0.21283371283E+02  0.00000000000E+00 0. -1.
         -1   -1    0    0    0  501 -0.00000000000E+00 -0.00000000000E+00 -0.61785888126E+03  0.61785888126E+03  0.00000000000E+00 0.  1.
         25    2    1    2    0    0  0.21490387921E+02  0.44461478646E+01 -0.27360265149E+03  0.30164158819E+03  0.12509049451E+03 0.  0.
          5    1    3    3  502    0  0.10812765050E+02 -0.57410243137E+02 -0.88365720278E+02  0.10601332381E+03  0.41800000000E+01 0. -1.
         -5    1    3    3    0  502  0.10677622871E+02  0.61856391002E+02 -0.18523693121E+03  0.19562826438E+03  0.41800000000E+01 0. -1.
        -11    1    1    2    0    0  0.24554224913E+02  0.23903078914E+02 -0.20344975308E+03  0.20631546033E+03  0.00000000000E+00 0.  1.
         11    1    1    2    0    0 -0.46044612834E+02 -0.28349226778E+02 -0.11952310542E+03  0.13118520404E+03  0.00000000000E+00 0. -1.
</event>
<event>
 6    1  0.2651429E-009  0.5531526E+02  0.7561462E-02  0.1418614E+00
          1   -1    0    0  501    0  0.00000000000E+00  0.00000000000E+00  0.11881396021E+03  0.11881396021E+03  0.00000000000E+00 0. -1.
         -1   -1    0    0    0  501 -0.00000000000E+00 -0.00000000000E+00 -0.15974333240E+03  0.15974333240E+03  0.00000000000E+00 0.  1.
          5    1    1    2  502    0 -0.17711935033E+01  0.22867836026E+02  0.99418844672E+02  0.10211588577E+03  0.41800000000E+01 0. -1.
         -5    1    1    2    0  502 -0.10574903156E+02 -0.40576348622E+01 -0.37357271310E+02  0.39259789826E+02  0.41800000000E+01 0. -1.
        -11    1    1    2    0    0 -0.27078359237E+02 -0.23090915345E+02 -0.11390271952E+02  0.37365307514E+02  0.00000000000E+00 0. -1.
         11    1    1    2    0    0  0.39424455897E+02  0.42807141812E+01 -0.91600673602E+02  0.99816309494E+02  0.00000000000E+00 0.  1.
</event>
<event>
 7    1  0.2651429E-009  0.6163351E+02  0.7561462E-02  0.1391102E+00
         -2   -1    0    0    0  501 -0.00000000000E+00  0.00000000000E+00  0.37812600282E+02  0.37812600282E+02  0.00000000000E+00 0.  1.
          2   -1    0    0  501    0  0.00000000000E+00 -0.00000000000E+00 -0.35995996186E+03  0.35995996186E+03  0.00000000000E+00 0. -1.
         25    2    1    2    0    0  0.30758965469E+02  0.23796770496E+02 -0.14370641932E+03  0.19443525396E+03  0.12506451449E+03 0.  0.
          5    1    3    3  502    0  0.16247495944E+02  0.27694518597E+02  0.14488535807E+02  0.35473335826E+02  0.41800000000E+01 0. -1.
         -5    1    3    3    0  502  0.14511469524E+02 -0.38977481006E+01 -0.15819495513E+03  0.15896191813E+03  0.41800000000E+01 0. -1.
        -11    1    1    2    0    0  0.20304406272E+02 -0.82134157939E+01 -0.58398700674E+01  0.22667889083E+02  0.00000000000E+00 0.  1.
         11    1    1    2    0    0 -0.51063371741E+02 -0.15583354703E+02 -0.17260107219E+03  0.18066941910E+03  0.00000000000E+00 0. -1.
</event>
<event>
 7    1  0.2860437E-009  0.9583535E+02  0.7561462E-02  0.1289306E+00
         -1   -1    0    0    0  501 -0.00000000000E+00  0.00000000000E+00  0.16480548136E+02  0.16480548136E+02  0.00000000000E+00 0.  1.
          1   -1    0    0  501    0  0.00000000000E+00 -0.00000000000E+00 -0.12112871129E+04  0.12112871129E+04  0.00000000000E+00 0. -1.
         25    2    1    2    0    0  0.36649532957E+02  0.40851713191E+02 -0.96087165584E+03  0.97053237473E+03  0.12508677251E+03 0.  0.
          5    1    3    3  502    0  0.61599553376E+02  0.11048250937E+02 -0.86101188430E+03  0.86329340675E+03  0.41800000000E+01 0.  1.
         -5    1    3    3    0  502 -0.24950020419E+02  0.29803462254E+02 -0.99859771538E+02  0.10723896798E+03  0.41800000000E+01 0.  1.
        -11    1    1    2    0    0 -0.58325173031E+02 -0.30909053377E+02 -0.91539860677E+02  0.11285717293E+03  0.00000000000E+00 0.  1.
         11    1    1    2    0    0  0.21675640074E+02 -0.99426598138E+01 -0.14239504820E+03  0.14437811333E+03  0.00000000000E+00 0. -1.
</event>
<event>
 7    1  0.2651429E-009  0.1054724E+03  0.7561462E-02  0.1269192E+00
          2   -1    0    0  501    0  0.00000000000E+00  0.00000000000E+00  0.77081723925E+03  0.77081723925E+03  0.00000000000E+00 0. -1.
         -2   -1    0    0    0  501 -0.00000000000E+00 -0.00000000000E+00 -0.22371244058E+02  0.22371244058E+02  0.00000000000E+00 0.  1.
         25    2    1    2    0    0  0.45178434955E+02  0.20145308827E+02  0.24479848381E+03  0.27931949569E+03  0.12508460555E+03 0.  0.
          5    1    3    3  502    0  0.77136330480E+02  0.15371820237E+02  0.83593679133E+02  0.11485504747E+03  0.41800000000E+01 0.  1.
         -5    1    3    3    0  502 -0.31957895525E+02  0.47734885900E+01  0.16120480467E+03  0.16446444822E+03  0.41800000000E+01 0.  1.
        -11    1    1    2    0    0 -0.53525241720E+02  0.21087918131E+02  0.34369576452E+03  0.34847730248E+03  0.00000000000E+00 0.  1.
         11    1    1    2    0    0  0.83468067645E+01 -0.41233226959E+02  0.15995174687E+03  0.16539168514E+03  0.00000000000E+00 0. -1.
</event>
<event>
 7    1  0.2651429E-009  0.1070052E+03  0.7561462E-02  0.1266218E+00
          2   -1    0    0  501    0  0.00000000000E+00  0.00000000000E+00  0.20737626305E+03  0.20737626305E+03  0.00000000000E+00 0. -1.
         -2   -1    0    0    0  501 -0.00000000000E+00 -0.00000000000E+00 -0.12672430016E+03  0.12672430016E+03  0.00000000000E+00 0.  1.
         25    2    1    2    0    0 -0.75957620061E+02  0.39568872387E+02 -0.40892505258E+02  0.15702069418E+03  0.12509214886E+03 0.  0.
          5    1    3    3  502    0 -0.14230170974E+02  0.44328707413E+02 -0.73361142853E+02  0.86987710324E+02  0.41800000000E+01 0.  1.
         -5    1    3    3    0  502 -0.61727449087E+02 -0.47598350260E+01  0.32468637595E+02  0.70032983855E+02  0.41800000000E+01 0.  1.
        -11    1    1    2    0    0  0.11217100340E+02 -0.38885052957E+02  0.12747618428E+01  0.40490686599E+02  0.00000000000E+00 0. -1.
         11    1    1    2    0    0  0.64740519721E+02 -0.68381942936E+00  0.12026970631E+03  0.13658918244E+03  0.00000000000E+00 0.  1.
</event>
<event>
 7    1  0.3194149E-009  0.1042070E+03  0.7561462E-02  0.1271690E+00
         -1   -1    0    0    0  501 -0.00000000000E+00  0.00000000000E+00  0.27256568810E+02  0.27256568810E+02  0.00000000000E+00 0.  1.
          1   -1    0    0  501    0  0.00000000000E+00 -0.00000000000E+00 -0.65871114230E+03  0.65871114230E+03  0.00000000000E+00 0. -1.
         25    2    1    2    0    0 -0.39993813014E+02  0.24559189801E+02 -0.50816529408E+03  0.52543466021E+03  0.12508779783E+03 0.  0.
          5    1    3    3  502    0 -0.78394634805E+02 -0.12815206944E+02 -0.28552069291E+03  0.29639414093E+03  0.41800000000E+01 0.  1.
         -5    1    3    3    0  502  0.38400821791E+02  0.37374396745E+02 -0.22264460117E+03  0.22904051929E+03  0.41800000000E+01 0.  1.
        -11    1    1    2    0    0 -0.15372457650E+02 -0.27678699547E+01  0.71391515615E+01  0.17173847656E+02  0.00000000000E+00 0.  1.
         11    1    1    2    0    0  0.55366270664E+02 -0.21791319846E+02 -0.13042843098E+03  0.14335920325E+03  0.00000000000E+00 0. -1.
</event>
<event>
 7    1  0.2651429E-009  0.9959724E+02  0.7561462E-02  0.1281145E+00
         -2   -1    0    0    0  501 -0.00000000000E+00  0.00000000000E+00  0.57475394247E+02  0.57475394247E+02  0.00000000000E+00 0.  1.
          2   -1    0    0  501    0  0.00000000000E+00 -0.00000000000E+00 -0.22203676974E+03  0.22203676974E+03  0.00000000000E+00 0. -1.
         25    2    1    2    0    0 -0.20204426956E+02  0.19596978090E+02 -0.76329666615E+02  0.14921771995E+03  0.12508976586E+03 0.  0.
          5    1    3    3  502    0 -0.13308693743E+02 -0.47442295173E+02 -0.30088338661E+01  0.49542084955E+02  0.41800000000E+01 0.  1.
         -5    1    3    3    0  502 -0.68957332125E+01  0.67039273263E+02 -0.73320832749E+02  0.99675634992E+02  0.41800000000E+01 0.  1.
        -11    1    1    2    0    0  0.44021122356E+02 -0.32885492949E+02 -0.22956903623E+02  0.59551106488E+02  0.00000000000E+00 0.  1.
         11    1    1    2    0    0 -0.23816695400E+02  0.13288514859E+02 -0.65274805259E+02  0.70743337556E+02  0.00000000000E+00 0. -1.
</event>
<event>
 7    1  0.2651429E-009  0.1137173E+03  0.7561462E-02  0.1253837E+00
          2   -1    0    0  501    0  0.00000000000E+00  0.00000000000E+00  0.52542609523E+02  0.52542609523E+02  0.00000000000E+00 0. -1.
         -2   -1    0    0    0  501 -0.00000000000E+00 -0.00000000000E+00 -0.49670063379E+03  0.49670063379E+03  0.00000000000E+00 0.  1.
         25    2    1    2    0    0  0.86478260237E+02  0.51024959536E+02 -0.12870139762E+03  0.20565249010E+03  0.12508741321E+03 0.  0.
          5    1    3    3  502    0  0.64238113785E+02  0.52510984417E+02 -0.87023493185E+01  0.83529288461E+02  0.41800000000E+01 0.  1.
         -5    1    3    3    0  502  0.22240146452E+02 -0.14860248811E+01 -0.11999904830E+03  0.12212320164E+03  0.41800000000E+01 0.  1.
        -11    1    1    2    0    0 -0.37288468944E+02  0.14274991103E+02 -0.18781398450E+03  0.19201119254E+03  0.00000000000E+00 0. -1.
         11    1    1    2    0    0 -0.49189791292E+02 -0.65299950639E+02 -0.12764264214E+03  0.15157956068E+03  0.00000000000E+00 0.  1.
</event>
<event>
 7    1  0.2651429E-009  0.2361680E+03  0.7561462E-02  0.1122372E+00
         -1   -1    0    0    0  501 -0.00000000000E+00  0.00000000000E+00  0.83500304538E+03  0.83500304538E+03  0.00000000000E+00 0.  1.
          1   -1    0    0  501    0  0.00000000000E+00 -0.00000000000E+00 -0.81317066648E+02  0.81317066648E+02  0.00000000000E+00 0. -1.
         25    2    1    2    0    0 -0.19720235526E+02  0.22471040551E+03  0.25987668211E+03  0.36615182537E+03  0.12509042842E+03 0.  0.
          5    1    3    3  502    0 -0.58020130761E+02  0.13445073818E+03  0.96035948929E+02  0.17516766956E+03  0.41800000000E+01 0. -1.
         -5    1    3    3    0  502  0.38299895235E+02  0.90259667325E+02  0.16384073318E+03  0.19098415581E+03  0.41800000000E+01 0. -1.
        -11    1    1    2    0    0  0.18512626080E+01 -0.17266427573E+03  0.27640694967E+03  0.32590977450E+03  0.00000000000E+00 0. -1.
         11    1    1    2    0    0  0.17868972918E+02 -0.52046129774E+02  0.21740234695E+03  0.22425851217E+03  0.00000000000E+00 0.  1.
</event>
<event>
 7    1  0.2651429E-009  0.1257358E+03  0.7561462E-02  0.1233924E+00
          2   -1    0    0  501    0  0.00000000000E+00  0.00000000000E+00  0.33310552539E+03  0.33310552539E+03  0.00000000000E+00 0. -1.
         -2   -1    0    0    0  501 -0.00000000000E+00 -0.00000000000E+00 -0.63950945162E+02  0.63950945162E+02  0.00000000000E+00 0.  1.
         25    2    1    2    0    0 -0.95531346605E+02 -0.12633704935E+02  0.17157630626E+03  0.23317785670E+03  0.12509050844E+03 0.  0.
          5    1    3    3  502    0 -0.61003444834E+02  0.35183858725E+02  0.15723390829E+03  0.17233484417E+03  0.41800000000E+01 0.  1.
         -5    1    3    3    0  502 -0.34527901770E+02 -0.47817563660E+02  0.14342397970E+02  0.60843012537E+02  0.41800000000E+01 0.  1.
        -11    1    1    2    0    0  0.67307049066E+02  0.43368125122E+02  0.32162395059E+02  0.86287037187E+02  0.00000000000E+00 0.  1.
         11    1    1    2    0    0  0.28224297538E+02 -0.30734420187E+02  0.65415878900E+02  0.77591576656E+02  0.00000000000E+00 0. -1.
</event>
<event>
 7    1  0.2651429E-009  0.7616110E+02  0.7561462E-02  0.1340313E+00
          2   -1    0    0  501    0  0.00000000000E+00  0.00000000000E+00  0.11063979576E+03  0.11063979576E+03  0.00000000000E+00 0. -1.
         -2   -1    0    0    0  501 -0.00000000000E+00 -0.00000000000E+00 -0.12500491767E+03  0.12500491767E+03  0.00000000000E+00 0.  1.
         25    2    1    2    0    0  0.42562375059E+02 -0.12669385903E+02  0.94742289560E-01  0.13273845586E+03  0.12508964616E+03 0.  0.
          5    1    3    3  502    0  0.35613675291E+01  0.33654091104E+02 -0.45473278220E+02  0.56838126453E+02  0.41800000000E+01 0.  1.
         -5    1    3    3    0  502  0.39001007530E+02 -0.46323477007E+02  0.45568020509E+02  0.75900329403E+02  0.41800000000E+01 0.  1.
        -11    1    1    2    0    0  0.12776323166E+01  0.13613635996E+02  0.34541461304E+02  0.37149373863E+02  0.00000000000E+00 0. -1.
         11    1    1    2    0    0 -0.43840007376E+02 -0.94425009288E+00 -0.49001325502E+02  0.65756883715E+02  0.00000000000E+00 0.  1.
</event>
<event>
 7    1  0.2651429E-009  0.2804593E+03  0.7561462E-02  0.1095438E+00
         -3   -1    0    0    0  501 -0.00000000000E+00  0.00000000000E+00  0.75317887583E+03  0.75317887583E+03  0.00000000000E+00 0.  1.
          3   -1    0    0  501    0  0.00000000000E+00 -0.00000000000E+00 -0.12991165846E+03  0.12991165846E+03  0.00000000000E+00 0. -1.
         25    2    1    2    0    0  0.24554473050E+03  0.12851641598E+03  0.18059845390E+03  0.35365575360E+03  0.12509159302E+03 0.  0.
          5    1    3    3  502    0  0.36264422168E+02  0.45997276023E+02  0.97465571535E+02  0.11378869782E+03  0.41800000000E+01 0.  1.
         -5    1    3    3    0  502  0.20928030834E+03  0.82519139962E+02  0.83132882369E+02  0.23986705578E+03  0.41800000000E+01 0.  1.
        -11    1    1    2    0    0 -0.12222550328E+03 -0.67000518837E+02  0.14350076271E+03  0.20005152355E+03  0.00000000000E+00 0.  1.
         11    1    1    2    0    0 -0.12331922723E+03 -0.61515897148E+02  0.29916800076E+03  0.32938325714E+03  0.00000000000E+00 0. -1.
</event>
<event>
 7    1  0.2651429E-009  0.2028543E+03  0.7561462E-02  0.1147353E+00
          2   -1    0    0  501    0  0.00000000000E+00  0.00000000000E+00  0.12494132282E+04  0.12494132282E+04  0.00000000000E+00 0.  1.
         -2   -1    0    0    0  501 -0.00000000000E+00 -0.00000000000E+00 -0.42207696304E+02  0.42207696304E+02  0.00000000000E+00 0. -1.
         25    2    1    2    0    0 -0.41137863661E+02 -0.18034912474E+03  0.85488965882E+03  0.88357317193E+03  0.12508833189E+03 0.  0.
          5    1    3    3  502    0  0.40123149860E+02 -0.92867403505E+02  0.45972152406E+03  0.47073939061E+03  0.41800000000E+01 0. -1.
         -5    1    3    3    0  502 -0.81261013521E+02 -0.87481721239E+02  0.39516813476E+03  0.41283378132E+03  0.41800000000E+01 0. -1.
        -11    1    1    2    0    0  0.33340452263E+02  0.14421992849E+03  0.33693050812E+03  0.36801241940E+03  0.00000000000E+00 0.  1.
         11    1    1    2    0    0  0.77974113980E+01  0.36129196259E+02  0.15385364939E+02  0.40035333158E+02  0.00000000000E+00 0. -1.
</event>
<event>
 7    1  0.2651429E-009  0.1026243E+03  0.7561462E-02  0.1274872E+00
         -1   -1    0    0    0  501 -0.00000000000E+00  0.00000000000E+00  0.48779268875E+02  0.48779268875E+02  0.00000000000E+00 0.  1.
          1   -1    0    0  501    0  0.00000000000E+00 -0.00000000000E+00 -0.28290727149E+03  0.28290727149E+03  0.00000000000E+00 0. -1.
         25    2    1    2    0    0 -0.27375659511E+02  0.24384684177E+02 -0.95440317522E+02  0.16155379163E+03  0.12508690509E+03 0.  0.
          5    1    3    3  502    0  0.44289304600E+02 -0.81593043204E+01 -0.59990639477E+02  0.75129661079E+02  0.41800000000E+01 0.  1.
         -5    1    3    3    0  502 -0.71664964112E+02  0.32543988497E+02 -0.35449678046E+02  0.86424130554E+02  0.41800000000E+01 0.  1.
        -11    1    1    2    0    0 -0.23638595598E+02 -0.18159655563E+02 -0.10385435302E+03  0.10804759568E+03  0.00000000000E+00 0. -1.
         11    1    1    2    0    0  0.51014255110E+02 -0.62250286143E+01 -0.34833332073E+02  0.62085153048E+02  0.00000000000E+00 0.  1.
</event>
<event>
 7    1  0.2651429E-009  0.2462923E+03  0.7561462E-02  0.1115671E+00
          1   -1    0    0  501    0  0.00000000000E+00  0.00000000000E+00  0.80882176067E+02  0.80882176067E+02  0.00000000000E+00 0.  1.
         -1   -1    0    0    0  501 -0.00000000000E+00 -0.00000000000E+00 -0.80669883957E+03  0.80669883957E+03  0.00000000000E+00 0. -1.
         25    2    1    2    0    0  0.12976202466E+03 -0.18914644710E+03 -0.41543593538E+03  0.49076309513E+03  0.12508732005E+03 0.  0.
          5    1    3    3  502    0  0.88051085850E+02 -0.43489126478E+02 -0.97009698667E+02  0.13810377213E+03  0.41800000000E+01 0. -1.
         -5    1    3    3    0  502  0.41710938810E+02 -0.14565732062E+03 -0.31842623672E+03  0.35265932299E+03  0.41800000000E+01 0. -1.
        -11    1    1    2    0    0 -0.37676326912E+02  0.12484609896E+03 -0.12867363301E+03  0.18320195924E+03  0.00000000000E+00 0.  1.
         11    1    1    2    0    0 -0.92085697749E+02  0.64300348136E+02 -0.18170709511E+03  0.21361596128E+03  0.00000000000E+00 0. -1.
</event>
<event>
 7    1  0.2651429E-009  0.9698057E+02  0.7561462E-02  0.1286777E+00
          2   -1    0    0  501    0  0.00000000000E+00  0.00000000000E+00  0.57565324439E+03  0.57565324439E+03  0.00000000000E+00 0. -1.
         -2   -1    0    0    0  501 -0.00000000000E+00 -0.00000000000E+00 -0.23718718069E+02  0.23718718069E+02  0.00000000000E+00 0.  1.
         25    2    1    2    0    0  0.27946052967E+02  0.20075100302E+02  0.24202600545E+03  0.27460964989E+03  0.12509948429E+03 0.  0.
          5    1    3    3  502    0  0.23390598289E+02  0.58418203028E+02  0.22225344605E+03  0.23102786242E+03  0.41800000000E+01 0. -1.
         -5    1    3    3    0  502  0.45554546786E+01 -0.38343102726E+02  0.19772559404E+02  0.43581787473E+02  0.41800000000E+01 0. -1.
        -11    1    1    2    0    0  0.16800966348E+02 -0.39765765102E+02  0.19783368902E+03  0.20248890601E+03  0.00000000000E+00 0. -1.
         11    1    1    2    0    0 -0.44747019315E+02  0.19690664800E+02  0.11207483185E+03  0.12227340656E+03  0.00000000000E+00 0.  1.
</event>
<event>
 7    1  0.2651429E-009  0.1233719E+03  0.7561462E-02  0.1237636E+00
          1   -1    0    0  501    0  0.00000000000E+00  0.00000000000E+00  0.11761037557E+03  0.11761037557E+03  0.00000000000E+00 0.  1.
         -1   -1    0    0    0  501 -0.00000000000E+00 -0.00000000000E+00 -0.17390012324E+03  0.17390012324E+03  0.00000000000E+00 0. -1.
         25    2    1    2    0    0  0.40528832285E+02 -0.77427857576E+02 -0.61510886294E+00  0.15259335045E+03  0.12508674138E+03 0.  0.
          5    1    3    3  502    0  0.65530432708E+02 -0.30128638420E+02 -0.43120293085E+02  0.84135631808E+02  0.41800000000E+01 0. -1.
         -5    1    3    3    0  502 -0.25001600423E+02 -0.47299219156E+02  0.42505184222E+02  0.68457718646E+02  0.41800000000E+01 0. -1.
        -11    1    1    2    0    0  0.26104715867E+02  0.20426101919E+02 -0.36218353832E+02  0.49096343900E+02  0.00000000000E+00 0. -1.
         11    1    1    2    0    0 -0.66633548152E+02  0.57001755657E+02 -0.19456284982E+02  0.89820804453E+02  0.00000000000E+00 0.  1.
</event>
<event>
 7    1  0.2651429E-009  0.1496473E+03  0.7561462E-02  0.1200907E+00
         -3   -1    0    0    0  501 -0.00000000000E+00  0.00000000000E+00  0.57621790936E+03  0.57621790936E+03  0.00000000000E+00 0.  1.
          3   -1    0    0  501    0  0.00000000000E+00 -0.00000000000E+00 -0.43537102072E+02  0.43537102072E+02  0.00000000000E+00 0. -1.
         25    2    1    2    0    0 -0.61638708828E+02  0.91885996721E+02  0.19956258052E+03  0.26022201735E+03  0.12509159825E+03 0.  0.
          5    1    3    3  502    0  0.35789368952E+01  0.99948672055E+02  0.10581362272E+03  0.14565898870E+03  0.41800000000E+01 0.  1.
         -5    1    3    3    0  502 -0.65217645723E+02 -0.80626753339E+01  0.93748957798E+02  0.11456302866E+03  0.41800000000E+01 0.  1.
        -11    1    1    2    0    0  0.73103472410E+02 -0.46739197691E+02  0.24413201706E+03  0.25909286372E+03  0.00000000000E+00 0.  1.
         11    1    1    2    0    0 -0.11464763582E+02 -0.45146799031E+02  0.88986209718E+02  0.10044013036E+03  0.00000000000E+00 0. -1.
</event>
<event>
 7    1  0.2651429E-009  0.1388745E+03  0.7561462E-02  0.1214852E+00
          2   -1    0    0  501    0  0.00000000000E+00  0.00000000000E+00  0.77652322432E+03  0.77652322432E+03  0.00000000000E+00 0. -1.
         -2   -1    0    0    0  501 -0.00000000000E+00 -0.00000000000E+00 -0.36647496804E+02  0.36647496804E+02  0.00000000000E+00 0.  1.
         25    2    1    2    0    0  0.11110828978E+03 -0.63568838598E+02  0.36461711523E+03  0.40617636790E+03  0.12509017477E+03 0.  0.
          5    1    3    3  502    0  0.58686834849E+02 -0.42293650413E+02  0.53861439975E+02  0.90285240023E+02  0.41800000000E+01 0.  1.
         -5    1    3    3    0  502  0.52421454932E+02 -0.21275188185E+02  0.31075567526E+03  0.31589112788E+03  0.41800000000E+01 0.  1.
        -11    1    1    2    0    0 -0.10726698880E+03  0.25444229430E+02  0.20807387701E+03  0.23547474173E+03  0.00000000000E+00 0.  1.
         11    1    1    2    0    0 -0.38413009784E+01  0.38124609167E+02  0.16718473527E+03  0.17151961148E+03  0.00000000000E+00 0. -1.
</event>
<event>
 7    1  0.2651429E-009  0.1059207E+03  0.7561462E-02  0.1268316E+00
         -2   -1    0    0    0  501 -0.00000000000E+00  0.00000000000E+00  0.11419626805E+02  0.11419626805E+02  0.00000000000E+00 0.  1.
          2   -1    0    0  501    0  0.00000000000E+00 -0.00000000000E+00 -0.16557137037E+04  0.16557137037E+04  0.00000000000E+00 0. -1.
         25    2    1    2    0    0 -0.69423661859E+02  0.96900477219E+01 -0.11929045774E+04  0.12014918168E+04  0.12509081937E+03 0.  0.
          5    1    3    3  502    0 -0.79138563559E+02  0.31009394947E+02 -0.43678826299E+03  0.44500107180E+03  0.41800000000E+01 0.  1.
         -5    1    3    3    0  502  0.97149017001E+01 -0.21319347225E+02 -0.75611631445E+03  0.75649074500E+03  0.41800000000E+01 0.  1.
        -11    1    1    2    0    0 -0.98565552036E+01  0.16695142873E+02 -0.27818819331E+02  0.33908202327E+02  0.00000000000E+00 0.  1.
         11    1    1    2    0    0  0.79280217063E+02 -0.26385190595E+02 -0.42357068011E+03  0.43173331138E+03  0.00000000000E+00 0. -1.
</event>
<event>
 7    1  0.2651429E-009  0.1218311E+03  0.7561462E-02  0.1240106E+00
         -1   -1    0    0    0  501 -0.00000000000E+00  0.00000000000E+00  0.77365749450E+02  0.77365749450E+02  0.00000000000E+00 0.  1.
          1   -1    0    0  501    0  0.00000000000E+00 -0.00000000000E+00 -0.24875254602E+03  0.24875254602E+03  0.00000000000E+00 0. -1.
         25    2    1    2    0    0  0.66976125828E+02  0.45238192617E+02 -0.72710356777E+02  0.16573029077E+03  0.12508971898E+03 0.  0.
          5    1    3    3  502    0 -0.32651706157E+02 -0.51168988280E+01 -0.16887513931E+01  0.33356271522E+02  0.41800000000E+01 0. -1.
         -5    1    3    3    0  502  0.99627831985E+02  0.50355091445E+02 -0.71021605384E+02  0.13237401925E+03  0.41800000000E+01 0. -1.
        -11    1    1    2    0    0 -0.57251333264E+02 -0.58724121353E+02 -0.11218425570E+03  0.13896598438E+03  0.00000000000E+00 0. -1.
         11    1    1    2    0    0 -0.97247925637E+01  0.13485928736E+02  0.13507815900E+02  0.21422020322E+02  0.00000000000E+00 0.  1.
</event>
<event>
 7    1  0.2651429E-009  0.1089215E+03  0.7561462E-02  0.1262580E+00
          2   -1    0    0  501    0  0.00000000000E+00  0.00000000000E+00  0.44297202719E+03  0.44297202719E+03  0.00000000000E+00 0. -1.
         -2   -1    0    0    0  501 -0.00000000000E+00 -0.00000000000E+00 -0.52226845790E+02  0.52226845790E+02  0.00000000000E+00 0.  1.
         25    2    1    2    0    0  0.52073148423E+02  0.65597072245E+02  0.31752302967E+03  0.35140174312E+03  0.12509085508E+03 0.  0.
          5    1    3    3  502    0  0.39657907235E+02  0.85655782425E+02  0.31309211303E+03  0.32703792794E+03  0.41800000000E+01 0. -1.
         -5    1    3    3    0  502  0.12415241188E+02 -0.20058710181E+02  0.44309166381E+01  0.24363815180E+02  0.41800000000E+01 0. -1.
        -11    1    1    2    0    0 -0.62832515059E+02 -0.61404396582E+02  0.21021519627E+02  0.90334540214E+02  0.00000000000E+00 0.  1.
         11    1    1    2    0    0  0.10759366636E+02 -0.41926756631E+01  0.52200632100E+02  0.53462589643E+02  0.00000000000E+00 0. -1.
</event>
<event>
 7    1  0.2651429E-009  0.5614951E+02  0.7561462E-02  0.1414740E+00
         -1   -1    0    0    0  501 -0.00000000000E+00  0.00000000000E+00  0.62064462315E+02  0.62064462315E+02  0.00000000000E+00 0.  1.
          1   -1    0    0  501    0  0.00000000000E+00 -0.00000000000E+00 -0.22671438826E+03  0.22671438826E+03  0.00000000000E+00 0. -1.
         25    2    1    2    0    0 -0.15731098771E+02 -0.33973401731E+02 -0.54828296198E+02  0.14161515367E+03  0.12508816967E+03 0.  0.
          5    1    3    3  502    0 -0.19246031650E+02 -0.28308496973E+02  0.36345526304E+02  0.50102399319E+02  0.41800000000E+01 0.  1.
         -5    1    3    3    0  502  0.35149328794E+01 -0.56649047576E+01 -0.91173822502E+02  0.91512754350E+02  0.41800000000E+01 0.  1.
        -11    1    1    2    0    0  0.38148723642E+02  0.25933710295E+02 -0.11400460200E+03  0.12298346118E+03  0.00000000000E+00 0. -1.
         11    1    1    2    0    0 -0.22417624872E+02  0.80396914361E+01  0.41829722525E+01  0.24180235734E+02  0.00000000000E+00 0.  1.
</event>
<event>
 7    1  0.2651429E-009  0.1281741E+03  0.7561462E-02  0.1230190E+00
         -1   -1    0    0    0  501 -0.00000000000E+00  0.00000000000E+00  0.55802873834E+02  0.55802873834E+02  0.00000000000E+00 0.  1.
          1   -1    0    0  501    0  0.00000000000E+00 -0.00000000000E+00 -0.59257699161E+03  0.59257699161E+03  0.00000000000E+00 0. -1.
         25    2    1    2    0    0  0.88877707601E+01 -0.90793552410E+02 -0.49451976445E+03  0.51818924908E+03  0.12509132187E+03 0.  0.
          5    1    3    3  502    0  0.51486865932E+02  0.20940645308E+01 -0.19254439600E+03  0.19936423777E+03  0.41800000000E+01 0. -1.
         -5    1    3    3    0  502 -0.42599095172E+02 -0.92887616941E+02 -0.30197536844E+03  0.31882501131E+03  0.41800000000E+01 0. -1.
        -11    1    1    2    0    0 -0.25276151924E+02  0.29118125090E+02  0.17883438265E+02  0.42503722531E+02  0.00000000000E+00 0.  1.
         11    1    1    2    0    0  0.16388381164E+02  0.61675427321E+02 -0.60137791600E+02  0.87686893838E+02  0.00000000000E+00 0. -1.
</event>
<event>
 7    1  0.2651429E-009  0.1247214E+03  0.7561462E-02  0.1235505E+00
          2   -1    0    0  501    0  0.00000000000E+00  0.00000000000E+00  0.29589952649E+02  0.29589952649E+02  0.00000000000E+00 0. -1.
         -2   -1    0    0    0  501 -0.00000000000E+00 -0.00000000000E+00 -0.53435429034E+03  0.53435429034E+03  0.00000000000E+00 0.  1.
         25    2    1    2    0    0  0.58127296115E+02 -0.24616859578E+02 -0.25812666237E+03  0.29370411448E+03  0.12509180911E+03 0.  0.
          5    1    3    3  502    0  0.71112818552E+02 -0.65475253963E+02 -0.16973888301E+03  0.19537861360E+03  0.41800000000E+01 0.  1.
         -5    1    3    3    0  502 -0.12985522437E+02  0.40858394385E+02 -0.88387779353E+02  0.98325500882E+02  0.41800000000E+01 0.  1.
        -11    1    1    2    0    0 -0.51860878748E+02 -0.26412676927E+02 -0.11424333068E+03  0.12821356734E+03  0.00000000000E+00 0. -1.
         11    1    1    2    0    0 -0.62664173670E+01  0.51029536505E+02 -0.13239434465E+03  0.14202656117E+03  0.00000000000E+00 0.  1.
</event>
<event>
 7    1  0.2651429E-009  0.4276125E+03  0.7561462E-02  0.1034617E+00
         -1   -1    0    0    0  501 -0.00000000000E+00  0.00000000000E+00  0.22816549395E+03  0.22816549395E+03  0.00000000000E+00 0.  1.
          1   -1    0    0  501    0  0.00000000000E+00 -0.00000000000E+00 -0.83693047686E+03  0.83693047686E+03  0.00000000000E+00 0. -1.
         25    2    1    2    0    0 -0.33776203376E+03 -0.24249107003E+03 -0.39811928370E+03  0.58909365788E+03  0.12508902115E+03 0.  0.
          5    1    3    3  502    0 -0.14907479177E+03 -0.17104234502E+03 -0.16390270531E+03  0.27992918129E+03  0.41800000000E+01 0. -1.
         -5    1    3    3    0  502 -0.18868724199E+03 -0.71448725014E+02 -0.23421657838E+03  0.30916447659E+03  0.41800000000E+01 0. -1.
        -11    1    1    2    0    0  0.64209013850E+02  0.53000814216E+01 -0.24896831223E+02  0.69070547469E+02  0.00000000000E+00 0.  1.
         11    1    1    2    0    0  0.27355301991E+03  0.23719098861E+03 -0.18574886799E+03  0.40693176546E+03  0.00000000000E+00 0. -1.
</event>
<event>
 6    1  0.2651429E-009  0.6791103E+02  0.7561462E-02  0.1367344E+00
          1   -1    0    0  501    0  0.00000000000E+00  0.00000000000E+00  0.12759051507E+03  0.12759051507E+03  0.00000000000E+00 0. -1.
         -1   -1    0    0    0  501 -0.00000000000E+00 -0.00000000000E+00 -0.12839276025E+03  0.12839276025E+03  0.00000000000E+00 0.  1.
          5    1    1    2  502    0 -0.20326476512E+02  0.14964466347E+01  0.51102762970E+02  0.55175807951E+02  0.41800000000E+01 0.  1.
         -5    1    1    2    0  502 -0.25412912125E+02  0.43172314910E+02 -0.70427654740E+02  0.86528560773E+02  0.41800000000E+01 0.  1.
        -11    1    1    2    0    0  0.27016596747E+02 -0.19238112939E+02  0.56114427346E+02  0.65183053363E+02  0.00000000000E+00 0. -1.
         11    1    1    2    0    0  0.18722791890E+02 -0.25430648606E+02 -0.37591780754E+02  0.49095853236E+02  0.00000000000E+00 0.  1.
</event>
<event>
 7    1  0.2651429E-009  0.1640802E+03  0.7561462E-02  0.1184166E+00
          1   -1    0    0  501    0  0.00000000000E+00  0.00000000000E+00  0.94433895574E+03  0.94433895574E+03  0.00000000000E+00 0. -1.
         -1   -1    0    0    0  501 -0.00000000000E+00 -0.00000000000E+00 -0.44111448390E+02  0.44111448390E+02  0.00000000000E+00 0.  1.
         25    2    1    2    0    0 -0.55431078029E+02 -0.13120138750E+03  0.74123266957E+03  0.76508815099E+03  0.12509036673E+03 0.  0.
          5    1    3    3  502    0 -0.46170255236E+02 -0.24052899257E+00  0.33382173073E+03  0.33702547475E+03  0.41800000000E+01 0.  1.
         -5    1    3    3    0  502 -0.92608227932E+01 -0.13096085851E+03  0.40741093884E+03  0.42806267624E+03  0.41800000000E+01 0.  1.
        -11    1    1    2    0    0  0.31101387226E+02  0.20847199659E+02  0.15036075938E+02  0.40348303566E+02  0.00000000000E+00 0. -1.
         11    1    1    2    0    0  0.24329690803E+02  0.11035418784E+03  0.14395876184E+03  0.18301394957E+03  0.00000000000E+00 0.  1.
</event>
<event>
 7    1  0.2651429E-009  0.9665648E+02  0.7561462E-02  0.1287488E+00
         -2   -1    0    0    0  501 -0.00000000000E+00  0.00000000000E+00  0.38425016852E+03  0.38425016852E+03  0.00000000000E+00 0. -1.
          2   -1    0    0  501    0  0.00000000000E+00 -0.00000000000E+00 -0.41082603406E+02  0.41082603406E+02  0.00000000000E+00 0.  1.
         25    2    1    2    0    0  0.46161725500E+02 -0.19523230828E+02  0.25809036646E+03  0.29115317363E+03  0.12508985496E+03 0.  0.
          5    1    3    3  502    0  0.23121918924E+02 -0.50007202546E+02  0.36422533693E+02  0.66177162238E+02  0.41800000000E+01 0.  1.
         -5    1    3    3    0  502  0.23039806576E+02  0.30483971718E+02  0.22166783277E+03  0.22497601140E+03  0.41800000000E+01 0.  1.
        -11    1    1    2    0    0  0.25680806756E+02  0.77172056666E+01  0.76209612812E+01  0.27877197667E+02  0.00000000000E+00 0.  1.
         11    1    1    2    0    0 -0.71842532256E+02  0.11806025161E+02  0.77456237370E+02  0.10630240062E+03  0.00000000000E+00 0. -1.
</event>
<event>
 7    1  0.2651429E-009  0.1275633E+03  0.7561462E-02  0.1231117E+00
          2   -1    0    0  501    0  0.00000000000E+00  0.00000000000E+00  0.58653678298E+03  0.58653678298E+03  0.00000000000E+00 0. -1.
         -2   -1    0    0    0  501 -0.00000000000E+00 -0.00000000000E+00 -0.35156922845E+02  0.35156922845E+02  0.00000000000E+00 0.  1.
         25    2    1    2    0    0 -0.69727467189E+02 -0.49562291836E+02  0.39623918301E+03  0.42423029331E+03  0.12509001221E+03 0.  0.
          5    1    3    3  502    0 -0.18756633991E+02 -0.77236669790E+02  0.13603805442E+03  0.15761072022E+03  0.41800000000E+01 0. -1.
         -5    1    3    3    0  502 -0.50970833198E+02  0.27674377954E+02  0.26020112859E+03  0.26661957309E+03  0.41800000000E+01 0. -1.
        -11    1    1    2    0    0  0.51268226173E+02  0.71963852303E+02  0.89879169003E+02  0.12603766133E+03  0.00000000000E+00 0.  1.
         11    1    1    2    0    0  0.18459241016E+02 -0.22401560466E+02  0.65261508113E+02  0.71425751178E+02  0.00000000000E+00 0. -1.
</event>
<event>
 7    1  0.2651429E-009  0.1551152E+03  0.7561462E-02  0.1194325E+00
         -4   -1    0    0    0  501 -0.00000000000E+00  0.00000000000E+00  0.12652320754E+03  0.12652320754E+03  0.00000000000E+00 0.  1.
          4   -1    0    0  501    0  0.00000000000E+00 -0.00000000000E+00 -0.25963927447E+03  0.25963927447E+03  0.00000000000E+00 0. -1.
         25    2    1    2    0    0  0.10744980239E+03  0.88291519015E+02 -0.27251483848E+02  0.18903415697E+03  0.12510162575E+03 0.  0.
          5    1    3    3  502    0  0.84495383945E+02  0.94846438219E+02 -0.66093146320E+02  0.14325185214E+03  0.41800000000E+01 0.  1.
         -5    1    3    3    0  502  0.22954418442E+02 -0.65549192036E+01  0.38841662472E+02  0.45782304828E+02  0.41800000000E+01 0.  1.
        -11    1    1    2    0    0 -0.48981686386E+02  0.45403784563E+01 -0.61584853451E+02  0.78819507816E+02  0.00000000000E+00 0. -1.
         11    1    1    2    0    0 -0.58468116001E+02 -0.92831897471E+02 -0.44279729631E+02  0.11830881722E+03  0.00000000000E+00 0.  1.
</event>
<event>
 6    1  0.2651429E-009  0.1172791E+03  0.7561462E-02  0.1247654E+00
         -1   -1    0    0    0  501 -0.00000000000E+00  0.00000000000E+00  0.44995031553E+02  0.44995031553E+02  0.00000000000E+00 0.  1.
          1   -1    0    0  501    0  0.00000000000E+00 -0.00000000000E+00 -0.47573257253E+03  0.47573257253E+03  0.00000000000E+00 0. -1.
          5    1    1    2  502    0 -0.13265229791E+02  0.29561137248E+02  0.38591473449E+01  0.32896695503E+02  0.41800000000E+01 0.  1.
         -5    1    1    2    0  502  0.62232425171E+02 -0.68907322196E+02 -0.10279940623E+03  0.13858673860E+03  0.41800000000E+01 0.  1.
        -11    1    1    2    0    0 -0.46300982388E+02  0.66846412348E+02 -0.25260606852E+03  0.26537153138E+03  0.00000000000E+00 0.  1.
         11    1    1    2    0    0 -0.26662129923E+01 -0.27500227400E+02 -0.79191213567E+02  0.83872638596E+02  0.00000000000E+00 0. -1.
</event>
<event>
 7    1  0.2651429E-009  0.2025022E+03  0.7561462E-02  0.1147645E+00
          2   -1    0    0  501    0  0.00000000000E+00  0.00000000000E+00  0.76687373312E+02  0.76687373312E+02  0.00000000000E+00 0. -1.
         -2   -1    0    0    0  501 -0.00000000000E+00 -0.00000000000E+00 -0.61910032029E+03  0.61910032029E+03  0.00000000000E+00 0.  1.
         25    2    1    2    0    0 -0.64570245771E+02  0.16661328576E+03 -0.18618537097E+03  0.28677839631E+03  0.12509017785E+03 0.  0.
          5    1    3    3  502    0 -0.69607248911E+02  0.45248714138E+02 -0.12651280475E+03  0.15137891992E+03  0.41800000000E+01 0. -1.
         -5    1    3    3    0  502  0.50370031406E+01  0.12136457162E+03 -0.59672566223E+02  0.13539947638E+03  0.41800000000E+01 0. -1.
        -11    1    1    2    0    0  0.18682176177E+02 -0.15057025711E+03 -0.25523875979E+03  0.29692970638E+03  0.00000000000E+00 0. -1.
         11    1    1    2    0    0  0.45888069594E+02 -0.16043028648E+02 -0.10098881622E+03  0.11207959092E+03  0.00000000000E+00 0.  1.
</event>
<event>
 7    1  0.2651429E-009  0.1217650E+03  0.7561462E-02  0.1240213E+00
          3   -1    0    0  501    0  0.00000000000E+00  0.00000000000E+00  0.50610572259E+02  0.50610572259E+02  0.00000000000E+00 0. -1.
         -3   -1    0    0    0  501 -0.00000000000E+00 -0.00000000000E+00 -0.40078370025E+03  0.40078370025E+03  0.00000000000E+00 0.  1.
         25    2    1    2    0    0 -0.36285589756E+02 -0.75107499053E+02 -0.17973385679E+03  0.23432745117E+03  0.12508922679E+03 0.  0.
          5    1    3    3  502    0 -0.31478064726E+02  0.28986054292E+02 -0.32478734575E+02  0.53883211689E+02  0.41800000000E+01 0. -1.
         -5    1    3    3    0  502 -0.48075250300E+01 -0.10409355334E+03 -0.14725512221E+03  0.18044423948E+03  0.41800000000E+01 0. -1.
        -11    1    1    2    0    0  0.10925179890E+02  0.69397022561E+02 -0.17685012559E+03  0.19029259895E+03  0.00000000000E+00 0.  1.
         11    1    1    2    0    0  0.25360409867E+02  0.57104764921E+01  0.64108543823E+01  0.26774222384E+02  0.00000000000E+00 0. -1.
</event>
<event>
 7    1  0.2651429E-009  0.1185334E+03  0.7561462E-02  0.1245536E+00
         -2   -1    0    0    0  501 -0.00000000000E+00  0.00000000000E+00  0.77734484511E+02  0.77734484511E+02  0.00000000000E+00 0. -1.
          2   -1    0    0  501    0  0.00000000000E+00 -0.00000000000E+00 -0.26691635978E+03  0.26691635978E+03  0.00000000000E+00 0.  1.
         25    2    1    2    0    0  0.49478519267E+02 -0.49536208793E+02 -0.26707593472E+02  0.14581879465E+03  0.12509142845E+03 0.  0.
          5    1    3    3  502    0 -0.14900959821E+02 -0.58089994058E+02 -0.48443039919E+02  0.77205482512E+02  0.41800000000E+01 0.  1.
         -5    1    3    3    0  502  0.64379479088E+02  0.85537852649E+01  0.21735446447E+02  0.68613312136E+02  0.41800000000E+01 0.  1.
        -11    1    1    2    0    0 -0.71757284901E+02  0.19288972299E+02 -0.86176065702E+02  0.11378702338E+03  0.00000000000E+00 0. -1.
         11    1    1    2    0    0  0.22278765633E+02  0.30247236494E+02 -0.76298216099E+02  0.85045026272E+02  0.00000000000E+00 0.  1.
</event>
<event>
 7    1  0.2651429E-009  0.1218060E+03  0.7561462E-02  0.1240147E+00
         -2   -1    0    0    0  501 -0.00000000000E+00  0.00000000000E+00  0.61059951458E+02  0.61059951458E+02  0.00000000000E+00 0. -1.
          2   -1    0    0  501    0  0.00000000000E+00 -0.00000000000E+00 -0.28495490472E+03  0.28495490472E+03  0.00000000000E+00 0.  1.
         25    2    1    2    0    0 -0.22284884434E+02 -0.71462380822E+02 -0.99839969849E+02  0.17668950297E+03  0.12509065886E+03 0.  0.
          5    1    3    3  502    0 -0.36062414769E+02  0.17846057186E+02 -0.71046504780E+02  0.81756086975E+02  0.41800000000E+01 0. -1.
         -5    1    3    3    0  502  0.13777530335E+02 -0.89308438007E+02 -0.28793465069E+02  0.94933415993E+02  0.41800000000E+01 0. -1.
        -11    1    1    2    0    0  0.28607527702E+02 -0.10513392898E+02 -0.18976243882E+02  0.35902923325E+02  0.00000000000E+00 0. -1.
         11    1    1    2    0    0 -0.63226432679E+01  0.81975773719E+02 -0.10507873953E+03  0.13342242988E+03  0.00000000000E+00 0.  1.
</event>
<event>
 7    1  0.2651429E-009  0.8719658E+02  0.7561462E-02  0.1309786E+00
         -1   -1    0    0    0  501 -0.00000000000E+00  0.00000000000E+00  0.42458596623E+02  0.42458596623E+02  0.00000000000E+00 0.  1.
          1   -1    0    0  501    0  0.00000000000E+00 -0.00000000000E+00 -0.33903070065E+03  0.33903070065E+03  0.00000000000E+00 0. -1.
         25    2    1    2    0    0  0.27919437433E+02 -0.31924379112E+02 -0.12133034921E+03  0.17934941489E+03  0.12508596249E+03 0.  0.
          5    1    3    3  502    0 -0.13224766852E+02  0.88995681225E+01  0.20367038464E+02  0.26198958507E+02  0.41800000000E+01 0. -1.
         -5    1    3    3    0  502  0.41144204285E+02 -0.40823947234E+02 -0.14169738768E+03  0.15315045638E+03  0.41800000000E+01 0. -1.
        -11    1    1    2    0    0 -0.43646264698E+02  0.56028014169E+02 -0.11144767901E+03  0.13215415223E+03  0.00000000000E+00 0. -1.
         11    1    1    2    0    0  0.15726827265E+02 -0.24103635057E+02 -0.63794075803E+02  0.69985730163E+02  0.00000000000E+00 0.  1.
</event>
<event>
 7    1  0.2651429E-009  0.9376779E+02  0.7561462E-02  0.1293976E+00
          1   -1    0    0  501    0  0.00000000000E+00  0.00000000000E+00  0.80625077594E+03  0.80625077594E+03  0.00000000000E+00 0. -1.
         -1   -1    0    0    0  501 -0.00000000000E+00 -0.00000000000E+00 -0.16650537662E+02  0.16650537662E+02  0.00000000000E+00 0.  1.
         25    2    1    2    0    0  0.38096137684E+01  0.21507439726E+02  0.58706545522E+03  0.60064320845E+03  0.12509729025E+03 0.  0.
          5    1    3    3  502    0  0.36727082475E+02  0.42935733983E+02  0.12918728277E+03  0.14106446140E+03  0.41800000000E+01 0.  1.
         -5    1    3    3    0  502 -0.32917468707E+02 -0.21428294258E+02  0.45787817244E+03  0.45957874705E+03  0.41800000000E+01 0.  1.
        -11    1    1    2    0    0 -0.42809853105E+02  0.65889374449E+01  0.89616768036E+02  0.99535233625E+02  0.00000000000E+00 0.  1.
         11    1    1    2    0    0  0.39000239337E+02 -0.28096377170E+02  0.11291801503E+03  0.12272287153E+03  0.00000000000E+00 0. -1.
</event>
<event>
 7    1  0.2651429E-009  0.1141168E+03  0.7561462E-02  0.1253131E+00
         -2   -1    0    0    0  501 -0.00000000000E+00  0.00000000000E+00  0.13895463601E+03  0.13895463601E+03  0.00000000000E+00 0.  1.
          2   -1    0    0  501    0  0.00000000000E+00 -0.00000000000E+00 -0.96924043713E+02  0.96924043713E+02  0.00000000000E+00 0. -1.
         25    2    1    2    0    0 -0.27841914178E+02 -0.27571709423E+02  0.37261332749E+02  0.13627782439E+03  0.12509143518E+03 0.  0.
          5    1    3    3  502    0 -0.54162415054E+02  0.32925913177E+02  0.81471029977E+01  0.64043193630E+02  0.41800000000E+01 0.  1.
         -5    1    3    3    0  502  0.26320500877E+02 -0.60497622600E+02  0.29114229752E+02  0.72234630758E+02  0.41800000000E+01 0.  1.
        -11    1    1    2    0    0  0.19908333245E+02 -0.32444090015E+02  0.83017444986E+01  0.38959975246E+02  0.00000000000E+00 0.  1.
         11    1    1    2    0    0  0.79335809328E+01  0.60015799438E+02 -0.35324849467E+01  0.60640880093E+02  0.00000000000E+00 0. -1.
</event>
<event>
 7    1  0.2651429E-009  0.1200425E+03  0.7561462E-02  0.1243027E+00
          2   -1    0    0  501    0  0.00000000000E+00  0.00000000000E+00  0.68410774335E+03  0.68410774335E+03  0.00000000000E+00 0.  1.
         -2   -1    0    0    0  501 -0.00000000000E+00 -0.00000000000E+00 -0.43116288713E+02  0.43116288713E+02  0.00000000000E+00 0. -1.
         25    2    1    2    0    0  0.55573661623E+02  0.27717040863E+02  0.57918657906E+03  0.59578615666E+03  0.12508950750E+03 0.  0.
          5    1    3    3  502    0 -0.34132322482E+02  0.17325186332E+02  0.83861953694E+02  0.92279343283E+02  0.41800000000E+01 0.  1.
         -5    1    3    3    0  502  0.89705984105E+02  0.10391854531E+02  0.49532462537E+03  0.50350681338E+03  0.41800000000E+01 0.  1.
        -11    1    1    2    0    0 -0.30713562979E+02 -0.61788082699E+02  0.55996287800E+02  0.88863234027E+02  0.00000000000E+00 0.  1.
         11    1    1    2    0    0 -0.24860098644E+02  0.34071041836E+02  0.58085877820E+01  0.42574641377E+02  0.00000000000E+00 0. -1.
</event>
<event>
 7    1  0.2651429E-009  0.2412743E+03  0.7561462E-02  0.1118947E+00
         -2   -1    0    0    0  501 -0.00000000000E+00  0.00000000000E+00  0.96912018167E+02  0.96912018167E+02  0.00000000000E+00 0.  1.
          2   -1    0    0  501    0  0.00000000000E+00 -0.00000000000E+00 -0.68595774219E+03  0.68595774219E+03  0.00000000000E+00 0. -1.
         25    2    1    2    0    0  0.60727571516E+02  0.22477470365E+03 -0.27885334447E+03  0.38420065656E+03  0.12505779239E+03 0.  0.
          5    1    3    3  502    0  0.17999170179E+02  0.45756458591E+02  0.84578482224E+00  0.49353939882E+02  0.41800000000E+01 0. -1.
         -5    1    3    3    0  502  0.42728401337E+02  0.17901824505E+03 -0.27969912930E+03  0.33484671668E+03  0.41800000000E+01 0. -1.
        -11    1    1    2    0    0  0.22196945392E+02 -0.71134182510E+02 -0.11223804232E+03  0.13472250907E+03  0.00000000000E+00 0. -1.
         11    1    1    2    0    0 -0.82924516907E+02 -0.15364052114E+03 -0.19795433723E+03  0.26394659473E+03  0.00000000000E+00 0.  1.
</event>
<event>
 7    1  0.2651429E-009  0.1639681E+03  0.7561462E-02  0.1184288E+00
         -1   -1    0    0    0  501 -0.00000000000E+00  0.00000000000E+00  0.21062443761E+03  0.21062443761E+03  0.00000000000E+00 0.  1.
          1   -1    0    0  501    0  0.00000000000E+00 -0.00000000000E+00 -0.15577706734E+03  0.15577706734E+03  0.00000000000E+00 0. -1.
         25    2    1    2    0    0 -0.13866266669E+03 -0.36347967461E+02  0.86966166177E+01  0.19045025256E+03  0.12508859935E+03 0.  0.
          5    1    3    3  502    0 -0.48229059629E+02 -0.55801550198E+02  0.49850486462E+02  0.89120135759E+02  0.41800000000E+01 0.  1.
         -5    1    3    3    0  502 -0.90433607062E+02  0.19453582737E+02 -0.41153869844E+02  0.10133011680E+03  0.41800000000E+01 0.  1.
        -11    1    1    2    0    0  0.39112108121E+02 -0.23189554864E+02 -0.10791029160E+02  0.46732844625E+02  0.00000000000E+00 0. -1.
         11    1    1    2    0    0  0.99550558571E+02  0.59537522325E+02  0.56941782813E+02  0.12921840777E+03  0.00000000000E+00 0.  1.
</event>
<event>
 7    1  0.2651429E-009  0.2004758E+03  0.7561462E-02  0.1149338E+00
          2   -1    0    0  501    0  0.00000000000E+00  0.00000000000E+00  0.71936568616E+03  0.71936568616E+03  0.00000000000E+00 0. -1.
         -2   -1    0    0    0  501 -0.00000000000E+00 -0.00000000000E+00 -0.91041991642E+02  0.91041991642E+02  0.00000000000E+00 0.  1.
         25    2    1    2    0    0 -0.16819105115E+03 -0.55602674369E+01  0.75252265282E+02  0.22277637258E+03  0.12508901827E+03 0.  0.
          5    1    3    3  502    0  0.90329138154E+01  0.22737673233E+02 -0.62927230703E+01  0.25605977421E+02  0.41800000000E+01 0. -1.
         -5    1    3    3    0  502 -0.17722396496E+03 -0.28297940670E+02  0.81544988352E+02  0.19717039516E+03  0.41800000000E+01 0. -1.
        -11    1    1    2    0    0  0.90029496377E+02 -0.47840754183E+02  0.32751139123E+03  0.34301276851E+03  0.00000000000E+00 0. -1.
         11    1    1    2    0    0  0.78161554770E+02  0.53401021620E+02  0.22556003801E+03  0.24461853671E+03  0.00000000000E+00 0.  1.
</event>
<event>
 7    1  0.2651429E-009  0.1247023E+03  0.7561462E-02  0.1235535E+00
          2   -1    0    0  501    0  0.00000000000E+00  0.00000000000E+00  0.47928625258E+03  0.47928625258E+03  0.00000000000E+00 0.  1.
         -2   -1    0    0    0  501 -0.00000000000E+00 -0.00000000000E+00 -0.41248050942E+02  0.41248050942E+02  0.00000000000E+00 0. -1.
         25    2    1    2    0    0 -0.56168306489E+02  0.67301827780E+02  0.27521754553E+03  0.31476269629E+03  0.12508574233E+03 0.  0.
          5    1    3    3  502    0 -0.95168339764E+02  0.44835067052E+02  0.16614572295E+03  0.19669537307E+03  0.41800000000E+01 0. -1.
         -5    1    3    3    0  502  0.39000033274E+02  0.22466760727E+02  0.10907182258E+03  0.11806732323E+03  0.41800000000E+01 0. -1.
        -11    1    1    2    0    0  0.27085459351E+02 -0.64189202323E+02  0.16218488672E+03  0.17651575931E+03  0.00000000000E+00 0.  1.
         11    1    1    2    0    0  0.29082847138E+02 -0.31126254568E+01  0.63576938686E+00  0.29255847922E+02  0.00000000000E+00 0. -1.
</event>
<event>
 7    1  0.2651429E-009  0.9443255E+02  0.7561462E-02  0.1292459E+00
         -1   -1    0    0    0  501 -0.00000000000E+00  0.00000000000E+00  0.12639195076E+03  0.12639195076E+03  0.00000000000E+00 0.  1.
          1   -1    0    0  501    0  0.00000000000E+00 -0.00000000000E+00 -0.12337661852E+03  0.12337661852E+03  0.00000000000E+00 0. -1.
         25    2    1    2    0    0  0.39048375737E+01  0.59914617953E+02 -0.32310569484E+01  0.13879004736E+03  0.12508888167E+03 0.  0.
          5    1    3    3  502    0 -0.29667977831E+02  0.27903266500E+02  0.52230979653E+02  0.66365117536E+02  0.41800000000E+01 0. -1.
         -5    1    3    3    0  502  0.33572815405E+02  0.32011351453E+02 -0.55462036602E+02  0.72424929824E+02  0.41800000000E+01 0. -1.
        -11    1    1    2    0    0 -0.42821586185E+02 -0.31058785749E+02 -0.19173759004E+02  0.56266948113E+02  0.00000000000E+00 0. -1.
         11    1    1    2    0    0  0.38916748611E+02 -0.28855832204E+02  0.25420148196E+02  0.54711573812E+02  0.00000000000E+00 0.  1.
</event>
<event>
 7    1  0.2651429E-009  0.9824453E+02  0.7561462E-02  0.1284031E+00
         -2   -1    0    0    0  501 -0.00000000000E+00  0.00000000000E+00  0.51270998087E+02  0.51270998087E+02  0.00000000000E+00 0.  1.
          2   -1    0    0  501    0  0.00000000000E+00 -0.00000000000E+00 -0.55634846647E+03  0.55634846647E+03  0.00000000000E+00 0. -1.
         25    2    1    2    0    0 -0.73412959483E+02 -0.25835660263E+02 -0.82631409466E+02  0.16891592551E+03  0.12509075145E+03 0.  0.
          5    1    3    3  502    0 -0.10526043633E+02 -0.24812244007E+02 -0.99902363821E+02  0.10355867778E+03  0.41800000000E+01 0. -1.
         -5    1    3    3    0  502 -0.62886915850E+02 -0.10234162561E+01  0.17270954355E+02  0.65357247726E+02  0.41800000000E+01 0. -1.
        -11    1    1    2    0    0  0.87905520790E+02  0.18089754470E+02 -0.40464114816E+03  0.41447446072E+03  0.00000000000E+00 0. -1.
         11    1    1    2    0    0 -0.14492561307E+02  0.77459057927E+01 -0.17804910758E+02  0.24229078334E+02  0.00000000000E+00 0.  1.
</event>
<event>
 7    1  0.2651429E-009  0.9283740E+02  0.7561462E-02  0.1296122E+00
          1   -1    0    0  501    0  0.00000000000E+00  0.00000000000E+00  0.58698016201E+03  0.58698016201E+03  0.00000000000E+00 0. -1.
         -1   -1    0    0    0  501 -0.00000000000E+00 -0.00000000000E+00 -0.41648053172E+02  0.41648053172E+02  0.00000000000E+00 0.  1.
         25    2    1    2    0    0 -0.29008546621E+02  0.41328559441E+02  0.49568152748E+03  0.51370967843E+03  0.12509161215E+03 0.  0.
          5    1    3    3  502    0  0.16300320613E+02  0.39593963515E+02  0.43853647322E+03  0.44064168339E+03  0.41800000000E+01 0.  1.
         -5    1    3    3    0  502 -0.45308867234E+02  0.17345959258E+01  0.57145054257E+02  0.73067995039E+02  0.41800000000E+01 0.  1.
        -11    1    1    2    0    0  0.57890931835E+02 -0.20126054231E+02  0.11096080576E+02  0.62285961916E+02  0.00000000000E+00 0.  1.
         11    1    1    2    0    0 -0.28882385215E+02 -0.21202505210E+02  0.38554500785E+02  0.52632574834E+02  0.00000000000E+00 0. -1.
</event>
<event>
 7    1  0.2651429E-009  0.8721565E+02  0.7561462E-02  0.1309738E+00
         -2   -1    0    0    0  501 -0.00000000000E+00  0.00000000000E+00  0.21913575667E+03  0.21913575667E+03  0.00000000000E+00 0.  1.
          2   -1    0    0  501    0  0.00000000000E+00 -0.00000000000E+00 -0.56848219790E+02  0.56848219790E+02  0.00000000000E+00 0. -1.
         25    2    1    2    0    0  0.17477683085E+02  0.22376925693E+01  0.11504520364E+03  0.17086546942E+03  0.12509649509E+03 0.  0.
          5    1    3    3  502    0 -0.65288020514E+01 -0.46390070132E+02  0.10567980881E+03  0.11567349849E+03  0.41800000000E+01 0. -1.
         -5    1    3    3    0  502  0.24006485136E+02  0.48627762701E+02  0.93653948245E+01  0.55191970921E+02  0.41800000000E+01 0. -1.
        -11    1    1    2    0    0  0.18042281475E+02  0.23146992148E+02 -0.11847984584E+02  0.31649358682E+02  0.00000000000E+00 0. -1.
         11    1    1    2    0    0 -0.35519964560E+02 -0.25384684717E+02  0.59090317827E+02  0.73469148365E+02  0.00000000000E+00 0.  1.
</event>
<event>
 7    1  0.2651429E-009  0.1070750E+03  0.7561462E-02  0.1266084E+00
          4   -1    0    0  501    0  0.00000000000E+00  0.00000000000E+00  0.35307274177E+03  0.35307274177E+03  0.00000000000E+00 0. -1.
         -4   -1    0    0    0  501 -0.00000000000E+00 -0.00000000000E+00 -0.42228412491E+02  0.42228412491E+02  0.00000000000E+00 0.  1.
         25    2    1    2    0    0 -0.56347535844E+02  0.19647634936E+02  0.19797822674E+03  0.24166880494E+03  0.12508940269E+03 0.  0.
          5    1    3    3  502    0 -0.18030774467E+02  0.54875056882E+02  0.28923529009E+02  0.64733481491E+02  0.41800000000E+01 0. -1.
         -5    1    3    3    0  502 -0.38316761377E+02 -0.35227421946E+02  0.16905469773E+03  0.17693532345E+03  0.41800000000E+01 0. -1.
        -11    1    1    2    0    0  0.44822670247E+02 -0.52602044317E+02  0.70299214132E+02  0.98580050426E+02  0.00000000000E+00 0. -1.
         11    1    1    2    0    0  0.11524865597E+02  0.32954409382E+02  0.42566888406E+02  0.55052298892E+02  0.00000000000E+00 0.  1.
</event>
<event>
 7    1  0.2651429E-009  0.1370975E+03  0.7561462E-02  0.1217289E+00
         -2   -1    0    0    0  501 -0.00000000000E+00  0.00000000000E+00  0.85369199888E+02  0.85369199888E+02  0.00000000000E+00 0.  1.
          2   -1    0    0  501    0  0.00000000000E+00 -0.00000000000E+00 -0.31483057225E+03  0.31483057225E+03  0.00000000000E+00 0. -1.
         25    2    1    2    0    0  0.81422574490E+02  0.68034074379E+02 -0.19451302954E+03  0.25444317256E+03  0.12509092090E+03 0.  0.
          5    1    3    3  502    0 -0.89204959758E+01  0.36280001017E+02  0.18302631854E-02  0.37593697950E+02  0.41800000000E+01 0.  1.
         -5    1    3    3    0  502  0.90343070466E+02  0.31754073363E+02 -0.19451485980E+03  0.21684947461E+03  0.41800000000E+01 0.  1.
        -11    1    1    2    0    0  0.74450464485E+01  0.16497053124E+02  0.43665951178E+00  0.18104478725E+02  0.00000000000E+00 0.  1.
         11    1    1    2    0    0 -0.88867620938E+02 -0.84531127503E+02 -0.35385002341E+02  0.12765212086E+03  0.00000000000E+00 0. -1.
</event>
<event>
 7    1  0.2651429E-009  0.1240077E+03  0.7561462E-02  0.1236628E+00
         -3   -1    0    0    0  501 -0.00000000000E+00  0.00000000000E+00  0.36768570422E+03  0.36768570422E+03  0.00000000000E+00 0.  1.
          3   -1    0    0  501    0  0.00000000000E+00 -0.00000000000E+00 -0.59125600997E+02  0.59125600997E+02  0.00000000000E+00 0. -1.
         25    2    1    2    0    0 -0.41486046558E+02  0.87999480124E+02  0.19705586589E+03  0.25287691293E+03  0.12510283071E+03 0.  0.
          5    1    3    3  502    0 -0.76240994904E+02  0.28985870873E+02  0.14621602978E+03  0.16747975931E+03  0.41800000000E+01 0.  1.
         -5    1    3    3    0  502  0.34754948346E+02  0.59013609251E+02  0.50839836110E+02  0.85397153623E+02  0.41800000000E+01 0.  1.
        -11    1    1    2    0    0  0.16096886024E+02 -0.24219230673E+02  0.10023427763E+03  0.10436757775E+03  0.00000000000E+00 0.  1.
         11    1    1    2    0    0  0.25389160533E+02 -0.63780249451E+02  0.11269959709E+02  0.69566814534E+02  0.00000000000E+00 0. -1.
</event>
<event>
 7    1  0.2651429E-009  0.1596097E+03  0.7561462E-02  0.1189138E+00
         -2   -1    0    0    0  501 -0.00000000000E+00  0.00000000000E+00  0.22028066154E+02  0.22028066154E+02  0.00000000000E+00 0.  1.
          2   -1    0    0  501    0  0.00000000000E+00 -0.00000000000E+00 -0.12131172442E+04  0.12131172442E+04  0.00000000000E+00 0. -1.
         25    2    1    2    0    0 -0.11091757276E+03  0.48062353139E+02 -0.57030937369E+03  0.59624813389E+03  0.12508540168E+03 0.  0.
          5    1    3    3  502    0 -0.75160227855E+01  0.63032262451E+02 -0.14623904095E+03  0.15947691434E+03  0.41800000000E+01 0. -1.
         -5    1    3    3    0  502 -0.10340154997E+03 -0.14969909312E+02 -0.42407033273E+03  0.43677121955E+03  0.41800000000E+01 0. -1.
        -11    1    1    2    0    0 -0.12915477408E+02 -0.20416006790E+02 -0.94727374523E+02  0.97759390209E+02  0.00000000000E+00 0. -1.
         11    1    1    2    0    0  0.12383305017E+03 -0.27646346349E+02 -0.52605242985E+03  0.54113778627E+03  0.00000000000E+00 0.  1.
</event>
<event>
 7    1  0.2651429E-009  0.1683715E+03  0.7561462E-02  0.1179557E+00
         -2   -1    0    0    0  501 -0.00000000000E+00  0.00000000000E+00  0.30161400518E+02  0.30161400518E+02  0.00000000000E+00 0.  1.
          2   -1    0    0  501    0  0.00000000000E+00 -0.00000000000E+00 -0.18474332840E+04  0.18474332840E+04  0.00000000000E+00 0. -1.
         25    2    1    2    0    0  0.12007064781E+03  0.59740027393E+02 -0.15791198697E+04  0.15897325967E+04  0.12507731535E+03 0.  0.
          5    1    3    3  502    0  0.12017594821E+03  0.51989341051E+01 -0.12804791694E+04  0.12861235022E+04  0.41800000000E+01 0.  1.
         -5    1    3    3    0  502 -0.10530040225E+00  0.54541093288E+02 -0.29864070034E+03  0.30360909447E+03  0.41800000000E+01 0.  1.
        -11    1    1    2    0    0 -0.87328971506E+02 -0.83813635633E+02 -0.18038445908E+03  0.21723173769E+03  0.00000000000E+00 0. -1.
         11    1    1    2    0    0 -0.32741676302E+02  0.24073608240E+02 -0.57767554660E+02  0.70630350079E+02  0.00000000000E+00 0.  1.
</event>
<event>
 7    1  0.2651429E-009  0.9120467E+02  0.7561462E-02  0.1299960E+00
         -2   -1    0    0    0  501 -0.00000000000E+00  0.00000000000E+00  0.28941708078E+02  0.28941708078E+02  0.00000000000E+00 0.  1.
          2   -1    0    0  501    0  0.00000000000E+00 -0.00000000000E+00 -0.77638384437E+03  0.77638384437E+03  0.00000000000E+00 0. -1.
         25    2    1    2    0    0 -0.16440338825E+00  0.85551856877E+02 -0.57686280108E+03  0.59643636652E+03  0.12508597361E+03 0.  0.
          5    1    3    3  502    0  0.80055779029E+00  0.51671935252E+02 -0.63674306261E+02  0.82112845909E+02  0.41800000000E+01 0. -1.
         -5    1    3    3    0  502 -0.96496117853E+00  0.33879921625E+02 -0.51318849482E+03  0.51432352061E+03  0.41800000000E+01 0. -1.
        -11    1    1    2    0    0 -0.16953021841E+02 -0.73619018524E+02 -0.60320565744E+02  0.96673344256E+02  0.00000000000E+00 0.  1.
         11    1    1    2    0    0  0.17117425230E+02 -0.11932838353E+02 -0.11025876947E+03  0.11221584168E+03  0.00000000000E+00 0. -1.
</event>
<event>
 7    1  0.2651429E-009  0.8967834E+02  0.7561462E-02  0.1303633E+00
          1   -1    0    0  501    0  0.00000000000E+00  0.00000000000E+00  0.13167516235E+03  0.13167516235E+03  0.00000000000E+00 0. -1.
         -1   -1    0    0    0  501 -0.00000000000E+00 -0.00000000000E+00 -0.99204756778E+02  0.99204756778E+02  0.00000000000E+00 0.  1.
         25    2    1    2    0    0  0.47501762050E+02 -0.13189015895E+02  0.19622404696E+02  0.13587902731E+03  0.12509078207E+03 0.  0.
          5    1    3    3  502    0 -0.23453089298E+02 -0.68919118937E+01 -0.37168136788E+02  0.44682084100E+02  0.41800000000E+01 0.  1.
         -5    1    3    3    0  502  0.70954851348E+02 -0.62971040011E+01  0.56790541484E+02  0.91196943209E+02  0.41800000000E+01 0.  1.
        -11    1    1    2    0    0  0.10253325311E+02 -0.15600265674E+02 -0.15741183046E+02  0.24418923251E+02  0.00000000000E+00 0. -1.
         11    1    1    2    0    0 -0.57755087361E+02  0.28789281569E+02  0.28589183919E+02  0.70581968565E+02  0.00000000000E+00 0.  1.
</event>
<event>
 7    1  0.2651429E-009  0.1588110E+03  0.7561462E-02  0.1190046E+00
          3   -1    0    0  501    0  0.00000000000E+00  0.00000000000E+00  0.60890844264E+03  0.60890844264E+03  0.00000000000E+00 0. -1.
         -3   -1    0    0    0  501 -0.00000000000E+00 -0.00000000000E+00 -0.47360431797E+02  0.47360431797E+02  0.00000000000E+00 0.  1.
         25    2    1    2    0    0 -0.35313962224E+02 -0.11115004842E+03  0.18447412010E+03  0.25155002159E+03  0.12508118637E+03 0.  0.
          5    1    3    3  502    0  0.43221909489E+02 -0.13999007188E+02  0.41935396298E+02  0.61968988412E+02  0.41800000000E+01 0.  1.
         -5    1    3    3    0  502 -0.78535871713E+02 -0.97151041229E+02  0.14253872381E+03  0.18958103318E+03  0.41800000000E+01 0.  1.
        -11    1    1    2    0    0  0.65759482624E+02  0.75699266996E+02  0.25932315666E+03  0.27803450893E+03  0.00000000000E+00 0.  1.
         11    1    1    2    0    0 -0.30445520401E+02  0.35450781421E+02  0.11775073408E+03  0.12668434391E+03  0.00000000000E+00 0. -1.
</event>
<event>
 7    1  0.2651429E-009  0.1109959E+03  0.7561462E-02  0.1258737E+00
          2   -1    0    0  501    0  0.00000000000E+00  0.00000000000E+00  0.45516310631E+03  0.45516310631E+03  0.00000000000E+00 0.  1.
         -2   -1    0    0    0  501 -0.00000000000E+00 -0.00000000000E+00 -0.31890726441E+02  0.31890726441E+02  0.00000000000E+00 0. -1.
         25    2    1    2    0    0 -0.42179188348E+02  0.46786590024E+01  0.27701353483E+03  0.30689475313E+03  0.12508763824E+03 0.  0.
          5    1    3    3  502    0 -0.36618884257E+02 -0.50408472862E+02  0.21392268613E+03  0.22285049891E+03  0.41800000000E+01 0.  1.
         -5    1    3    3    0  502 -0.55603040903E+01  0.55087131865E+02  0.63090848691E+02  0.84044254219E+02  0.41800000000E+01 0.  1.
        -11    1    1    2    0    0 -0.11835255519E+02 -0.38509642336E+02  0.43941685502E+02  0.59614910473E+02  0.00000000000E+00 0. -1.
         11    1    1    2    0    0  0.54014443867E+02  0.33830983333E+02  0.10231715954E+03  0.12054416915E+03  0.00000000000E+00 0.  1.
</event>
<event>
 7    1  0.2651429E-009  0.1610139E+03  0.7561462E-02  0.1187557E+00
          1   -1    0    0  501    0  0.00000000000E+00  0.00000000000E+00  0.26884423932E+03  0.26884423932E+03  0.00000000000E+00 0. -1.
         -1   -1    0    0    0  501 -0.00000000000E+00 -0.00000000000E+00 -0.13629271461E+03  0.13629271461E+03  0.00000000000E+00 0.  1.
         25    2    1    2    0    0  0.68431097465E+02  0.12715114704E+03  0.27793701814E+00  0.19105016544E+03  0.12509939717E+03 0.  0.
          5    1    3    3  502    0  0.78536393411E+02  0.10688601517E+03  0.45513353901E+02  0.14029085185E+03  0.41800000000E+01 0.  1.
         -5    1    3    3    0  502 -0.10105295946E+02  0.20265131865E+02 -0.45235416883E+02  0.50759313591E+02  0.41800000000E+01 0.  1.
        -11    1    1    2    0    0 -0.87803338844E+02 -0.10469562165E+03  0.94838508827E+02  0.16632781566E+03  0.00000000000E+00 0.  1.
         11    1    1    2    0    0  0.19372241379E+02 -0.22455525386E+02  0.37435078862E+02  0.47758972830E+02  0.00000000000E+00 0. -1.
</event>
<event>
 7    1  0.2798997E-009  0.1255870E+03  0.7561462E-02  0.1234155E+00
         -1   -1    0    0    0  501 -0.00000000000E+00  0.00000000000E+00  0.75146807298E+02  0.75146807298E+02  0.00000000000E+00 0.  1.
          1   -1    0    0  501    0  0.00000000000E+00 -0.00000000000E+00 -0.24908261082E+03  0.24908261082E+03  0.00000000000E+00 0. -1.
         25    2    1    2    0    0  0.57490937578E+02 -0.43635935026E+02 -0.14320758085E+03  0.20338567328E+03  0.12509203874E+03 0.  0.
          5    1    3    3  502    0 -0.25683275562E+02 -0.53954845217E+02 -0.50595016827E+02  0.78409719383E+02  0.41800000000E+01 0.  1.
         -5    1    3    3    0  502  0.83174213140E+02  0.10318910192E+02 -0.92612564019E+02  0.12497595390E+03  0.41800000000E+01 0.  1.
        -11    1    1    2    0    0 -0.31776989715E+02 -0.20799823788E+02  0.11430197873E+02  0.39661809948E+02  0.00000000000E+00 0.  1.
         11    1    1    2    0    0 -0.25713947862E+02  0.64435758813E+02 -0.42158420547E+02  0.81181934884E+02  0.00000000000E+00 0. -1.
</event>
<event>
 7    1  0.2651429E-009  0.1535649E+03  0.7561462E-02  0.1196160E+00
         -2   -1    0    0    0  501 -0.00000000000E+00  0.00000000000E+00  0.40660183631E+02  0.40660183631E+02  0.00000000000E+00 0. -1.
          2   -1    0    0  501    0  0.00000000000E+00 -0.00000000000E+00 -0.95163281156E+03  0.95163281156E+03  0.00000000000E+00 0.  1.
         25    2    1    2    0    0  0.11414117699E+03  0.76254371454E+02 -0.25286685783E+03  0.31373984479E+03  0.12509238573E+03 0.  0.
          5    1    3    3  502    0  0.10842738922E+03  0.52069354080E+02 -0.93533642928E+02  0.15242614975E+03  0.41800000000E+01 0. -1.
         -5    1    3    3    0  502  0.57137877691E+01  0.24185017375E+02 -0.15933321490E+03  0.16131369504E+03  0.41800000000E+01 0. -1.
        -11    1    1    2    0    0 -0.68379176942E+02 -0.90699745647E+02 -0.52258196058E+03  0.53478412582E+03  0.00000000000E+00 0.  1.
         11    1    1    2    0    0 -0.45762000051E+02  0.14445374192E+02 -0.13552380951E+03  0.14376902458E+03  0.00000000000E+00 0. -1.
</event>
<event>
 7    1  0.2651429E-009  0.8120856E+02  0.7561462E-02  0.1325656E+00
          4   -1    0    0  501    0  0.00000000000E+00  0.00000000000E+00  0.72037569822E+02  0.72037569822E+02  0.00000000000E+00 0. -1.
         -4   -1    0    0    0  501 -0.00000000000E+00 -0.00000000000E+00 -0.25842786503E+03  0.25842786503E+03  0.00000000000E+00 0.  1.
         25    2    1    2    0    0 -0.10304439461E+02  0.26890231127E+02 -0.19508386478E+03  0.23352896442E+03  0.12509515147E+03 0.  0.
          5    1    3    3  502    0 -0.25569941814E+02  0.59992799166E+02 -0.18390751546E+03  0.19517275557E+03  0.41800000000E+01 0. -1.
         -5    1    3    3    0  502  0.15265502352E+02 -0.33102568039E+02 -0.11176349328E+02  0.38356208847E+02  0.41800000000E+01 0. -1.
        -11    1    1    2    0    0  0.56018602471E+01 -0.43118524431E+02  0.41454346545E+02  0.60075376277E+02  0.00000000000E+00 0. -1.
         11    1    1    2    0    0  0.47025792142E+01  0.16228293304E+02 -0.32760776967E+02  0.36861094155E+02  0.00000000000E+00 0.  1.
</event>
<event>
 7    1  0.2651429E-009  0.1051680E+03  0.7561462E-02  0.1269789E+00
         -2   -1    0    0    0  501 -0.00000000000E+00  0.00000000000E+00  0.19795578688E+02  0.19795578688E+02  0.00000000000E+00 0.  1.
          2   -1    0    0  501    0  0.00000000000E+00 -0.00000000000E+00 -0.10059229076E+04  0.10059229076E+04  0.00000000000E+00 0. -1.
         25    2    1    2    0    0  0.37333597528E+02 -0.84140444962E+02 -0.51614507924E+03  0.53900711127E+03  0.12509800634E+03 0.  0.
          5    1    3    3  502    0  0.31958916053E+02 -0.67419735327E+02 -0.11309854535E+03  0.13555643248E+03  0.41800000000E+01 0.  1.
         -5    1    3    3    0  502  0.53746814752E+01 -0.16720709635E+02 -0.40304653389E+03  0.40345067878E+03  0.41800000000E+01 0.  1.
        -11    1    1    2    0    0  0.20876680609E+02  0.37676370595E+02 -0.93667086750E+02  0.10309640069E+03  0.00000000000E+00 0.  1.
         11    1    1    2    0    0 -0.58210278137E+02  0.46464074367E+02 -0.37631516292E+03  0.38361497433E+03  0.00000000000E+00 0. -1.
</event>
<event>
 7    1  0.2651429E-009  0.8758346E+02  0.7561462E-02  0.1308811E+00
         -2   -1    0    0    0  501 -0.00000000000E+00  0.00000000000E+00  0.52243740529E+02  0.52243740529E+02  0.00000000000E+00 0.  1.
          2   -1    0    0  501    0  0.00000000000E+00 -0.00000000000E+00 -0.25562628142E+03  0.25562628142E+03  0.00000000000E+00 0. -1.
         25    2    1    2    0    0 -0.20705815224E+02 -0.34394848665E+02 -0.95621172708E+02  0.16248755695E+03  0.12508821326E+03 0.  0.
          5    1    3    3  502    0  0.21891425876E+02  0.19567025678E+01 -0.10340287932E+03  0.10579551532E+03  0.41800000000E+01 0. -1.
         -5    1    3    3    0  502 -0.42597241099E+02 -0.36351551233E+02  0.77817066074E+01  0.56692041629E+02  0.41800000000E+01 0. -1.
        -11    1    1    2    0    0  0.55278980492E+02  0.16385747867E+02 -0.54160289809E+02  0.79104964507E+02  0.00000000000E+00 0.  1.
         11    1    1    2    0    0 -0.34573165269E+02  0.18009100798E+02 -0.53601078371E+02  0.66277500486E+02  0.00000000000E+00 0. -1.
</event>
<event>
 7    1  0.2651429E-009  0.6970099E+02  0.7561462E-02  0.1361113E+00
         -2   -1    0    0    0  501 -0.00000000000E+00  0.00000000000E+00  0.14550265312E+03  0.14550265312E+03  0.00000000000E+00 0.  1.
          2   -1    0    0  501    0  0.00000000000E+00 -0.00000000000E+00 -0.18620650486E+03  0.18620650486E+03  0.00000000000E+00 0. -1.
         25    2    1    2    0    0  0.21608693329E+02 -0.26076530717E+02  0.97305563644E+02  0.16205861938E+03  0.12509077631E+03 0.  0.
          5    1    3    3  502    0  0.21065070780E+02  0.29672467049E+00 -0.27235876629E+02  0.34685596841E+02  0.41800000000E+01 0. -1.
         -5    1    3    3    0  502  0.54362254832E+00 -0.26373255388E+02  0.12454144027E+03  0.12737302254E+03  0.41800000000E+01 0. -1.
        -11    1    1    2    0    0 -0.54420673586E+02  0.19063761415E+02 -0.53241834439E+02  0.78483945156E+02  0.00000000000E+00 0. -1.
         11    1    1    2    0    0  0.32811980257E+02  0.70127693018E+01 -0.84767580943E+02  0.91166593446E+02  0.00000000000E+00 0.  1.
</event>
<event>
 7    1  0.2651429E-009  0.1156870E+03  0.7561462E-02  0.1250387E+00
          2   -1    0    0  501    0  0.00000000000E+00  0.00000000000E+00  0.21124087328E+03  0.21124087328E+03  0.00000000000E+00 0. -1.
         -2   -1    0    0    0  501 -0.00000000000E+00 -0.00000000000E+00 -0.89403544417E+02  0.89403544417E+02  0.00000000000E+00 0.  1.
         25    2    1    2    0    0  0.42169877678E+02 -0.68727890250E+02  0.41898535113E+02  0.15460495757E+03  0.12508151014E+03 0.  0.
          5    1    3    3  502    0  0.70298922026E+02 -0.76150642323E+02  0.36349491589E+00  0.10372301236E+03  0.41800000000E+01 0.  1.
         -5    1    3    3    0  502 -0.28129044348E+02  0.74227520730E+01  0.41535040197E+02  0.50881945211E+02  0.41800000000E+01 0.  1.
        -11    1    1    2    0    0 -0.11311128689E+02 -0.91136370724E+01 -0.14016519830E+02  0.20185708832E+02  0.00000000000E+00 0.  1.
         11    1    1    2    0    0 -0.30858748989E+02  0.77841527323E+02  0.93955313580E+02  0.12585375130E+03  0.00000000000E+00 0. -1.
</event>
<event>
 7    1  0.2651429E-009  0.1058295E+03  0.7561462E-02  0.1268494E+00
         -1   -1    0    0    0  501 -0.00000000000E+00  0.00000000000E+00  0.50578282448E+02  0.50578282448E+02  0.00000000000E+00 0.  1.
          1   -1    0    0  501    0  0.00000000000E+00 -0.00000000000E+00 -0.27691655189E+03  0.27691655189E+03  0.00000000000E+00 0. -1.
         25    2    1    2    0    0 -0.21428112252E+02  0.35304392919E+02 -0.99949149682E+02  0.16535756396E+03  0.12509087610E+03 0.  0.
          5    1    3    3  502    0 -0.53841460425E+02 -0.15620739543E+02 -0.10230408746E+02  0.57140563767E+02  0.41800000000E+01 0. -1.
         -5    1    3    3    0  502  0.32413348172E+02  0.50925132462E+02 -0.89718740936E+02  0.10821700019E+03  0.41800000000E+01 0. -1.
        -11    1    1    2    0    0 -0.33158798225E+02 -0.91235000474E+01 -0.75819679392E+02  0.83254837312E+02  0.00000000000E+00 0. -1.
         11    1    1    2    0    0  0.54586910477E+02 -0.26180892871E+02 -0.50569440368E+02  0.78882433064E+02  0.00000000000E+00 0.  1.
</event>
<event>
 7    1  0.2651429E-009  0.1319713E+03  0.7561462E-02  0.1224560E+00
          2   -1    0    0  501    0  0.00000000000E+00  0.00000000000E+00  0.14226830005E+04  0.14226830005E+04  0.00000000000E+00 0. -1.
         -2   -1    0    0    0  501 -0.00000000000E+00 -0.00000000000E+00 -0.20662186088E+02  0.20662186088E+02  0.00000000000E+00 0.  1.
         25    2    1    2    0    0 -0.63436283347E+02 -0.10798425088E+03  0.94248947455E+03  0.95896880694E+03  0.12509997026E+03 0.  0.
          5    1    3    3  502    0 -0.61352857898E+02 -0.10489878509E+03  0.44123273005E+03  0.45768080881E+03  0.41800000000E+01 0. -1.
         -5    1    3    3    0  502 -0.20834254482E+01 -0.30854657905E+01  0.50125674450E+03  0.50128799813E+03  0.41800000000E+01 0. -1.
        -11    1    1    2    0    0  0.16566323713E+02  0.80979644443E+02  0.16094081108E+03  0.18092564928E+03  0.00000000000E+00 0.  1.
         11    1    1    2    0    0  0.46869959633E+02  0.27004606438E+02  0.29859052880E+03  0.30345073039E+03  0.00000000000E+00 0. -1.
</event>
<event>
 7    1  0.2651429E-009  0.1124863E+03  0.7561462E-02  0.1256034E+00
         -1   -1    0    0    0  501 -0.00000000000E+00  0.00000000000E+00  0.12376718999E+03  0.12376718999E+03  0.00000000000E+00 0.  1.
          1   -1    0    0  501    0  0.00000000000E+00 -0.00000000000E+00 -0.17240135575E+03  0.17240135575E+03  0.00000000000E+00 0. -1.
         25    2    1    2    0    0 -0.58117632483E+02  0.51537022669E+02 -0.85092366850E+02  0.17006373279E+03  0.12508892198E+03 0.  0.
          5    1    3    3  502    0  0.23448002191E+02 -0.18850964911E+02  0.34201356849E+01  0.30566933326E+02  0.41800000000E+01 0.  1.
         -5    1    3    3    0  502 -0.81565634673E+02  0.70387987580E+02 -0.88512502535E+02  0.13949679946E+03  0.41800000000E+01 0.  1.
        -11    1    1    2    0    0  0.27901338337E+02 -0.10266533988E+01 -0.27497442408E+02  0.39187345370E+02  0.00000000000E+00 0. -1.
         11    1    1    2    0    0  0.30216294146E+02 -0.50510369271E+02  0.63955643500E+02  0.86917467585E+02  0.00000000000E+00 0.  1.
</event>
<event>
 7    1  0.2651429E-009  0.1354128E+03  0.7561462E-02  0.1219638E+00
          1   -1    0    0  501    0  0.00000000000E+00  0.00000000000E+00  0.15084847370E+04  0.15084847370E+04  0.00000000000E+00 0. -1.
         -1   -1    0    0    0  501 -0.00000000000E+00 -0.00000000000E+00 -0.15897518062E+02  0.15897518062E+02  0.00000000000E+00 0.  1.
         25    2    1    2    0    0 -0.57729664307E+02  0.81108847332E+02  0.10431273259E+04  0.10553071025E+04  0.12508838218E+03 0.  0.
          5    1    3    3  502    0 -0.81082098192E+02  0.99990463849E+02  0.88151170253E+03  0.89087190639E+03  0.41800000000E+01 0.  1.
         -5    1    3    3    0  502  0.23352433885E+02 -0.18881616517E+02  0.16161562333E+03  0.16443519609E+03  0.41800000000E+01 0.  1.
        -11    1    1    2    0    0 -0.94981129677E+01 -0.84290795168E+01  0.48791792273E+01  0.13604040627E+02  0.00000000000E+00 0. -1.
         11    1    1    2    0    0  0.67227777275E+02 -0.72679767815E+02  0.44458071383E+03  0.45547111192E+03  0.00000000000E+00 0.  1.
</event>
<event>
 7    1  0.2651429E-009  0.1167495E+03  0.7561462E-02  0.1248558E+00
         -4   -1    0    0    0  501 -0.00000000000E+00  0.00000000000E+00  0.15651784282E+03  0.15651784282E+03  0.00000000000E+00 0.  1.
          4   -1    0    0  501    0  0.00000000000E+00 -0.00000000000E+00 -0.16361999151E+03  0.16361999151E+03  0.00000000000E+00 0. -1.
         25    2    1    2    0    0 -0.34020159228E+02  0.97201078067E+02 -0.61010446932E+02  0.17312988661E+03  0.12508501986E+03 0.  0.
          5    1    3    3  502    0  0.62691571492E+01  0.18692561807E+02  0.36412172655E+02  0.41617699549E+02  0.41800000000E+01 0. -1.
         -5    1    3    3    0  502 -0.40289316378E+02  0.78508516259E+02 -0.97422619587E+02  0.13151218707E+03  0.41800000000E+01 0. -1.
        -11    1    1    2    0    0  0.56266976870E+02 -0.72226559118E+02  0.64419746909E+02  0.11194888262E+03  0.00000000000E+00 0.  1.
         11    1    1    2    0    0 -0.22246817641E+02 -0.24974518949E+02 -0.10511448670E+02  0.35059065091E+02  0.00000000000E+00 0. -1.
</event>
<event>
 7    1  0.2651429E-009  0.8860228E+02  0.7561462E-02  0.1306272E+00
          2   -1    0    0  501    0  0.00000000000E+00  0.00000000000E+00  0.33797387734E+03  0.33797387734E+03  0.00000000000E+00 0. -1.
         -2   -1    0    0    0  501 -0.00000000000E+00 -0.00000000000E+00 -0.47723322558E+02  0.47723322558E+02  0.00000000000E+00 0.  1.
         25    2    1    2    0    0  0.60530231611E+02  0.15288420116E+02  0.13196444103E+03  0.19225003740E+03  0.12509124052E+03 0.  0.
          5    1    3    3  502    0 -0.22346993959E+02 -0.42130312218E+01  0.97665542195E+02  0.10036517475E+03  0.41800000000E+01 0.  1.
         -5    1    3    3    0  502  0.82877225570E+02  0.19501451338E+02  0.34298898835E+02  0.91884862647E+02  0.41800000000E+01 0.  1.
        -11    1    1    2    0    0 -0.13756451726E+02 -0.17202794234E+02 -0.58298987525E+01  0.22785166513E+02  0.00000000000E+00 0.  1.
         11    1    1    2    0    0 -0.46773779885E+02  0.19143741180E+01  0.16411601250E+03  0.17066199598E+03  0.00000000000E+00 0. -1.
</event>
<event>
 7    1  0.2651429E-009  0.1400083E+03  0.7561462E-02  0.1213318E+00
          3   -1    0    0  501    0  0.00000000000E+00  0.00000000000E+00  0.15095540222E+03  0.15095540222E+03  0.00000000000E+00 0. -1.
         -3   -1    0    0    0  501 -0.00000000000E+00 -0.00000000000E+00 -0.19070819086E+03  0.19070819086E+03  0.00000000000E+00 0.  1.
         25    2    1    2    0    0 -0.62715638674E+02 -0.11112421764E+03  0.13565670055E+01  0.17869646767E+03  0.12509494077E+03 0.  0.
          5    1    3    3  502    0  0.15062041593E+02  0.12158696431E+01 -0.34048679379E+02  0.37485042395E+02  0.41800000000E+01 0.  1.
         -5    1    3    3    0  502 -0.77777680267E+02 -0.11234008728E+03  0.35405246384E+02  0.14121142528E+03  0.41800000000E+01 0.  1.
        -11    1    1    2    0    0  0.25991971005E+02  0.49148667085E+02  0.28772738487E+02  0.62602272427E+02  0.00000000000E+00 0.  1.
         11    1    1    2    0    0  0.36723667669E+02  0.61975550552E+02 -0.69882094134E+02  0.10036485298E+03  0.00000000000E+00 0. -1.
</event>
<event>
 6    1  0.2651429E-009  0.1035820E+03  0.7561462E-02  0.1272939E+00
          2   -1    0    0  501    0  0.00000000000E+00  0.00000000000E+00  0.70144713171E+03  0.70144713171E+03  0.00000000000E+00 0. -1.
         -2   -1    0    0    0  501 -0.00000000000E+00 -0.00000000000E+00 -0.18071380462E+02  0.18071380462E+02  0.00000000000E+00 0.  1.
          5    1    1    2  502    0  0.25521870603E+02  0.47692921976E+02  0.31162838491E+03  0.31631582851E+03  0.41800000000E+01 0.  1.
         -5    1    1    2    0  502  0.13212218778E+01 -0.59815021482E+02  0.12212399953E+03  0.13605633423E+03  0.41800000000E+01 0.  1.
        -11    1    1    2    0    0 -0.59370622325E+02  0.45976875982E+01  0.13071603716E+03  0.14364084342E+03  0.00000000000E+00 0. -1.
         11    1    1    2    0    0  0.32527529845E+02  0.75244119077E+01  0.11890732964E+03  0.12350550601E+03  0.00000000000E+00 0.  1.
</event>
<event>
 7    1  0.2651429E-009  0.9529143E+02  0.7561462E-02  0.1290521E+00
          2   -1    0    0  501    0  0.00000000000E+00  0.00000000000E+00  0.81843396210E+02  0.81843396210E+02  0.00000000000E+00 0. -1.
         -2   -1    0    0    0  501 -0.00000000000E+00 -0.00000000000E+00 -0.18601171505E+03  0.18601171505E+03  0.00000000000E+00 0.  1.
         25    2    1    2    0    0  0.47228451694E+02  0.14385680591E+02 -0.91545327762E+02  0.16268472900E+03  0.12509316352E+03 0.  0.
          5    1    3    3  502    0  0.81486093359E+02  0.34024495562E+02 -0.84623916482E+02  0.12237781396E+03  0.41800000000E+01 0.  1.
         -5    1    3    3    0  502 -0.34257641666E+02 -0.19638814971E+02 -0.69214112803E+01  0.40306915040E+02  0.41800000000E+01 0.  1.
        -11    1    1    2    0    0 -0.39063596758E+02 -0.26970749311E+02 -0.47530788879E+02  0.67175604214E+02  0.00000000000E+00 0.  1.
         11    1    1    2    0    0 -0.81648549358E+01  0.12585068719E+02  0.34907797805E+02  0.37994778041E+02  0.00000000000E+00 0. -1.
</event>
<event>
 7    1  0.3440802E-009  0.9715059E+02  0.7561462E-02  0.1286405E+00
          3   -1    0    0  501    0  0.00000000000E+00  0.00000000000E+00  0.21145633049E+03  0.21145633049E+03  0.00000000000E+00 0. -1.
         -3   -1    0    0    0  501 -0.00000000000E+00 -0.00000000000E+00 -0.80514136142E+02  0.80514136142E+02  0.00000000000E+00 0.  1.
         25    2    1    2    0    0 -0.50138536806E+02 -0.45903261068E+02  0.44085471702E+02  0.14903956635E+03  0.12509309043E+03 0.  0.
          5    1    3    3  502    0 -0.40689187980E+02  0.84428113922E+01 -0.33646431366E+02  0.53632507180E+02  0.41800000000E+01 0. -1.
         -5    1    3    3    0  502 -0.94493488260E+01 -0.54346072460E+02  0.77731903068E+02  0.95407059171E+02  0.41800000000E+01 0. -1.
        -11    1    1    2    0    0  0.26280347143E+02 -0.16073229876E+02 -0.32705092728E+01  0.30979050913E+02  0.00000000000E+00 0.  1.
         11    1    1    2    0    0  0.23858189664E+02  0.61976490944E+02  0.90127231923E+02  0.11195184937E+03  0.00000000000E+00 0. -1.
</event>
<event>
 7    1  0.2651429E-009  0.9696461E+02  0.7561462E-02  0.1286812E+00
         -1   -1    0    0    0  501 -0.00000000000E+00  0.00000000000E+00  0.11955016322E+03  0.11955016322E+03  0.00000000000E+00 0.  1.
          1   -1    0    0  501    0  0.00000000000E+00 -0.00000000000E+00 -0.17467973885E+03  0.17467973885E+03  0.00000000000E+00 0. -1.
         25    2    1    2    0    0  0.41017569375E+02 -0.56329002352E+02  0.35028878581E+02  0.14741052509E+03  0.12508974007E+03 0.  0.
          5    1    3    3  502    0  0.30534716745E+02 -0.24238911674E+01  0.73829912077E+02  0.80041067537E+02  0.41800000000E+01 0. -1.
         -5    1    3    3    0  502  0.10482852630E+02 -0.53905111185E+02 -0.38801033496E+02  0.67369457556E+02  0.41800000000E+01 0. -1.
        -11    1    1    2    0    0 -0.45467695603E+02 -0.56364371038E+01 -0.12735403186E+02  0.47552826004E+02  0.00000000000E+00 0.  1.
         11    1    1    2    0    0  0.44501262277E+01  0.61965439456E+02 -0.77423051026E+02  0.99266550966E+02  0.00000000000E+00 0. -1.
</event>
<event>
 7    1  0.2651429E-009  0.9752550E+02  0.7561462E-02  0.1285587E+00
          1   -1    0    0  501    0  0.00000000000E+00  0.00000000000E+00  0.47990749215E+03  0.47990749215E+03  0.00000000000E+00 0. -1.
         -1   -1    0    0    0  501 -0.00000000000E+00 -0.00000000000E+00 -0.36330685448E+02  0.36330685448E+02  0.00000000000E+00 0.  1.
         25    2    1    2    0    0 -0.56636062270E+02 -0.34730328171E+02  0.30757798717E+03  0.33862285053E+03  0.12508947785E+03 0.  0.
          5    1    3    3  502    0  0.35628073040E+01  0.34704293890E+02  0.16674909002E+03  0.17041071866E+03  0.41800000000E+01 0. -1.
         -5    1    3    3    0  502 -0.60198869574E+02 -0.69434622061E+02  0.14082889715E+03  0.16821213187E+03  0.41800000000E+01 0. -1.
        -11    1    1    2    0    0  0.37265233062E+02  0.14705226632E+02  0.13184764624E+01  0.40083408858E+02  0.00000000000E+00 0.  1.
         11    1    1    2    0    0  0.19370829208E+02  0.20025101540E+02  0.13468034307E+03  0.13753191820E+03  0.00000000000E+00 0. -1.
</event>
<event>
 7    1  0.2651429E-009  0.1577977E+03  0.7561462E-02  0.1191206E+00
         -2   -1    0    0    0  501 -0.00000000000E+00  0.00000000000E+00  0.80263663065E+02  0.80263663065E+02  0.00000000000E+00 0. -1.
          2   -1    0    0  501    0  0.00000000000E+00 -0.00000000000E+00 -0.43792311563E+03  0.43792311563E+03  0.00000000000E+00 0.  1.
         25    2    1    2    0    0  0.91993288715E+02  0.12367540767E+03 -0.19214971689E+03  0.27627466705E+03  0.12509119202E+03 0.  0.
          5    1    3    3  502    0  0.38952301264E+02  0.33462286490E+02 -0.15788388493E+03  0.16607769240E+03  0.41800000000E+01 0. -1.
         -5    1    3    3    0  502  0.53040987451E+02  0.90213121176E+02 -0.34265831958E+02  0.11019697465E+03  0.41800000000E+01 0. -1.
        -11    1    1    2    0    0 -0.50545423578E+02 -0.35073260946E+02 -0.11820455049E+03  0.13325647915E+03  0.00000000000E+00 0. -1.
         11    1    1    2    0    0 -0.41447865137E+02 -0.88602146720E+02 -0.47305185174E+02  0.10865563249E+03  0.00000000000E+00 0.  1.
</event>
<event>
 7    1  0.2651429E-009  0.9276786E+02  0.7561462E-02  0.1296284E+00
          1   -1    0    0  501    0  0.00000000000E+00  0.00000000000E+00  0.26802206773E+03  0.26802206773E+03  0.00000000000E+00 0. -1.
         -1   -1    0    0    0  501 -0.00000000000E+00 -0.00000000000E+00 -0.56252261293E+02  0.56252261293E+02  0.00000000000E+00 0.  1.
         25    2    1    2    0    0 -0.52312891960E+02  0.21261841569E+02  0.12995624415E+03  0.18900935061E+03  0.12508878707E+03 0.  0.
          5    1    3    3  502    0 -0.63484088887E+02  0.19122977559E+02  0.85286056519E+01  0.66978558710E+02  0.41800000000E+01 0. -1.
         -5    1    3    3    0  502  0.11171196927E+02  0.21388640102E+01  0.12142763850E+03  0.12203079190E+03  0.41800000000E+01 0. -1.
        -11    1    1    2    0    0  0.11056394686E+00 -0.48228315448E+02  0.44777328079E+02  0.65810270819E+02  0.00000000000E+00 0.  1.
         11    1    1    2    0    0  0.52202328013E+02  0.26966473879E+02  0.37036234213E+02  0.69454707602E+02  0.00000000000E+00 0. -1.
</event>
<event>
 7    1  0.2651429E-009  0.1102123E+03  0.7561462E-02  0.1260177E+00
          1   -1    0    0  501    0  0.00000000000E+00  0.00000000000E+00  0.45782604265E+03  0.45782604265E+03  0.00000000000E+00 0. -1.
         -1   -1    0    0    0  501 -0.00000000000E+00 -0.00000000000E+00 -0.30094940441E+02  0.30094940441E+02  0.00000000000E+00 0.  1.
         25    2    1    2    0    0  0.42292919665E+02  0.35948939003E+01  0.22751673428E+03  0.26308253267E+03  0.12508773041E+03 0.  0.
          5    1    3    3  502    0 -0.36755648430E+02 -0.12556994130E+02  0.13361756506E+03  0.13921128505E+03  0.41800000000E+01 0.  1.
         -5    1    3    3    0  502  0.79048568095E+02  0.16151888030E+02  0.93899169223E+02  0.12387124761E+03  0.41800000000E+01 0.  1.
        -11    1    1    2    0    0  0.14231970086E+02  0.31130422510E+02  0.88808217448E+02  0.95176423890E+02  0.00000000000E+00 0.  1.
         11    1    1    2    0    0 -0.56524889750E+02 -0.34725316411E+02  0.11140615048E+03  0.12966202654E+03  0.00000000000E+00 0. -1.
</event>
<event>
 7    1  0.2651429E-009  0.7138999E+02  0.7561462E-02  0.1355429E+00
          1   -1    0    0  501    0  0.00000000000E+00  0.00000000000E+00  0.84776996972E+02  0.84776996972E+02  0.00000000000E+00 0. -1.
         -1   -1    0    0    0  501 -0.00000000000E+00 -0.00000000000E+00 -0.17735714728E+03  0.17735714728E+03  0.00000000000E+00 0.  1.
         25    2    1    2    0    0  0.32205817385E+02 -0.43364507224E+02 -0.30742084883E+02  0.13967786324E+03  0.12508850681E+03 0.  0.
          5    1    3    3  502    0  0.33113009972E+02 -0.28419000383E+02 -0.78249593605E+02  0.89691595545E+02  0.41800000000E+01 0. -1.
         -5    1    3    3    0  502 -0.90719258700E+00 -0.14945506841E+02  0.47507508722E+02  0.49986267695E+02  0.41800000000E+01 0. -1.
        -11    1    1    2    0    0  0.10851684354E+02  0.38578759360E+02  0.74273380501E+01  0.40758374325E+02  0.00000000000E+00 0. -1.
         11    1    1    2    0    0 -0.43057501739E+02  0.47857478636E+01 -0.69265403478E+02  0.81697906691E+02  0.00000000000E+00 0.  1.
</event>
<event>
 7    1  0.2651429E-009  0.1084358E+03  0.7561462E-02  0.1263494E+00
         -1   -1    0    0    0  501 -0.00000000000E+00  0.00000000000E+00  0.38299738767E+02  0.38299738767E+02  0.00000000000E+00 0.  1.
          1   -1    0    0  501    0  0.00000000000E+00 -0.00000000000E+00 -0.39927841789E+03  0.39927841789E+03  0.00000000000E+00 0. -1.
         25    2    1    2    0    0  0.23926408649E+02 -0.40876183443E+02 -0.27008561439E+03  0.30139180469E+03  0.12508974951E+03 0.  0.
          5    1    3    3  502    0  0.31285668981E+02 -0.74436161075E+02 -0.10396086417E+03  0.13169991966E+03  0.41800000000E+01 0. -1.
         -5    1    3    3    0  502 -0.73592603328E+01  0.33559977632E+02 -0.16612475022E+03  0.16969188503E+03  0.41800000000E+01 0. -1.
        -11    1    1    2    0    0  0.34432429910E+02  0.16043545697E+02 -0.33293355215E+02  0.50511732197E+02  0.00000000000E+00 0.  1.
         11    1    1    2    0    0 -0.58358838559E+02  0.24832637745E+02 -0.57599709517E+02  0.85674619764E+02  0.00000000000E+00 0. -1.
</event>
<event>
 7    1  0.2651429E-009  0.6802642E+02  0.7561462E-02  0.1366936E+00
         -2   -1    0    0    0  501 -0.00000000000E+00  0.00000000000E+00  0.15225743107E+03  0.15225743107E+03  0.00000000000E+00 0. -1.
          2   -1    0    0  501    0  0.00000000000E+00 -0.00000000000E+00 -0.10567665514E+03  0.10567665514E+03  0.00000000000E+00 0.  1.
         25    2    1    2    0    0  0.45559385645E+02  0.44222914204E+02  0.30008119892E+01  0.14031340576E+03  0.12509006037E+03 0.  0.
          5    1    3    3  502    0  0.38498098591E+02  0.16241819846E+02  0.61779139119E+02  0.74699630101E+02  0.41800000000E+01 0.  1.
         -5    1    3    3    0  502  0.70612870545E+01  0.27981094358E+02 -0.58778327130E+02  0.65613775661E+02  0.41800000000E+01 0.  1.
        -11    1    1    2    0    0 -0.16197979664E+02 -0.25060384784E+02 -0.26082843162E+02  0.39632210866E+02  0.00000000000E+00 0.  1.
         11    1    1    2    0    0 -0.29361405981E+02 -0.19162529420E+02  0.69662807101E+02  0.77988469585E+02  0.00000000000E+00 0. -1.
</event>
<event>
 6    1  0.2651429E-009  0.9767565E+02  0.7561462E-02  0.1285261E+00
         -2   -1    0    0    0  501 -0.00000000000E+00  0.00000000000E+00  0.11410110084E+03  0.11410110084E+03  0.00000000000E+00 0. -1.
          2   -1    0    0  501    0  0.00000000000E+00 -0.00000000000E+00 -0.12990189008E+03  0.12990189008E+03  0.00000000000E+00 0.  1.
          5    1    1    2  502    0 -0.19662603989E+02  0.61033539921E+02 -0.16714986800E+02  0.66397094625E+02  0.41800000000E+01 0.  1.
         -5    1    1    2    0  502  0.17268706987E+02 -0.32792465223E+02  0.56730841933E+02  0.67892671495E+02  0.41800000000E+01 0.  1.
        -11    1    1    2    0    0 -0.19229875303E+02  0.27757341195E+02 -0.26409884903E+02  0.42868871165E+02  0.00000000000E+00 0.  1.
         11    1    1    2    0    0  0.21623772305E+02 -0.55998415893E+02 -0.29406759464E+02  0.66844353639E+02  0.00000000000E+00 0. -1.
</event>
<event>
 7    1  0.2651429E-009  0.1106999E+03  0.7561462E-02  0.1259279E+00
          2   -1    0    0  501    0  0.00000000000E+00  0.00000000000E+00  0.46154224360E+03  0.46154224360E+03  0.00000000000E+00 0. -1.
         -2   -1    0    0    0  501 -0.00000000000E+00 -0.00000000000E+00 -0.32583166195E+02  0.32583166195E+02  0.00000000000E+00 0.  1.
         25    2    1    2    0    0 -0.36603879583E+02  0.35310990857E+02  0.29032814927E+03  0.32019422063E+03  0.12508874686E+03 0.  0.
          5    1    3    3  502    0  0.38167677931E+02 -0.71609308076E+01  0.41948152808E+02  0.57316406837E+02  0.41800000000E+01 0.  1.
         -5    1    3    3    0  502 -0.74771557514E+02  0.42471921665E+02  0.24837999646E+03  0.26287781379E+03  0.41800000000E+01 0.  1.
        -11    1    1    2    0    0  0.44159438283E+02 -0.57676824720E+02  0.12976588892E+03  0.14871401423E+03  0.00000000000E+00 0.  1.
         11    1    1    2    0    0 -0.75555587006E+01  0.22365833863E+02  0.88650392127E+01  0.25217174939E+02  0.00000000000E+00 0. -1.
</event>
<event>
 7    1  0.2651429E-009  0.7292586E+02  0.7561462E-02  0.1350417E+00
          2   -1    0    0  501    0  0.00000000000E+00  0.00000000000E+00  0.56218839202E+03  0.56218839202E+03  0.00000000000E+00 0. -1.
         -2   -1    0    0    0  501 -0.00000000000E+00 -0.00000000000E+00 -0.25525863530E+02  0.25525863530E+02  0.00000000000E+00 0.  1.
         25    2    1    2    0    0 -0.28423377496E+02 -0.18982500094E+02  0.29991950655E+03  0.32675464706E+03  0.12509462526E+03 0.  0.
          5    1    3    3  502    0 -0.18841966167E+02 -0.79202467097E+01  0.30855233067E+03  0.30925679161E+03  0.41800000000E+01 0.  1.
         -5    1    3    3    0  502 -0.95814113287E+01 -0.11062253384E+02 -0.86328241209E+01  0.17497855448E+02  0.41800000000E+01 0.  1.
        -11    1    1    2    0    0  0.68042212295E+02  0.71235545249E+01  0.14545911148E+03  0.16074464468E+03  0.00000000000E+00 0. -1.
         11    1    1    2    0    0 -0.39618834799E+02  0.11858945569E+02  0.91283910466E+02  0.10021496381E+03  0.00000000000E+00 0.  1.
</event>
<event>
 7    1  0.2651429E-009  0.1035099E+03  0.7561462E-02  0.1273084E+00
         -2   -1    0    0    0  501 -0.00000000000E+00  0.00000000000E+00  0.23513326989E+02  0.23513326989E+02  0.00000000000E+00 0.  1.
          2   -1    0    0  501    0  0.00000000000E+00 -0.00000000000E+00 -0.72752378496E+03  0.72752378496E+03  0.00000000000E+00 0. -1.
         25    2    1    2    0    0 -0.19767992299E+02  0.69653166301E+02 -0.40304401998E+03  0.42817588778E+03  0.12509105381E+03 0.  0.
          5    1    3    3  502    0 -0.29236971348E+01  0.72518512026E+02 -0.94971455747E+02  0.11960155684E+03  0.41800000000E+01 0. -1.
         -5    1    3    3    0  502 -0.16844295164E+02 -0.28653457251E+01 -0.30807256423E+03  0.30857433095E+03  0.41800000000E+01 0. -1.
        -11    1    1    2    0    0 -0.31239936908E+02 -0.10677163066E+01 -0.73811466024E+02  0.80157383894E+02  0.00000000000E+00 0.  1.
         11    1    1    2    0    0  0.51007929206E+02 -0.68585449994E+02 -0.22715497197E+03  0.24270384027E+03  0.00000000000E+00 0. -1.
</event>
<event>
 7    1  0.2651429E-009  0.1658336E+03  0.7561462E-02  0.1182264E+00
         -2   -1    0    0    0  501 -0.00000000000E+00  0.00000000000E+00  0.39931174426E+02  0.39931174426E+02  0.00000000000E+00 0.  1.
          2   -1    0    0  501    0  0.00000000000E+00 -0.00000000000E+00 -0.10082250289E+04  0.10082250289E+04  0.00000000000E+00 0. -1.
         25    2    1    2    0    0  0.11339730611E+03  0.74543751829E+02 -0.24736896942E+03  0.30863420414E+03  0.12509174616E+03 0.  0.
          5    1    3    3  502    0  0.80715509044E+02 -0.97301763400E+01 -0.61895149110E+02  0.10226510458E+03  0.41800000000E+01 0. -1.
         -5    1    3    3    0  502  0.32681797070E+02  0.84273928169E+02 -0.18547382031E+03  0.20636909955E+03  0.41800000000E+01 0. -1.
        -11    1    1    2    0    0  0.12412124731E+02 -0.17946099059E+02 -0.49886179216E+02  0.54449556367E+02  0.00000000000E+00 0. -1.
         11    1    1    2    0    0 -0.12580943084E+03 -0.56597652770E+02 -0.67103870583E+03  0.68507244282E+03  0.00000000000E+00 0.  1.
</event>
<event>
 7    1  0.2651429E-009  0.8103590E+02  0.7561462E-02  0.1326137E+00
          1   -1    0    0  501    0  0.00000000000E+00  0.00000000000E+00  0.51802532329E+03  0.51802532329E+03  0.00000000000E+00 0. -1.
         -1   -1    0    0    0  501 -0.00000000000E+00 -0.00000000000E+00 -0.30531662358E+02  0.30531662358E+02  0.00000000000E+00 0.  1.
         25    2    1    2    0    0 -0.14818801978E+02 -0.44998649726E+02  0.17503988142E+03  0.22029727317E+03  0.12508978019E+03 0.  0.
          5    1    3    3  502    0  0.29104328987E+02 -0.83398900538E+01 -0.53310515457E+01  0.31024316954E+02  0.41800000000E+01 0. -1.
         -5    1    3    3    0  502 -0.43923130965E+02 -0.36658759672E+02  0.18037093297E+03  0.18927295622E+03  0.41800000000E+01 0. -1.
        -11    1    1    2    0    0 -0.17880442740E+02 -0.76864397248E+00  0.97623465846E+01  0.20386379202E+02  0.00000000000E+00 0.  1.
         11    1    1    2    0    0  0.32699244718E+02  0.45767293698E+02  0.30269143293E+03  0.30787333328E+03  0.00000000000E+00 0. -1.
</event>
<event>
 7    1  0.2651429E-009  0.6268643E+02  0.7561462E-02  0.1386892E+00
         -2   -1    0    0    0  501 -0.00000000000E+00  0.00000000000E+00  0.16389467414E+02  0.16389467414E+02  0.00000000000E+00 0.  1.
          2   -1    0    0  501    0  0.00000000000E+00 -0.00000000000E+00 -0.89537603992E+03  0.89537603992E+03  0.00000000000E+00 0. -1.
         25    2    1    2    0    0 -0.50474567541E+01  0.18765828294E+01 -0.72614336846E+03  0.73685876719E+03  0.12509057854E+03 0.  0.
          5    1    3    3  502    0 -0.11450231409E+02  0.18481819709E+02 -0.18146982115E+02  0.28626400733E+02  0.41800000000E+01 0. -1.
         -5    1    3    3    0  502  0.64027746550E+01 -0.16605236879E+02 -0.70799638635E+03  0.70823236645E+03  0.41800000000E+01 0. -1.
        -11    1    1    2    0    0 -0.37937680488E+02  0.11987501957E+02 -0.67690520159E+02  0.78517350460E+02  0.00000000000E+00 0.  1.
         11    1    1    2    0    0  0.42985137242E+02 -0.13864084786E+02 -0.85152683886E+02  0.96389389684E+02  0.00000000000E+00 0. -1.
</event>
<event>
 7    1  0.2651429E-009  0.9448102E+02  0.7561462E-02  0.1292349E+00
          2   -1    0    0  501    0  0.00000000000E+00  0.00000000000E+00  0.87221756682E+02  0.87221756682E+02  0.00000000000E+00 0. -1.
         -2   -1    0    0    0  501 -0.00000000000E+00 -0.00000000000E+00 -0.20320703966E+03  0.20320703966E+03  0.00000000000E+00 0.  1.
         25    2    1    2    0    0  0.46183537117E+02 -0.29244220179E+02 -0.12151541337E+02  0.13706023175E+03  0.12509877560E+03 0.  0.
          5    1    3    3  502    0  0.47091569913E+02  0.64226688376E+01 -0.60360194451E+02  0.76939535390E+02  0.41800000000E+01 0. -1.
         -5    1    3    3    0  502 -0.90803279590E+00 -0.35666889017E+02  0.48208653114E+02  0.60120696360E+02  0.41800000000E+01 0. -1.
        -11    1    1    2    0    0 -0.31369135207E+02  0.61941505105E+02 -0.39988962742E+02  0.80124215063E+02  0.00000000000E+00 0. -1.
         11    1    1    2    0    0 -0.14814401911E+02 -0.32697284926E+02 -0.63844778900E+02  0.73244349532E+02  0.00000000000E+00 0.  1.
</event>
<event>
 6    1  0.2651429E-009  0.1323014E+03  0.7561462E-02  0.1224080E+00
          4   -1    0    0  501    0  0.00000000000E+00  0.00000000000E+00  0.10031548385E+04  0.10031548385E+04  0.00000000000E+00 0. -1.
         -4   -1    0    0    0  501 -0.00000000000E+00 -0.00000000000E+00 -0.35617467600E+02  0.35617467600E+02  0.00000000000E+00 0.  1.
          5    1    1    2  502    0  0.46678072889E+00 -0.11291872982E+03  0.40571098211E+03  0.42115285922E+03  0.41800000000E+01 0.  1.
         -5    1    1    2    0  502  0.12713668955E+02  0.11479706383E+02  0.41838404667E+03  0.41875542259E+03  0.41800000000E+01 0.  1.
        -11    1    1    2    0    0 -0.47762170281E+02  0.35478494208E+02  0.41190003641E+02  0.72364113075E+02  0.00000000000E+00 0. -1.
         11    1    1    2    0    0  0.34581720598E+02  0.65960529226E+02  0.10225233852E+03  0.12649991126E+03  0.00000000000E+00 0.  1.
</event>
<event>
 7    1  0.2651429E-009  0.1639408E+03  0.7561462E-02  0.1184318E+00
         -2   -1    0    0    0  501 -0.00000000000E+00  0.00000000000E+00  0.57274598053E+03  0.57274598053E+03  0.00000000000E+00 0.  1.
          2   -1    0    0  501    0  0.00000000000E+00 -0.00000000000E+00 -0.74991776264E+02  0.74991776264E+02  0.00000000000E+00 0. -1.
         25    2    1    2    0    0 -0.11906037844E+03 -0.92899610055E+02  0.40056601730E+03  0.44598972562E+03  0.12509192571E+03 0.  0.
          5    1    3    3  502    0 -0.99080056124E+02 -0.47447398912E+02  0.12721415915E+03  0.16813395812E+03  0.41800000000E+01 0.  1.
         -5    1    3    3    0  502 -0.19980322321E+02 -0.45452211143E+02  0.27335185815E+03  0.27785576750E+03  0.41800000000E+01 0.  1.
        -11    1    1    2    0    0 -0.36572995320E+01  0.30001796615E+02  0.45204199870E+02  0.54377415587E+02  0.00000000000E+00 0.  1.
         11    1    1    2    0    0  0.12271767798E+03  0.62897813440E+02  0.51983987088E+02  0.14737061558E+03  0.00000000000E+00 0. -1.
</event>
<event>
 7    1  0.2651429E-009  0.9077558E+02  0.7561462E-02  0.1300984E+00
         -2   -1    0    0    0  501 -0.00000000000E+00  0.00000000000E+00  0.46533871404E+02  0.46533871404E+02  0.00000000000E+00 0.  1.
          2   -1    0    0  501    0  0.00000000000E+00 -0.00000000000E+00 -0.55956944849E+03  0.55956944849E+03  0.00000000000E+00 0. -1.
         25    2    1    2    0    0 -0.35105440696E+02  0.55658291743E+02 -0.46071700493E+03  0.48191074470E+03  0.12509024667E+03 0.  0.
          5    1    3    3  502    0 -0.18290940112E+01  0.47967167550E+02 -0.48870521256E+02  0.68629403286E+02  0.41800000000E+01 0.  1.
         -5    1    3    3    0  502 -0.33276346685E+02  0.76911241932E+01 -0.41184648368E+03  0.41328134141E+03  0.41800000000E+01 0.  1.
        -11    1    1    2    0    0  0.58438131137E+02 -0.38161403213E+02 -0.67902956115E+01  0.70124289519E+02  0.00000000000E+00 0.  1.
         11    1    1    2    0    0 -0.23332690441E+02 -0.17496888530E+02 -0.45528276541E+02  0.54068285679E+02  0.00000000000E+00 0. -1.
</event>
<event>
 7    1  0.2651429E-009  0.9290777E+02  0.7561462E-02  0.1295959E+00
          2   -1    0    0  501    0  0.00000000000E+00  0.00000000000E+00  0.11115380592E+03  0.11115380592E+03  0.00000000000E+00 0. -1.
         -2   -1    0    0    0  501 -0.00000000000E+00 -0.00000000000E+00 -0.12039286918E+03  0.12039286918E+03  0.00000000000E+00 0.  1.
         25    2    1    2    0    0 -0.26069004439E+02  0.30357137915E+02 -0.27836246239E+02  0.13427000956E+03  0.12510967208E+03 0.  0.
          5    1    3    3  502    0 -0.46068416240E+02 -0.34062648152E+02 -0.33415730821E+02  0.66457854617E+02  0.41800000000E+01 0.  1.
         -5    1    3    3    0  502  0.19999411802E+02  0.64419786067E+02  0.55794845825E+01  0.67812154940E+02  0.41800000000E+01 0.  1.
        -11    1    1    2    0    0  0.38950957591E+02 -0.17898787211E+02  0.47050702861E+02  0.63649920036E+02  0.00000000000E+00 0. -1.
         11    1    1    2    0    0 -0.12881953153E+02 -0.12458350704E+02 -0.28453519887E+02  0.33626745505E+02  0.00000000000E+00 0.  1.
</event>
<event>
 7    1  0.2651429E-009  0.1180719E+03  0.7561462E-02  0.1246312E+00
          2   -1    0    0  501    0  0.00000000000E+00  0.00000000000E+00  0.10149511746E+04  0.10149511746E+04  0.00000000000E+00 0. -1.
         -2   -1    0    0    0  501 -0.00000000000E+00 -0.00000000000E+00 -0.17108305475E+02  0.17108305475E+02  0.00000000000E+00 0.  1.
         25    2    1    2    0    0 -0.43650216005E+02 -0.14279652186E+02  0.75787094352E+03  0.76949660637E+03  0.12508960935E+03 0.  0.
          5    1    3    3  502    0  0.43963033851E+02  0.11119782588E+00  0.23175358172E+03  0.23592362270E+03  0.41800000000E+01 0. -1.
         -5    1    3    3    0  502 -0.87613249856E+02 -0.14390850012E+02  0.52611736180E+03  0.53357298367E+03  0.41800000000E+01 0. -1.
        -11    1    1    2    0    0  0.65510834693E+02  0.33864662799E+02  0.19849406899E+03  0.21175075035E+03  0.00000000000E+00 0.  1.
         11    1    1    2    0    0 -0.21860618688E+02 -0.19585010613E+02  0.41477856615E+02  0.50812123352E+02  0.00000000000E+00 0. -1.
</event>
<event>
 7    1  0.2651429E-009  0.1070803E+03  0.7561462E-02  0.1266074E+00
         -2   -1    0    0    0  501 -0.00000000000E+00  0.00000000000E+00  0.69628453203E+03  0.69628453203E+03  0.00000000000E+00 0.  1.
          2   -1    0    0  501    0  0.00000000000E+00 -0.00000000000E+00 -0.18666796586E+02  0.18666796586E+02  0.00000000000E+00 0. -1.
         25    2    1    2    0    0 -0.11979448788E+02 -0.49689881086E+02  0.43604338051E+03  0.45650160422E+03  0.12508914220E+03 0.  0.
          5    1    3    3  502    0  0.42551143519E+02 -0.52988138273E+02  0.33203963451E+03  0.33894857117E+03  0.41800000000E+01 0. -1.
         -5    1    3    3    0  502 -0.54530592308E+02  0.32982571873E+01  0.10400374600E+03  0.11755303305E+03  0.41800000000E+01 0. -1.
        -11    1    1    2    0    0 -0.29498625121E+02  0.38161668194E+02  0.14197510709E+03  0.14994469926E+03  0.00000000000E+00 0.  1.
         11    1    1    2    0    0  0.41478073910E+02  0.11528212892E+02  0.99599247848E+02  0.10850502514E+03  0.00000000000E+00 0. -1.
</event>
<event>
 7    1  0.2651429E-009  0.2434299E+03  0.7561462E-02  0.1117529E+00
          2   -1    0    0  501    0  0.00000000000E+00  0.00000000000E+00  0.91581717267E+02  0.91581717267E+02  0.00000000000E+00 0. -1.
         -2   -1    0    0    0  501 -0.00000000000E+00 -0.00000000000E+00 -0.81354480601E+03  0.81354480601E+03  0.00000000000E+00 0.  1.
         25    2    1    2    0    0  0.23059974148E+03  0.16602903127E+02 -0.21129460143E+03  0.33726087585E+03  0.12509033784E+03 0.  0.
          5    1    3    3  502    0  0.97593944625E+02 -0.22862767815E+02 -0.22297808783E+02  0.10277134258E+03  0.41800000000E+01 0. -1.
         -5    1    3    3    0  502  0.13300579686E+03  0.39465670942E+02 -0.18899679264E+03  0.23448953326E+03  0.41800000000E+01 0. -1.
        -11    1    1    2    0    0 -0.21615738493E+03 -0.40399105487E+02 -0.43939310964E+03  0.49134754257E+03  0.00000000000E+00 0.  1.
         11    1    1    2    0    0 -0.14442356549E+02  0.23796202360E+02 -0.71275377670E+02  0.76518104861E+02  0.00000000000E+00 0. -1.
</event>
<event>
 7    1  0.2651429E-009  0.9307920E+02  0.7561462E-02  0.1295562E+00
          1   -1    0    0  501    0  0.00000000000E+00  0.00000000000E+00  0.12515185361E+03  0.12515185361E+03  0.00000000000E+00 0. -1.
         -1   -1    0    0    0  501 -0.00000000000E+00 -0.00000000000E+00 -0.99866177453E+02  0.99866177453E+02  0.00000000000E+00 0.  1.
         25    2    1    2    0    0 -0.31565613448E+02 -0.75122313417E+01  0.86335976284E+01  0.12951788476E+03  0.12509005513E+03 0.  0.
          5    1    3    3  502    0 -0.43686803637E+02  0.29837688783E+02 -0.40301113069E+02  0.66636901177E+02  0.41800000000E+01 0.  1.
         -5    1    3    3    0  502  0.12121190188E+02 -0.37349920124E+02  0.48934710698E+02  0.62880983580E+02  0.41800000000E+01 0.  1.
        -11    1    1    2    0    0  0.54722565550E+02  0.29067582448E+02  0.15350782416E+02  0.63836745300E+02  0.00000000000E+00 0.  1.
         11    1    1    2    0    0 -0.23156952102E+02 -0.21555351106E+02  0.13012961170E+01  0.31663401010E+02  0.00000000000E+00 0. -1.
</event>
<event>
 7    1  0.2651429E-009  0.1045181E+03  0.7561462E-02  0.1271072E+00
          2   -1    0    0  501    0  0.00000000000E+00  0.00000000000E+00  0.25959657745E+03  0.25959657745E+03  0.00000000000E+00 0. -1.
         -2   -1    0    0    0  501 -0.00000000000E+00 -0.00000000000E+00 -0.55282274433E+02  0.55282274433E+02  0.00000000000E+00 0.  1.
         25    2    1    2    0    0  0.46194405166E+02 -0.19600107494E+02  0.13797828880E+03  0.19287782920E+03  0.12508301857E+03 0.  0.
          5    1    3    3  502    0 -0.26319938431E+02 -0.35439239902E+02  0.10915712072E+02  0.45665129518E+02  0.41800000000E+01 0. -1.
         -5    1    3    3    0  502  0.72514343597E+02  0.15839132408E+02  0.12706257673E+03  0.14721269968E+03  0.41800000000E+01 0. -1.
        -11    1    1    2    0    0 -0.61281866774E+02 -0.50101781218E+01  0.15291320304E+02  0.63359242078E+02  0.00000000000E+00 0.  1.
         11    1    1    2    0    0  0.15087461608E+02  0.24610285616E+02  0.51044693907E+02  0.58641780599E+02  0.00000000000E+00 0. -1.
</event>
<event>
 7    1  0.2651429E-009  0.1262922E+03  0.7561462E-02  0.1233064E+00
         -2   -1    0    0    0  501 -0.00000000000E+00  0.00000000000E+00  0.17740422141E+02  0.17740422141E+02  0.00000000000E+00 0.  1.
          2   -1    0    0  501    0  0.00000000000E+00 -0.00000000000E+00 -0.94246323411E+03  0.94246323411E+03  0.00000000000E+00 0. -1.
         25    2    1    2    0    0  0.16041402138E+02  0.66749753360E+02 -0.44693229176E+03  0.46915813417E+03  0.12509206721E+03 0.  0.
          5    1    3    3  502    0 -0.50626710352E+02  0.48204754349E+02 -0.27496915404E+03  0.28374684178E+03  0.41800000000E+01 0. -1.
         -5    1    3    3    0  502  0.66668112490E+02  0.18544999011E+02 -0.17196313772E+03  0.18541129239E+03  0.41800000000E+01 0. -1.
        -11    1    1    2    0    0 -0.13288519501E+02 -0.89414848412E+02 -0.37320064802E+03  0.38399260872E+03  0.00000000000E+00 0.  1.
         11    1    1    2    0    0 -0.27528826371E+01  0.22665095051E+02 -0.10458987219E+03  0.10705291337E+03  0.00000000000E+00 0. -1.
</event>
<event>
 7    1  0.2651429E-009  0.8362558E+02  0.7561462E-02  0.1319066E+00
         -2   -1    0    0    0  501 -0.00000000000E+00  0.00000000000E+00  0.59272784879E+02  0.59272784879E+02  0.00000000000E+00 0.  1.
          2   -1    0    0  501    0  0.00000000000E+00 -0.00000000000E+00 -0.20989513612E+03  0.20989513612E+03  0.00000000000E+00 0. -1.
         25    2    1    2    0    0  0.26528293086E+01  0.20452224886E+02 -0.10230003823E+03  0.16290425129E+03  0.12508863362E+03 0.  0.
          5    1    3    3  502    0 -0.52790463405E+02  0.10657868931E+02 -0.90242746000E+02  0.10517437332E+03  0.41800000000E+01 0.  1.
         -5    1    3    3    0  502  0.55443292713E+02  0.97943559558E+01 -0.12057292228E+02  0.57729877978E+02  0.41800000000E+01 0.  1.
        -11    1    1    2    0    0  0.90116631777E+01 -0.36129402660E+02  0.14887691056E+02  0.40102208851E+02  0.00000000000E+00 0.  1.
         11    1    1    2    0    0 -0.11664492486E+02  0.15677177773E+02 -0.63210004065E+02  0.66161460850E+02  0.00000000000E+00 0. -1.
</event>
<event>
 7    1  0.2800901E-009  0.9903507E+02  0.7561462E-02  0.1282338E+00
         -1   -1    0    0    0  501 -0.00000000000E+00  0.00000000000E+00  0.12156751779E+02  0.12156751779E+02  0.00000000000E+00 0. -1.
          1   -1    0    0  501    0  0.00000000000E+00 -0.00000000000E+00 -0.16986726391E+04  0.16986726391E+04  0.00000000000E+00 0.  1.
         25    2    1    2    0    0 -0.63493378079E+00 -0.46407007189E+02 -0.14037539116E+04  0.14100807242E+04  0.12509432855E+03 0.  0.
          5    1    3    3  502    0 -0.37892922603E+02 -0.25166967132E+01 -0.11128233888E+04  0.11134790409E+04  0.41800000000E+01 0. -1.
         -5    1    3    3    0  502  0.37257988823E+02 -0.43890310476E+02 -0.29093052280E+03  0.29660168338E+03  0.41800000000E+01 0. -1.
        -11    1    1    2    0    0  0.41273272245E+02  0.11126233437E+01 -0.12586538171E+03  0.13246439237E+03  0.00000000000E+00 0.  1.
         11    1    1    2    0    0 -0.40638338464E+02  0.45294383845E+02 -0.15689659404E+03  0.16828427432E+03  0.00000000000E+00 0. -1.
</event>
<event>
 7    1  0.2651429E-009  0.1203651E+03  0.7561462E-02  0.1242496E+00
         -1   -1    0    0    0  501 -0.00000000000E+00  0.00000000000E+00  0.56690541623E+02  0.56690541623E+02  0.00000000000E+00 0.  1.
          1   -1    0    0  501    0  0.00000000000E+00 -0.00000000000E+00 -0.63568574143E+03  0.63568574143E+03  0.00000000000E+00 0. -1.
         25    2    1    2    0    0 -0.10001781901E+03  0.13223121739E+02 -0.51863490140E+03  0.54296226249E+03  0.12508973765E+03 0.  0.
          5    1    3    3  502    0 -0.55220935262E+02 -0.47958849909E+01 -0.60067697042E+02  0.81841021695E+02  0.41800000000E+01 0. -1.
         -5    1    3    3    0  502 -0.44796883751E+02  0.18019006730E+02 -0.45856720436E+03  0.46112124080E+03  0.41800000000E+01 0. -1.
        -11    1    1    2    0    0  0.19706203905E+02 -0.45917071081E+02 -0.21833493609E+02  0.54529013674E+02  0.00000000000E+00 0.  1.
         11    1    1    2    0    0  0.80311615108E+02  0.32693949342E+02 -0.38526804797E+02  0.94885006891E+02  0.00000000000E+00 0. -1.
</event>
<event>
 7    1  0.2651429E-009  0.1452075E+03  0.7561462E-02  0.1206489E+00
         -1   -1    0    0    0  501 -0.00000000000E+00  0.00000000000E+00  0.15549601752E+03  0.15549601752E+03  0.00000000000E+00 0.  1.
          1   -1    0    0  501    0  0.00000000000E+00 -0.00000000000E+00 -0.18024302960E+03  0.18024302960E+03  0.00000000000E+00 0. -1.
         25    2    1    2    0    0  0.12567642774E+03  0.53703369232E+02 -0.43007387091E+02  0.19019900816E+03  0.12508961190E+03 0.  0.
          5    1    3    3  502    0  0.21123275527E+02  0.32932444207E+02 -0.69872756185E+02  0.80189856636E+02  0.41800000000E+01 0.  1.
         -5    1    3    3    0  502  0.10455315221E+03  0.20770925026E+02  0.26865369094E+02  0.11000915153E+03  0.41800000000E+01 0.  1.
        -11    1    1    2    0    0 -0.71283189484E+02 -0.51348138254E+01  0.92622902876E+01  0.72065591216E+02  0.00000000000E+00 0. -1.
         11    1    1    2    0    0 -0.54393238253E+02 -0.48568555407E+02  0.89980847284E+01  0.73474447741E+02  0.00000000000E+00 0.  1.
</event>
<event>
 7    1  0.2731692E-009  0.6436464E+02  0.7561462E-02  0.1380378E+00
          1   -1    0    0  501    0  0.00000000000E+00  0.00000000000E+00  0.20282686082E+03  0.20282686082E+03  0.00000000000E+00 0. -1.
         -1   -1    0    0    0  501 -0.00000000000E+00 -0.00000000000E+00 -0.77061185276E+02  0.77061185276E+02  0.00000000000E+00 0.  1.
         25    2    1    2    0    0  0.42542346267E+01 -0.48900908704E+02  0.26321875707E+02  0.13692899610E+03  0.12508921395E+03 0.  0.
          5    1    3    3  502    0 -0.61857656629E+01 -0.75408940107E+00  0.70335105321E+02  0.70734233495E+02  0.41800000000E+01 0.  1.
         -5    1    3    3    0  502  0.10440000290E+02 -0.48146819303E+02 -0.44013229613E+02  0.66194762603E+02  0.41800000000E+01 0.  1.
        -11    1    1    2    0    0 -0.26442088754E+02  0.12724778449E+02 -0.54131487028E+01  0.29839675319E+02  0.00000000000E+00 0.  1.
         11    1    1    2    0    0  0.22187854128E+02  0.36176130256E+02  0.10485694854E+03  0.11311937468E+03  0.00000000000E+00 0. -1.
</event>
<event>
 7    1  0.2651429E-009  0.2070188E+03  0.7561462E-02  0.1143949E+00
         -1   -1    0    0    0  501 -0.00000000000E+00  0.00000000000E+00  0.87951936862E+02  0.87951936862E+02  0.00000000000E+00 0.  1.
          1   -1    0    0  501    0  0.00000000000E+00 -0.00000000000E+00 -0.54219615852E+03  0.54219615852E+03  0.00000000000E+00 0. -1.
         25    2    1    2    0    0 -0.16728594872E+03  0.82070935804E+02 -0.19536769874E+03  0.29754992689E+03  0.12508874505E+03 0.  0.
          5    1    3    3  502    0 -0.18747015660E+03  0.74525680628E+02 -0.16872583421E+03  0.26303044733E+03  0.41800000000E+01 0. -1.
         -5    1    3    3    0  502  0.20184207886E+02  0.75452551766E+01 -0.26641864530E+02  0.34519479563E+02  0.41800000000E+01 0. -1.
        -11    1    1    2    0    0  0.69595962424E+02 -0.13352019969E+02 -0.35419994758E+02  0.79224052229E+02  0.00000000000E+00 0.  1.
         11    1    1    2    0    0  0.97689986295E+02 -0.68718915835E+02 -0.22345652815E+03  0.25337411626E+03  0.00000000000E+00 0. -1.
</event>
<event>
 7    1  0.2651429E-009  0.1712001E+03  0.7561462E-02  0.1176602E+00
          4   -1    0    0  501    0  0.00000000000E+00  0.00000000000E+00  0.48287389413E+02  0.48287389413E+02  0.00000000000E+00 0. -1.
         -4   -1    0    0    0  501 -0.00000000000E+00 -0.00000000000E+00 -0.80541138408E+03  0.80541138408E+03  0.00000000000E+00 0.  1.
         25    2    1    2    0    0 -0.86597976710E+02 -0.11106146861E+03 -0.21322593254E+03  0.28450776978E+03  0.12508202660E+03 0.  0.
          5    1    3    3  502    0 -0.61886368892E+02 -0.49867023317E+00 -0.29658923998E+02  0.68755330698E+02  0.41800000000E+01 0.  1.
         -5    1    3    3    0  502 -0.24711607819E+02 -0.11056279838E+03 -0.18356700854E+03  0.21575243908E+03  0.41800000000E+01 0.  1.
        -11    1    1    2    0    0  0.85046782271E+02  0.36703358557E+02 -0.32875447278E+03  0.34155467362E+03  0.00000000000E+00 0. -1.
         11    1    1    2    0    0  0.15511944392E+01  0.74358110057E+02 -0.21514358935E+03  0.22763633009E+03  0.00000000000E+00 0.  1.
</event>
<event>
 7    1  0.2651429E-009  0.9767024E+02  0.7561462E-02  0.1285273E+00
         -2   -1    0    0    0  501 -0.00000000000E+00  0.00000000000E+00  0.16866611570E+03  0.16866611570E+03  0.00000000000E+00 0.  1.
          2   -1    0    0  501    0  0.00000000000E+00 -0.00000000000E+00 -0.87450121984E+02  0.87450121984E+02  0.00000000000E+00 0. -1.
         25    2    1    2    0    0  0.45715288482E+02 -0.87936842238E+01  0.76044098364E+02  0.15361348703E+03  0.12508869661E+03 0.  0.
          5    1    3    3  502    0  0.21714612845E+01 -0.62897698020E+02  0.44677291808E+02  0.77294038992E+02  0.41800000000E+01 0.  1.
         -5    1    3    3    0  502  0.43543827197E+02  0.54104013797E+02  0.31366806557E+02  0.76319448042E+02  0.41800000000E+01 0.  1.
        -11    1    1    2    0    0 -0.38526421062E+02  0.24334375285E+02  0.41947825827E+02  0.61935991410E+02  0.00000000000E+00 0.  1.
         11    1    1    2    0    0 -0.71888674199E+01 -0.15540691061E+02 -0.36775930472E+02  0.40566759243E+02  0.00000000000E+00 0. -1.
</event>
<event>
 7    1  0.2651429E-009  0.1150130E+03  0.7561462E-02  0.1251558E+00
         -1   -1    0    0    0  501 -0.00000000000E+00  0.00000000000E+00  0.76044653152E+03  0.76044653152E+03  0.00000000000E+00 0.  1.
          1   -1    0    0  501    0  0.00000000000E+00 -0.00000000000E+00 -0.22517458876E+02  0.22517458876E+02  0.00000000000E+00 0. -1.
         25    2    1    2    0    0  0.70027718216E+02 -0.10617297577E+02  0.35821526039E+03  0.38598463457E+03  0.12509739015E+03 0.  0.
          5    1    3    3  502    0 -0.27782225338E+02 -0.32916321805E+02  0.10228424019E+03  0.11106248007E+03  0.41800000000E+01 0.  1.
         -5    1    3    3    0  502  0.97809943554E+02  0.22299024229E+02  0.25593102019E+03  0.27492215450E+03  0.41800000000E+01 0.  1.
        -11    1    1    2    0    0 -0.17280234741E+02 -0.19135552880E+02  0.21180801857E+02  0.33367682929E+02  0.00000000000E+00 0. -1.
         11    1    1    2    0    0 -0.52747483475E+02  0.29752850457E+02  0.35853301040E+03  0.36361167290E+03  0.00000000000E+00 0.  1.
</event>
<event>
 7    1  0.2651429E-009  0.9701649E+02  0.7561462E-02  0.1286698E+00
          3   -1    0    0  501    0  0.00000000000E+00  0.00000000000E+00  0.79115341997E+02  0.79115341997E+02  0.00000000000E+00 0. -1.
         -3   -1    0    0    0  501 -0.00000000000E+00 -0.00000000000E+00 -0.18866587741E+03  0.18866587741E+03  0.00000000000E+00 0.  1.
         25    2    1    2    0    0 -0.43577277178E+02 -0.30234329977E+02 -0.44651600734E+02  0.14303078759E+03  0.12510374477E+03 0.  0.
          5    1    3    3  502    0 -0.23246385763E+02 -0.78168078384E+02 -0.15186522261E+02  0.83058688815E+02  0.41800000000E+01 0. -1.
         -5    1    3    3    0  502 -0.20330891414E+02  0.47933748407E+02 -0.29465078473E+02  0.59972098775E+02  0.41800000000E+01 0. -1.
        -11    1    1    2    0    0  0.10673512136E+02  0.24521517104E+02 -0.82692720772E+02  0.86909808026E+02  0.00000000000E+00 0.  1.
         11    1    1    2    0    0  0.32903765042E+02  0.57128128738E+01  0.17793786098E+02  0.37840623787E+02  0.00000000000E+00 0. -1.
</event>
<event>
 7    1  0.2751214E-009  0.1412909E+03  0.7561462E-02  0.1211602E+00
          2   -1    0    0  501    0  0.00000000000E+00  0.00000000000E+00  0.35451528236E+03  0.35451528236E+03  0.00000000000E+00 0. -1.
         -2   -1    0    0    0  501 -0.00000000000E+00 -0.00000000000E+00 -0.11124475570E+03  0.11124475570E+03  0.00000000000E+00 0.  1.
         25    2    1    2    0    0 -0.67207710321E+02 -0.81249037920E+02 -0.22964708180E+02  0.16521061648E+03  0.12509551345E+03 0.  0.
          5    1    3    3  502    0  0.18463537423E+00  0.31394324146E+02  0.11112711946E+01  0.31691402659E+02  0.41800000000E+01 0. -1.
         -5    1    3    3    0  502 -0.67392345696E+02 -0.11264336207E+03 -0.24075979375E+02  0.13351921382E+03  0.41800000000E+01 0. -1.
        -11    1    1    2    0    0  0.55536662767E+02  0.89468795064E+02  0.26620291982E+03  0.28627431027E+03  0.00000000000E+00 0. -1.
         11    1    1    2    0    0  0.11671047554E+02 -0.82197571436E+01  0.32315019391E-01  0.14275111305E+02  0.00000000000E+00 0.  1.
</event>
<event>
 7    1  0.2651429E-009  0.7792102E+02  0.7561462E-02  0.1335057E+00
         -1   -1    0    0    0  501 -0.00000000000E+00  0.00000000000E+00  0.11612547913E+03  0.11612547913E+03  0.00000000000E+00 0.  1.
          1   -1    0    0  501    0  0.00000000000E+00 -0.00000000000E+00 -0.10942471854E+03  0.10942471854E+03  0.00000000000E+00 0. -1.
         25    2    1    2    0    0 -0.18782285715E+02  0.48668836113E+01 -0.22089180934E+02  0.12850180320E+03  0.12509324802E+03 0.  0.
          5    1    3    3  502    0  0.36867266848E+02  0.25993581422E+02 -0.45681194645E+02  0.64335881001E+02  0.41800000000E+01 0. -1.
         -5    1    3    3    0  502 -0.55649552564E+02 -0.21126697811E+02  0.23592013712E+02  0.64165922201E+02  0.41800000000E+01 0. -1.
        -11    1    1    2    0    0  0.29694821010E+02 -0.17266760603E+02  0.55719411893E+02  0.65456674818E+02  0.00000000000E+00 0.  1.
         11    1    1    2    0    0 -0.10912535294E+02  0.12399876992E+02 -0.26929470374E+02  0.31591719652E+02  0.00000000000E+00 0. -1.
</event>
<event>
 7    1  0.2651429E-009  0.9450837E+02  0.7561462E-02  0.1292287E+00
         -1   -1    0    0    0  501 -0.00000000000E+00  0.00000000000E+00  0.32135919089E+03  0.32135919089E+03  0.00000000000E+00 0. -1.
          1   -1    0    0  501    0  0.00000000000E+00 -0.00000000000E+00 -0.39349008566E+02  0.39349008566E+02  0.00000000000E+00 0.  1.
         25    2    1    2    0    0 -0.17027607001E+02 -0.10724950970E+02  0.11967512512E+03  0.17428626384E+03  0.12509437325E+03 0.  0.
          5    1    3    3  502    0  0.46028572062E+02 -0.36023541091E+02  0.57369813804E+02  0.82006663721E+02  0.41800000000E+01 0.  1.
         -5    1    3    3    0  502 -0.63056179063E+02  0.25298590120E+02  0.62305311315E+02  0.92279600120E+02  0.41800000000E+01 0.  1.
        -11    1    1    2    0    0  0.12614680455E+02 -0.24122626255E+02  0.83388221589E+01  0.28470462157E+02  0.00000000000E+00 0.  1.
         11    1    1    2    0    0  0.44129265460E+01  0.34847577225E+02  0.15399623505E+03  0.15795147346E+03  0.00000000000E+00 0. -1.
</event>
<event>
 7    1  0.2651429E-009  0.9694810E+02  0.7561462E-02  0.1286848E+00
          1   -1    0    0  501    0  0.00000000000E+00  0.00000000000E+00  0.33318069898E+03  0.33318069898E+03  0.00000000000E+00 0. -1.
         -1   -1    0    0    0  501 -0.00000000000E+00 -0.00000000000E+00 -0.37126700543E+02  0.37126700543E+02  0.00000000000E+00 0.  1.
         25    2    1    2    0    0 -0.15406674513E+02  0.19350195314E+02  0.19745601974E+03  0.23504908461E+03  0.12508955498E+03 0.  0.
          5    1    3    3  502    0  0.26893964632E+02 -0.40692357002E+02  0.11236365155E+03  0.12256514938E+03  0.41800000000E+01 0.  1.
         -5    1    3    3    0  502 -0.42300639145E+02  0.60042552316E+02  0.85092368191E+02  0.11248393523E+03  0.41800000000E+01 0.  1.
        -11    1    1    2    0    0  0.31764167949E+02 -0.36016706044E+02  0.10094737129E+03  0.11178791191E+03  0.00000000000E+00 0. -1.
         11    1    1    2    0    0 -0.16357493436E+02  0.16666510730E+02 -0.23493925957E+01  0.23470403000E+02  0.00000000000E+00 0.  1.
</event>
<event>
 7    1  0.2651429E-009  0.3440898E+03  0.7561462E-02  0.1065067E+00
         -2   -1    0    0    0  501 -0.00000000000E+00  0.00000000000E+00  0.54132224228E+02  0.54132224228E+02  0.00000000000E+00 0.  1.
          2   -1    0    0  501    0  0.00000000000E+00 -0.00000000000E+00 -0.23814981082E+04  0.23814981082E+04  0.00000000000E+00 0. -1.
         25    2    1    2    0    0 -0.32238752453E+03 -0.93801242436E+02 -0.96390757991E+03  0.10283471741E+04  0.12509076238E+03 0.  0.
          5    1    3    3  502    0 -0.25770210152E+03 -0.52976661126E+02 -0.85934564179E+03  0.89872649022E+03  0.41800000000E+01 0. -1.
         -5    1    3    3    0  502 -0.64685423010E+02 -0.40824581310E+02 -0.10456193812E+03  0.12962068389E+03  0.41800000000E+01 0. -1.
        -11    1    1    2    0    0  0.10889024783E+03 -0.13116560792E+02 -0.43502849494E+03  0.44864119477E+03  0.00000000000E+00 0. -1.
         11    1    1    2    0    0  0.21349727670E+03  0.10691780323E+03 -0.92842980917E+03  0.95864196359E+03  0.00000000000E+00 0.  1.
</event>
<event>
 7    1  0.2651429E-009  0.1244132E+03  0.7561462E-02  0.1235989E+00
          2   -1    0    0  501    0  0.00000000000E+00  0.00000000000E+00  0.77605024153E+02  0.77605024153E+02  0.00000000000E+00 0. -1.
         -2   -1    0    0    0  501 -0.00000000000E+00 -0.00000000000E+00 -0.31655353415E+03  0.31655353415E+03  0.00000000000E+00 0.  1.
         25    2    1    2    0    0 -0.86028380884E+02  0.69663218613E+02 -0.97170878466E+02  0.19324609934E+03  0.12509208185E+03 0.  0.
          5    1    3    3  502    0 -0.34355144825E+02  0.68728361597E+02 -0.11503946424E+03  0.13840308666E+03  0.41800000000E+01 0. -1.
         -5    1    3    3    0  502 -0.51673236058E+02  0.93485701608E+00  0.17868585774E+02  0.54843012681E+02  0.41800000000E+01 0. -1.
        -11    1    1    2    0    0  0.34988438875E+02 -0.57895513414E+02 -0.13100171409E+03  0.14743653015E+03  0.00000000000E+00 0. -1.
         11    1    1    2    0    0  0.51039942009E+02 -0.11767705199E+02 -0.10775917442E+02  0.53475928815E+02  0.00000000000E+00 0.  1.
</event>
<event>
 7    1  0.2651429E-009  0.1691814E+03  0.7561462E-02  0.1178704E+00
         -1   -1    0    0    0  501 -0.00000000000E+00  0.00000000000E+00  0.43291614664E+03  0.43291614664E+03  0.00000000000E+00 0.  1.
          1   -1    0    0  501    0  0.00000000000E+00 -0.00000000000E+00 -0.87696768058E+02  0.87696768058E+02  0.00000000000E+00 0. -1.
         25    2    1    2    0    0 -0.11653226560E+03  0.96337177064E+02  0.16914999060E+03  0.25907366441E+03  0.12508726418E+03 0.  0.
          5    1    3    3  502    0 -0.70074165681E+02 -0.32103061480E+01  0.18661818112E+02  0.72707844258E+02  0.41800000000E+01 0. -1.
         -5    1    3    3    0  502 -0.46458099917E+02  0.99547483212E+02  0.15048817249E+03  0.18636582015E+03  0.41800000000E+01 0. -1.
        -11    1    1    2    0    0  0.47636119784E+02 -0.69412745854E+02  0.16681226188E+02  0.85823030139E+02  0.00000000000E+00 0. -1.
         11    1    1    2    0    0  0.68896145813E+02 -0.26924431210E+02  0.15938816179E+03  0.17571622015E+03  0.00000000000E+00 0.  1.
</event>
<event>
 7    1  0.2651429E-009  0.1061015E+03  0.7561462E-02  0.1267964E+00
          2   -1    0    0  501    0  0.00000000000E+00  0.00000000000E+00  0.56217441172E+03  0.56217441172E+03  0.00000000000E+00 0. -1.
         -2   -1    0    0    0  501 -0.00000000000E+00 -0.00000000000E+00 -0.26498000362E+02  0.26498000362E+02  0.00000000000E+00 0.  1.
         25    2    1    2    0    0 -0.56742804011E+02 -0.15550120519E+01  0.34879026200E+03  0.37486855117E+03  0.12509844093E+03 0.  0.
          5    1    3    3  502    0 -0.82724634537E+02  0.29156834275E+02  0.29356703438E+03  0.30641893254E+03  0.41800000000E+01 0.  1.
         -5    1    3    3    0  502  0.25981830526E+02 -0.30711846327E+02  0.55223227617E+02  0.68449618631E+02  0.41800000000E+01 0.  1.
        -11    1    1    2    0    0  0.32921659560E+02  0.31580215590E+02  0.16153026439E+03  0.16784865801E+03  0.00000000000E+00 0. -1.
         11    1    1    2    0    0  0.23821144451E+02 -0.30025203538E+02  0.25355884976E+02  0.45955202898E+02  0.00000000000E+00 0.  1.
</event>
<event>
 7    1  0.2651429E-009  0.1052744E+03  0.7561462E-02  0.1269580E+00
         -1   -1    0    0    0  501 -0.00000000000E+00  0.00000000000E+00  0.10242961558E+03  0.10242961558E+03  0.00000000000E+00 0.  1.
          1   -1    0    0  501    0  0.00000000000E+00 -0.00000000000E+00 -0.12347557499E+03  0.12347557499E+03  0.00000000000E+00 0. -1.
         25    2    1    2    0    0 -0.25770197737E+02 -0.13376139400E+02 -0.58908846725E+01  0.12855085869E+03  0.12509035355E+03 0.  0.
          5    1    3    3  502    0 -0.18858088029E+02 -0.69283837263E+02 -0.29833542841E+01  0.71987848924E+02  0.41800000000E+01 0.  1.
         -5    1    3    3    0  502 -0.69121097086E+01  0.55907697863E+02 -0.29075303885E+01  0.56563009767E+02  0.41800000000E+01 0.  1.
        -11    1    1    2    0    0  0.15378873216E+01  0.43470010980E+02  0.17382224907E+02  0.46841740945E+02  0.00000000000E+00 0.  1.
         11    1    1    2    0    0  0.24232310416E+02 -0.30093871581E+02 -0.32537299639E+02  0.50512590932E+02  0.00000000000E+00 0. -1.
</event>
<event>
 7    1  0.2651429E-009  0.1095629E+03  0.7561462E-02  0.1261381E+00
         -2   -1    0    0    0  501 -0.00000000000E+00  0.00000000000E+00  0.17992791481E+04  0.17992791481E+04  0.00000000000E+00 0.  1.
          2   -1    0    0  501    0  0.00000000000E+00 -0.00000000000E+00 -0.11070268010E+02  0.11070268010E+02  0.00000000000E+00 0. -1.
         25    2    1    2    0    0  0.22593986347E+02  0.45613896424E+02  0.14661077378E+04  0.14723149681E+04  0.12509336894E+03 0.  0.
          5    1    3    3  502    0 -0.10490990998E+02  0.75200621772E+02  0.12075503931E+04  0.12099424031E+04  0.41800000000E+01 0.  1.
         -5    1    3    3    0  502  0.33084977345E+02 -0.29586725348E+02  0.25855734461E+03  0.26237256506E+03  0.41800000000E+01 0.  1.
        -11    1    1    2    0    0  0.13388314868E+02 -0.58704210554E+02  0.14813380114E+03  0.15990326561E+03  0.00000000000E+00 0.  1.
         11    1    1    2    0    0 -0.35982301215E+02  0.13090314130E+02  0.17396734115E+03  0.17813118231E+03  0.00000000000E+00 0. -1.
</event>
<event>
 7    1  0.2651429E-009  0.1755824E+03  0.7561462E-02  0.1172148E+00
          2   -1    0    0  501    0  0.00000000000E+00  0.00000000000E+00  0.61180308094E+02  0.61180308094E+02  0.00000000000E+00 0.  1.
         -2   -1    0    0    0  501 -0.00000000000E+00 -0.00000000000E+00 -0.53998846366E+03  0.53998846366E+03  0.00000000000E+00 0. -1.
         25    2    1    2    0    0  0.12686892651E+03 -0.67141159605E+02 -0.26865980181E+03  0.32928503162E+03  0.12508750183E+03 0.  0.
          5    1    3    3  502    0  0.66226574647E+01 -0.69604301679E+02 -0.97373435529E+02  0.11994864214E+03  0.41800000000E+01 0.  1.
         -5    1    3    3    0  502  0.12024626905E+03  0.24631420743E+01 -0.17128636628E+03  0.20933638949E+03  0.41800000000E+01 0.  1.
        -11    1    1    2    0    0 -0.65671364566E+02  0.74299676789E+02 -0.78300030962E+02  0.12634898078E+03  0.00000000000E+00 0.  1.
         11    1    1    2    0    0 -0.61197561946E+02 -0.71585171841E+01 -0.13184832279E+03  0.14553475935E+03  0.00000000000E+00 0. -1.
</event>
<event>
 7    1  0.2651429E-009  0.1506146E+03  0.7561462E-02  0.1199720E+00
         -2   -1    0    0    0  501 -0.00000000000E+00  0.00000000000E+00  0.90650488489E+03  0.90650488489E+03  0.00000000000E+00 0.  1.
          2   -1    0    0  501    0  0.00000000000E+00 -0.00000000000E+00 -0.27518553626E+02  0.27518553626E+02  0.00000000000E+00 0. -1.
         25    2    1    2    0    0 -0.16184321861E+02  0.11326914841E+03  0.49604201442E+03  0.52421669165E+03  0.12511445752E+03 0.  0.
          5    1    3    3  502    0  0.38492278268E+02  0.10437322428E+03  0.37206338558E+03  0.38836073530E+03  0.41800000000E+01 0.  1.
         -5    1    3    3    0  502 -0.54676600128E+02  0.88959241361E+01  0.12397862884E+03  0.13585595635E+03  0.41800000000E+01 0.  1.
        -11    1    1    2    0    0 -0.27992792908E+02 -0.40787481035E+02  0.22628109359E+03  0.23162544847E+03  0.00000000000E+00 0.  1.
         11    1    1    2    0    0  0.44177114769E+02 -0.72481667380E+02  0.15666322326E+03  0.17818129839E+03  0.00000000000E+00 0. -1.
</event>
<event>
 7    1  0.2823443E-009  0.1327851E+03  0.7561462E-02  0.1223381E+00
          2   -1    0    0  501    0  0.00000000000E+00  0.00000000000E+00  0.30757524536E+03  0.30757524536E+03  0.00000000000E+00 0. -1.
         -2   -1    0    0    0  501 -0.00000000000E+00 -0.00000000000E+00 -0.89940010488E+02  0.89940010488E+02  0.00000000000E+00 0.  1.
         25    2    1    2    0    0 -0.27004448298E+01  0.97292596918E+02  0.21065496307E+03  0.26361960554E+03  0.12508653462E+03 0.  0.
          5    1    3    3  502    0 -0.33566155711E+02 -0.18303497621E+02  0.44321696643E+02  0.58682109946E+02  0.41800000000E+01 0.  1.
         -5    1    3    3    0  502  0.30865710882E+02  0.11559609454E+03  0.16633326643E+03  0.20493749560E+03  0.41800000000E+01 0.  1.
        -11    1    1    2    0    0 -0.21195395273E+02 -0.52633149949E+02  0.43463011769E+02  0.71473957820E+02  0.00000000000E+00 0. -1.
         11    1    1    2    0    0  0.23895840103E+02 -0.44659446969E+02 -0.36482739965E+02  0.62421692488E+02  0.00000000000E+00 0.  1.
</event>
<event>
 7    1  0.2651429E-009  0.1957449E+03  0.7561462E-02  0.1153380E+00
         -2   -1    0    0    0  501 -0.00000000000E+00  0.00000000000E+00  0.77416637564E+02  0.77416637564E+02  0.00000000000E+00 0.  1.
          2   -1    0    0  501    0  0.00000000000E+00 -0.00000000000E+00 -0.52363674646E+03  0.52363674646E+03  0.00000000000E+00 0. -1.
         25    2    1    2    0    0  0.13553023664E+03 -0.93690708804E+02 -0.28408467663E+03  0.35142442589E+03  0.12509448292E+03 0.  0.
          5    1    3    3  502    0  0.27924721577E+02  0.27806549618E+02 -0.29198318040E+02  0.49224063761E+02  0.41800000000E+01 0.  1.
         -5    1    3    3    0  502  0.10760551506E+03 -0.12149725842E+03 -0.25488635859E+03  0.30220036213E+03  0.41800000000E+01 0.  1.
        -11    1    1    2    0    0 -0.10970214520E+03  0.20113999587E+02 -0.88496235595E+02  0.14237526947E+03  0.00000000000E+00 0.  1.
         11    1    1    2    0    0 -0.25828091440E+02  0.73576709218E+02 -0.73639196677E+02  0.10725368867E+03  0.00000000000E+00 0. -1.
</event>
<event>
 7    1  0.2651429E-009  0.1473370E+03  0.7561462E-02  0.1203784E+00
          3   -1    0    0  501    0  0.00000000000E+00  0.00000000000E+00  0.19967387721E+03  0.19967387721E+03  0.00000000000E+00 0. -1.
         -3   -1    0    0    0  501 -0.00000000000E+00 -0.00000000000E+00 -0.13613000900E+03  0.13613000900E+03  0.00000000000E+00 0.  1.
         25    2    1    2    0    0  0.71367257577E+02  0.97734719591E+02  0.53356584416E+02  0.18204295167E+03  0.12508936919E+03 0.  0.
          5    1    3    3  502    0 -0.23413998711E+02  0.33744060252E+02 -0.20245094651E+02  0.45980574109E+02  0.41800000000E+01 0. -1.
         -5    1    3    3    0  502  0.94781256288E+02  0.63990659339E+02  0.73601679066E+02  0.13606237756E+03  0.41800000000E+01 0. -1.
        -11    1    1    2    0    0  0.65726766502E+01 -0.43516445247E+02  0.34306753175E+02  0.55801741896E+02  0.00000000000E+00 0. -1.
         11    1    1    2    0    0 -0.77939934227E+02 -0.54218274345E+02 -0.24119469375E+02  0.97959192642E+02  0.00000000000E+00 0.  1.
</event>
<event>
 7    1  0.2948264E-009  0.9361593E+02  0.7561462E-02  0.1294324E+00
          2   -1    0    0  501    0  0.00000000000E+00  0.00000000000E+00  0.34537921037E+03  0.34537921037E+03  0.00000000000E+00 0. -1.
         -2   -1    0    0    0  501 -0.00000000000E+00 -0.00000000000E+00 -0.44474056617E+02  0.44474056617E+02  0.00000000000E+00 0.  1.
         25    2    1    2    0    0 -0.17937232540E+02  0.50457444455E+02  0.12513420409E+03  0.18485756687E+03  0.12508418359E+03 0.  0.
          5    1    3    3  502    0  0.29228050866E+02  0.17372555966E+02  0.12231870272E+03  0.12702528131E+03  0.41800000000E+01 0. -1.
         -5    1    3    3    0  502 -0.47165283406E+02  0.33084888489E+02  0.28155013770E+01  0.57832285560E+02  0.41800000000E+01 0. -1.
        -11    1    1    2    0    0  0.32651309782E+02  0.90734563707E+01  0.24645565593E+02  0.41902739104E+02  0.00000000000E+00 0.  1.
         11    1    1    2    0    0 -0.14714077242E+02 -0.59530900825E+02  0.15112538407E+03  0.16309296102E+03  0.00000000000E+00 0. -1.
</event>
<event>
 7    1  0.2651429E-009  0.1299731E+03  0.7561462E-02  0.1227496E+00
          1   -1    0    0  501    0  0.00000000000E+00  0.00000000000E+00  0.10939745102E+03  0.10939745102E+03  0.00000000000E+00 0. -1.
         -1   -1    0    0    0  501 -0.00000000000E+00 -0.00000000000E+00 -0.30137175449E+03  0.30137175449E+03  0.00000000000E+00 0.  1.
         25    2    1    2    0    0 -0.83610487371E+02  0.49842239259E+02 -0.22325540994E+03  0.27380043740E+03  0.12509492011E+03 0.  0.
          5    1    3    3  502    0  0.24959864319E+02 -0.16811267488E+02 -0.53372747759E+02  0.61414462016E+02  0.41800000000E+01 0. -1.
         -5    1    3    3    0  502 -0.10857035169E+03  0.66653506747E+02 -0.16988266218E+03  0.21238597538E+03  0.41800000000E+01 0. -1.
        -11    1    1    2    0    0  0.12916139610E+02  0.36773165441E+01  0.45255655910E+02  0.47206182977E+02  0.00000000000E+00 0. -1.
         11    1    1    2    0    0  0.70694347761E+02 -0.53519555803E+02 -0.13974549433E+02  0.89762585137E+02  0.00000000000E+00 0.  1.
</event>
<event>
 7    1  0.2651429E-009  0.1207754E+03  0.7561462E-02  0.1241823E+00
          1   -1    0    0  501    0  0.00000000000E+00  0.00000000000E+00  0.55915413134E+03  0.55915413134E+03  0.00000000000E+00 0. -1.
         -1   -1    0    0    0  501 -0.00000000000E+00 -0.00000000000E+00 -0.39993941085E+02  0.39993941085E+02  0.00000000000E+00 0.  1.
         25    2    1    2    0    0 -0.32404461366E+02 -0.74300346256E+02  0.40514014006E+03  0.43168508777E+03  0.12507154489E+03 0.  0.
          5    1    3    3  502    0  0.34295267465E+02 -0.53130444134E+02  0.98450986866E+02  0.11708577488E+03  0.41800000000E+01 0.  1.
         -5    1    3    3    0  502 -0.66699728830E+02 -0.21169902122E+02  0.30668915320E+03  0.31459931289E+03  0.41800000000E+01 0.  1.
        -11    1    1    2    0    0  0.49981136608E+02  0.25311040048E+02  0.19065696149E+02  0.59179925098E+02  0.00000000000E+00 0.  1.
         11    1    1    2    0    0 -0.17576675242E+02  0.48989306207E+02  0.94954354045E+02  0.10828305956E+03  0.00000000000E+00 0. -1.
</event>
<event>
 7    1  0.2651429E-009  0.1314098E+03  0.7561462E-02  0.1225379E+00
         -2   -1    0    0    0  501 -0.00000000000E+00  0.00000000000E+00  0.20188021129E+03  0.20188021129E+03  0.00000000000E+00 0.  1.
          2   -1    0    0  501    0  0.00000000000E+00 -0.00000000000E+00 -0.11285114545E+03  0.11285114545E+03  0.00000000000E+00 0. -1.
         25    2    1    2    0    0 -0.99224363749E+02  0.37268560348E+01  0.13935690773E+02  0.16031359339E+03  0.12508749310E+03 0.  0.
          5    1    3    3  502    0  0.22874307925E+01 -0.40472909111E+02 -0.18661454293E+02  0.44821992235E+02  0.41800000000E+01 0. -1.
         -5    1    3    3    0  502 -0.10151179454E+03  0.44199765146E+02  0.32597145066E+02  0.11549160115E+03  0.41800000000E+01 0. -1.
        -11    1    1    2    0    0  0.94636417056E+02  0.11533118214E+02  0.91076517277E+02  0.13184838356E+03  0.00000000000E+00 0.  1.
         11    1    1    2    0    0  0.45879466930E+01 -0.15259974249E+02 -0.15983142208E+02  0.22569379783E+02  0.00000000000E+00 0. -1.
</event>
<event>
 7    1  0.2651429E-009  0.1886152E+03  0.7561462E-02  0.1159716E+00
          2   -1    0    0  501    0  0.00000000000E+00  0.00000000000E+00  0.15241883559E+04  0.15241883559E+04  0.00000000000E+00 0. -1.
         -2   -1    0    0    0  501 -0.00000000000E+00 -0.00000000000E+00 -0.26701007693E+02  0.26701007693E+02  0.00000000000E+00 0.  1.
         25    2    1    2    0    0 -0.16167871720E+03 -0.30008975846E+02  0.93769322923E+03  0.96018534681E+03  0.12508701713E+03 0.  0.
          5    1    3    3  502    0 -0.43009384900E+02 -0.61151985564E+02  0.22878764907E+03  0.24072937771E+03  0.41800000000E+01 0. -1.
         -5    1    3    3    0  502 -0.11866933230E+03  0.31143009718E+02  0.70890558016E+03  0.71945596910E+03  0.41800000000E+01 0. -1.
        -11    1    1    2    0    0  0.16321323880E+03  0.14332728597E+02  0.54499907837E+03  0.56909400265E+03  0.00000000000E+00 0. -1.
         11    1    1    2    0    0 -0.15345215999E+01  0.15676247249E+02  0.14795040609E+02  0.21610014136E+02  0.00000000000E+00 0.  1.
</event>
<event>
 7    1  0.2651429E-009  0.1190168E+03  0.7561462E-02  0.1244728E+00
         -2   -1    0    0    0  501 -0.00000000000E+00  0.00000000000E+00  0.29932691057E+02  0.29932691057E+02  0.00000000000E+00 0.  1.
          2   -1    0    0  501    0  0.00000000000E+00 -0.00000000000E+00 -0.54884319199E+03  0.54884319199E+03  0.00000000000E+00 0. -1.
         25    2    1    2    0    0 -0.62542073212E+02  0.70896935458E+01 -0.22870929201E+03  0.26817264584E+03  0.12508738166E+03 0.  0.
          5    1    3    3  502    0  0.29769939723E+02 -0.14989786676E+02 -0.11598034857E+03  0.12074707727E+03  0.41800000000E+01 0. -1.
         -5    1    3    3    0  502 -0.92312012935E+02  0.22079480222E+02 -0.11272894344E+03  0.14742556857E+03  0.41800000000E+01 0. -1.
        -11    1    1    2    0    0  0.74461829227E+02 -0.32592905931E+02 -0.23458937171E+03  0.24827209841E+03  0.00000000000E+00 0. -1.
         11    1    1    2    0    0 -0.11919756015E+02  0.25503212386E+02 -0.55611837216E+02  0.62331138799E+02  0.00000000000E+00 0.  1.
</event>
<event>
 7    1  0.2651429E-009  0.1036105E+03  0.7561462E-02  0.1272882E+00
          3   -1    0    0  501    0  0.00000000000E+00  0.00000000000E+00  0.10630638185E+03  0.10630638185E+03  0.00000000000E+00 0. -1.
         -3   -1    0    0    0  501 -0.00000000000E+00 -0.00000000000E+00 -0.14597697736E+03  0.14597697736E+03  0.00000000000E+00 0.  1.
         25    2    1    2    0    0  0.45749098208E+02  0.14393939312E+02 -0.51851726985E+02  0.14365213870E+03  0.12508864811E+03 0.  0.
          5    1    3    3  502    0 -0.22622579145E+01 -0.36326333280E+02 -0.62928060379E+02  0.72815750244E+02  0.41800000000E+01 0.  1.
         -5    1    3    3    0  502  0.48011356123E+02  0.50720272592E+02  0.11076333394E+02  0.70836388460E+02  0.41800000000E+01 0.  1.
        -11    1    1    2    0    0 -0.68918002679E+02  0.67573914474E+01 -0.10335412767E+02  0.70015528202E+02  0.00000000000E+00 0.  1.
         11    1    1    2    0    0  0.23168904470E+02 -0.21151330759E+02  0.22516544241E+02  0.38615692300E+02  0.00000000000E+00 0. -1.
</event>
<event>
 7    1  0.2651429E-009  0.7866817E+02  0.7561462E-02  0.1332874E+00
         -1   -1    0    0    0  501 -0.00000000000E+00  0.00000000000E+00  0.71622509099E+02  0.71622509099E+02  0.00000000000E+00 0.  1.
          1   -1    0    0  501    0  0.00000000000E+00 -0.00000000000E+00 -0.18053878494E+03  0.18053878494E+03  0.00000000000E+00 0. -1.
         25    2    1    2    0    0 -0.19857793865E+02  0.22478415387E+02 -0.58057841396E+02  0.14113055001E+03  0.12508999986E+03 0.  0.
          5    1    3    3  502    0 -0.17955117794E+02 -0.27517837135E+02  0.26750197507E+02  0.42575381175E+02  0.41800000000E+01 0. -1.
         -5    1    3    3    0  502 -0.19026760705E+01  0.49996252522E+02 -0.84808038902E+02  0.98555168839E+02  0.41800000000E+01 0. -1.
        -11    1    1    2    0    0  0.42967753024E+02 -0.26596585044E+02  0.46659612547E+01  0.50748175636E+02  0.00000000000E+00 0.  1.
         11    1    1    2    0    0 -0.23109959160E+02  0.41181696573E+01 -0.55524395698E+02  0.60282568387E+02  0.00000000000E+00 0. -1.
</event>
<event>
 7    1  0.2651429E-009  0.8622893E+02  0.7561462E-02  0.1312250E+00
          4   -1    0    0  501    0  0.00000000000E+00  0.00000000000E+00  0.36669860930E+02  0.36669860930E+02  0.00000000000E+00 0. -1.
         -4   -1    0    0    0  501 -0.00000000000E+00 -0.00000000000E+00 -0.41270883787E+03  0.41270883787E+03  0.00000000000E+00 0.  1.
         25    2    1    2    0    0 -0.16711503318E+01  0.59787221797E+02 -0.23745406131E+03  0.27497143714E+03  0.12509018898E+03 0.  0.
          5    1    3    3  502    0 -0.25913297597E+02  0.65941301350E+02 -0.52483696931E+02  0.88270975183E+02  0.41800000000E+01 0. -1.
         -5    1    3    3    0  502  0.24242147265E+02 -0.61540795532E+01 -0.18497036438E+03  0.18670046196E+03  0.41800000000E+01 0. -1.
        -11    1    1    2    0    0  0.22296440873E+02 -0.15155891237E+02 -0.11810973333E+03  0.12114760180E+03  0.00000000000E+00 0.  1.
         11    1    1    2    0    0 -0.20625290542E+02 -0.44631330561E+02 -0.20475182301E+02  0.53259659854E+02  0.00000000000E+00 0. -1.
</event>
<event>
 7    1  0.2651429E-009  0.9304937E+02  0.7561462E-02  0.1295631E+00
         -1   -1    0    0    0  501 -0.00000000000E+00  0.00000000000E+00  0.39563069831E+02  0.39563069831E+02  0.00000000000E+00 0.  1.
          1   -1    0    0  501    0  0.00000000000E+00 -0.00000000000E+00 -0.32605866535E+03  0.32605866535E+03  0.00000000000E+00 0. -1.
         25    2    1    2    0    0 -0.52792364764E+01 -0.19424414253E+02 -0.21078923633E+03  0.24593637770E+03  0.12508965392E+03 0.  0.
          5    1    3    3  502    0  0.47772670635E+02 -0.24167648081E+02 -0.17124236071E+03  0.17946509905E+03  0.41800000000E+01 0.  1.
         -5    1    3    3    0  502 -0.53051907111E+02  0.47432338272E+01 -0.39546875615E+02  0.66471278656E+02  0.41800000000E+01 0.  1.
        -11    1    1    2    0    0 -0.25571372602E+02 -0.17400950879E+02 -0.11000028016E+01  0.30949930443E+02  0.00000000000E+00 0.  1.
         11    1    1    2    0    0  0.30850609078E+02  0.36825365133E+02 -0.74606356395E+02  0.88735427041E+02  0.00000000000E+00 0. -1.
</event>
<event>
 7    1  0.2651429E-009  0.5175993E+02  0.7561462E-02  0.1436074E+00
         -1   -1    0    0    0  501 -0.00000000000E+00  0.00000000000E+00  0.11568111321E+03  0.11568111321E+03  0.00000000000E+00 0.  1.
          1   -1    0    0  501    0  0.00000000000E+00 -0.00000000000E+00 -0.10359849874E+03  0.10359849874E+03  0.00000000000E+00 0. -1.
         25    2    1    2    0    0  0.35273908711E+02  0.17885998840E+02  0.11008153544E+02  0.13165528988E+03  0.12509108009E+03 0.  0.
          5    1    3    3  502    0  0.83171600463E+01  0.92289755827E+01 -0.56674403242E+02  0.58170521094E+02  0.41800000000E+01 0.  1.
         -5    1    3    3    0  502  0.26956748665E+02  0.86570232571E+01  0.67682556786E+02  0.73484768785E+02  0.41800000000E+01 0.  1.
        -11    1    1    2    0    0 -0.26964490131E+01 -0.27651395575E+02 -0.30472281582E+02  0.41236276012E+02  0.00000000000E+00 0. -1.
         11    1    1    2    0    0 -0.32577459698E+02  0.97653967354E+01  0.31546742514E+02  0.46388046057E+02  0.00000000000E+00 0.  1.
</event>
<event>
 7    1  0.2651429E-009  0.1036075E+03  0.7561462E-02  0.1272888E+00
          2   -1    0    0  501    0  0.00000000000E+00  0.00000000000E+00  0.10092424663E+04  0.10092424663E+04  0.00000000000E+00 0.  1.
         -2   -1    0    0    0  501 -0.00000000000E+00 -0.00000000000E+00 -0.18168419112E+02  0.18168419112E+02  0.00000000000E+00 0. -1.
         25    2    1    2    0    0 -0.48296707574E+02 -0.46333023657E+01  0.80202387557E+03  0.81316928753E+03  0.12509178129E+03 0.  0.
          5    1    3    3  502    0 -0.45097625579E+02 -0.61370106290E+02  0.41128830234E+03  0.41830087953E+03  0.41800000000E+01 0.  1.
         -5    1    3    3    0  502 -0.31990819946E+01  0.56736803925E+02  0.39073557324E+03  0.39486840800E+03  0.41800000000E+01 0.  1.
        -11    1    1    2    0    0  0.52178233743E+02 -0.14726483589E+02  0.18663382889E+03  0.19434923072E+03  0.00000000000E+00 0.  1.
         11    1    1    2    0    0 -0.38815261689E+01  0.19359785955E+02  0.24163426864E+01  0.19892367119E+02  0.00000000000E+00 0. -1.
</event>
<event>
 7    1  0.2651429E-009  0.1390939E+03  0.7561462E-02  0.1214553E+00
         -1   -1    0    0    0  501 -0.00000000000E+00  0.00000000000E+00  0.31708688056E+03  0.31708688056E+03  0.00000000000E+00 0.  1.
          1   -1    0    0  501    0  0.00000000000E+00 -0.00000000000E+00 -0.78295269021E+02  0.78295269021E+02  0.00000000000E+00 0. -1.
         25    2    1    2    0    0 -0.30887795331E+02 -0.10720143073E+03  0.16019070574E+03  0.23185151937E+03  0.12509141528E+03 0.  0.
          5    1    3    3  502    0 -0.26512305882E+02  0.23037533221E+02  0.21001601411E+02  0.41135993508E+02  0.41800000000E+01 0.  1.
         -5    1    3    3    0  502 -0.43754894488E+01 -0.13023896395E+03  0.13918910433E+03  0.19071552586E+03  0.41800000000E+01 0.  1.
        -11    1    1    2    0    0  0.89470662731E+00  0.23626898167E+02 -0.19908637340E+02  0.30909297270E+02  0.00000000000E+00 0. -1.
         11    1    1    2    0    0  0.29993088704E+02  0.83574532563E+02  0.98509543140E+02  0.13262133295E+03  0.00000000000E+00 0.  1.
</event>
<event>
 7    1  0.2651429E-009  0.8045827E+02  0.7561462E-02  0.1327756E+00
         -1   -1    0    0    0  501 -0.00000000000E+00  0.00000000000E+00  0.87424634885E+02  0.87424634885E+02  0.00000000000E+00 0.  1.
          1   -1    0    0  501    0  0.00000000000E+00 -0.00000000000E+00 -0.15286706991E+03  0.15286706991E+03  0.00000000000E+00 0. -1.
         25    2    1    2    0    0  0.26789360584E+02  0.20091810731E+02 -0.92153774636E+01  0.12982013898E+03  0.12508794748E+03 0.  0.
          5    1    3    3  502    0  0.55614529410E+02  0.22347543387E+02 -0.51018240350E+02  0.78820821014E+02  0.41800000000E+01 0. -1.
         -5    1    3    3    0  502 -0.28825168825E+02 -0.22557326553E+01  0.41802862887E+02  0.50999317968E+02  0.41800000000E+01 0. -1.
        -11    1    1    2    0    0 -0.42588263771E+02  0.40373517503E+01 -0.67160139050E+02  0.79627537306E+02  0.00000000000E+00 0. -1.
         11    1    1    2    0    0  0.15798903187E+02 -0.24129162482E+02  0.10933081486E+02  0.30844028510E+02  0.00000000000E+00 0.  1.
</event>
<event>
 6    1  0.2651429E-009  0.1046561E+03  0.7561462E-02  0.1270799E+00
         -1   -1    0    0    0  501 -0.00000000000E+00  0.00000000000E+00  0.92101342616E+02  0.92101342616E+02  0.00000000000E+00 0.  1.
          1   -1    0    0  501    0  0.00000000000E+00 -0.00000000000E+00 -0.20738383650E+03  0.20738383650E+03  0.00000000000E+00 0. -1.
          5    1    1    2  502    0 -0.99103876409E+02  0.30295052228E+02 -0.58532790985E+02  0.11909210104E+03  0.41800000000E+01 0.  1.
         -5    1    1    2    0  502  0.19219780004E+02  0.10933363007E+01  0.29340800743E+02  0.35340491167E+02  0.41800000000E+01 0.  1.
        -11    1    1    2    0    0  0.21514470328E+02 -0.10098014964E+02 -0.79024299654E+02  0.82520799048E+02  0.00000000000E+00 0. -1.
         11    1    1    2    0    0  0.58369626077E+02 -0.21290373565E+02 -0.70662039903E+01  0.62531787866E+02  0.00000000000E+00 0.  1.
</event>
<event>
 7    1  0.2651429E-009  0.2870688E+03  0.7561462E-02  0.1091890E+00
         -2   -1    0    0    0  501 -0.00000000000E+00  0.00000000000E+00  0.82603588008E+02  0.82603588008E+02  0.00000000000E+00 0. -1.
          2   -1    0    0  501    0  0.00000000000E+00 -0.00000000000E+00 -0.11837323936E+04  0.11837323936E+04  0.00000000000E+00 0.  1.
         25    2    1    2    0    0  0.18303146554E+03 -0.19354043954E+03 -0.80802784138E+03  0.85995045363E+03  0.12508945258E+03 0.  0.
          5    1    3    3  502    0  0.15793496922E+03 -0.78548577666E+02 -0.47492244838E+03  0.50663807391E+03  0.41800000000E+01 0. -1.
         -5    1    3    3    0  502  0.25096496325E+02 -0.11499186187E+03 -0.33310539300E+03  0.35331237973E+03  0.41800000000E+01 0. -1.
        -11    1    1    2    0    0 -0.17214573605E+03  0.13067656447E+03 -0.20737592137E+03  0.29952511031E+03  0.00000000000E+00 0. -1.
         11    1    1    2    0    0 -0.10885729491E+02  0.62863875068E+02 -0.85725042881E+02  0.10686041770E+03  0.00000000000E+00 0.  1.
</event>
<event>
 7    1  0.2651429E-009  0.1408602E+03  0.7561462E-02  0.1212176E+00
         -2   -1    0    0    0  501 -0.00000000000E+00  0.00000000000E+00  0.76697720279E+02  0.76697720279E+02  0.00000000000E+00 0.  1.
          2   -1    0    0  501    0  0.00000000000E+00 -0.00000000000E+00 -0.32087207457E+03  0.32087207457E+03  0.00000000000E+00 0. -1.
         25    2    1    2    0    0 -0.30901704319E+02  0.65612316011E+02 -0.12089972344E+03  0.18848059323E+03  0.12509316350E+03 0.  0.
          5    1    3    3  502    0  0.35290278467E+02  0.30022609630E+01 -0.81816939104E+02  0.89251897736E+02  0.41800000000E+01 0. -1.
         -5    1    3    3    0  502 -0.66191982786E+02  0.62610055048E+02 -0.39082784334E+02  0.99228695495E+02  0.41800000000E+01 0. -1.
        -11    1    1    2    0    0  0.78259547620E+02 -0.72876679414E+02 -0.42294958349E+02  0.11499752475E+03  0.00000000000E+00 0.  1.
         11    1    1    2    0    0 -0.47357843301E+02  0.72643634030E+01 -0.80979672508E+02  0.94091676876E+02  0.00000000000E+00 0. -1.
</event>
<event>
 7    1  0.2651429E-009  0.8320283E+02  0.7561462E-02  0.1320200E+00
         -1   -1    0    0    0  501 -0.00000000000E+00  0.00000000000E+00  0.17016030827E+03  0.17016030827E+03  0.00000000000E+00 0.  1.
          1   -1    0    0  501    0  0.00000000000E+00 -0.00000000000E+00 -0.15975037678E+03  0.15975037678E+03  0.00000000000E+00 0. -1.
         25    2    1    2    0    0 -0.22980041247E+02 -0.12591774885E+02 -0.11596112687E+03  0.17257138659E+03  0.12508903003E+03 0.  0.
          5    1    3    3  502    0  0.86080907992E+01 -0.38109439233E+02 -0.12476918116E+03  0.13080997497E+03  0.41800000000E+01 0.  1.
         -5    1    3    3    0  502 -0.31588132046E+02  0.25517664348E+02  0.88080542890E+01  0.41761411618E+02  0.41800000000E+01 0.  1.
        -11    1    1    2    0    0  0.90001567309E+01  0.47679240287E+02  0.39339076192E+02  0.62464995727E+02  0.00000000000E+00 0. -1.
         11    1    1    2    0    0  0.13979884516E+02 -0.35087465402E+02  0.87031982164E+02  0.94874302731E+02  0.00000000000E+00 0.  1.
</event>
<event>
 7    1  0.2651429E-009  0.1061225E+03  0.7561462E-02  0.1267924E+00
          1   -1    0    0  501    0  0.00000000000E+00  0.00000000000E+00  0.62258026557E+02  0.62258026557E+02  0.00000000000E+00 0. -1.
         -1   -1    0    0    0  501 -0.00000000000E+00 -0.00000000000E+00 -0.23583866850E+03  0.23583866850E+03  0.00000000000E+00 0.  1.
         25    2    1    2    0    0 -0.24072740361E+02 -0.46836919248E+02 -0.11535191627E+03  0.17810227855E+03  0.12506463611E+03 0.  0.
          5    1    3    3  502    0 -0.41983752024E+02 -0.82640930369E+02 -0.63391425620E+02  0.11237483726E+03  0.41800000000E+01 0. -1.
         -5    1    3    3    0  502  0.17911011663E+02  0.35804011120E+02 -0.51960490646E+02  0.65727441296E+02  0.41800000000E+01 0. -1.
        -11    1    1    2    0    0  0.43867906079E+02  0.35186284404E+02  0.12342509785E+01  0.56249365946E+02  0.00000000000E+00 0. -1.
         11    1    1    2    0    0 -0.19795165718E+02  0.11650634845E+02 -0.59462976655E+02  0.63745050559E+02  0.00000000000E+00 0.  1.
</event>
<event>
 7    1  0.2651429E-009  0.1739919E+03  0.7561462E-02  0.1173748E+00
          2   -1    0    0  501    0  0.00000000000E+00  0.00000000000E+00  0.11548377646E+04  0.11548377646E+04  0.00000000000E+00 0. -1.
         -2   -1    0    0    0  501 -0.00000000000E+00 -0.00000000000E+00 -0.32121713594E+02  0.32121713594E+02  0.00000000000E+00 0.  1.
         25    2    1    2    0    0 -0.11521283197E+03  0.10818357641E+03  0.59384109638E+03  0.62711445366E+03  0.12509039686E+03 0.  0.
          5    1    3    3  502    0  0.44318866820E+01  0.15235131080E+02  0.24250623361E+01  0.16586264375E+02  0.41800000000E+01 0.  1.
         -5    1    3    3    0  502 -0.11964471866E+03  0.92948445333E+02  0.59141603404E+03  0.61052818929E+03  0.41800000000E+01 0.  1.
        -11    1    1    2    0    0  0.59523950599E+02 -0.13552795052E+01  0.12629413634E+03  0.13962502051E+03  0.00000000000E+00 0.  1.
         11    1    1    2    0    0  0.55688881374E+02 -0.10682829691E+03  0.40258081824E+03  0.42022000398E+03  0.00000000000E+00 0. -1.
</event>
<event>
 7    1  0.2651429E-009  0.8896801E+02  0.7561462E-02  0.1305370E+00
         -1   -1    0    0    0  501 -0.00000000000E+00  0.00000000000E+00  0.19795408318E+03  0.19795408318E+03  0.00000000000E+00 0.  1.
          1   -1    0    0  501    0  0.00000000000E+00 -0.00000000000E+00 -0.76653844457E+02  0.76653844457E+02  0.00000000000E+00 0. -1.
         25    2    1    2    0    0  0.96997996874E+01 -0.54324275409E+02  0.64054167889E+02  0.15098656949E+03  0.12509514272E+03 0.  0.
          5    1    3    3  502    0  0.37709023140E+02 -0.54568461452E+02  0.90470131394E+02  0.11225864994E+03  0.41800000000E+01 0.  1.
         -5    1    3    3    0  502 -0.28009223453E+02  0.24418604360E+00 -0.26415963505E+02  0.38727919556E+02  0.41800000000E+01 0.  1.
        -11    1    1    2    0    0 -0.15788633318E+02 -0.99038270731E+01 -0.17024125173E+02  0.25242574565E+02  0.00000000000E+00 0. -1.
         11    1    1    2    0    0  0.60888336307E+01  0.64228102482E+02  0.74270196002E+02  0.98378783574E+02  0.00000000000E+00 0.  1.
</event>
<event>
 7    1  0.2651429E-009  0.1218437E+03  0.7561462E-02  0.1240086E+00
         -2   -1    0    0    0  501 -0.00000000000E+00  0.00000000000E+00  0.11858296713E+03  0.11858296713E+03  0.00000000000E+00 0. -1.
          2   -1    0    0  501    0  0.00000000000E+00 -0.00000000000E+00 -0.24115229285E+03  0.24115229285E+03  0.00000000000E+00 0.  1.
         25    2    1    2    0    0  0.32059333368E+02 -0.77614444500E+02 -0.16482170520E+03  0.22330536213E+03  0.12508911783E+03 0.  0.
          5    1    3    3  502    0 -0.20342150991E+02 -0.63447472636E+02 -0.21731453903E+02  0.70207644738E+02  0.41800000000E+01 0.  1.
         -5    1    3    3    0  502  0.52401484360E+02 -0.14166971864E+02 -0.14309025129E+03  0.15309771739E+03  0.41800000000E+01 0.  1.
        -11    1    1    2    0    0 -0.57984731482E+02  0.23663230171E+02  0.44014338930E+02  0.76546976286E+02  0.00000000000E+00 0.  1.
         11    1    1    2    0    0  0.25925398113E+02  0.53951214329E+02 -0.17619594501E+01  0.59882921572E+02  0.00000000000E+00 0. -1.
</event>
<event>
 7    1  0.2651429E-009  0.1336716E+03  0.7561462E-02  0.1222107E+00
         -2   -1    0    0    0  501 -0.00000000000E+00  0.00000000000E+00  0.15463880183E+02  0.15463880183E+02  0.00000000000E+00 0.  1.
          2   -1    0    0  501    0  0.00000000000E+00 -0.00000000000E+00 -0.13530566887E+04  0.13530566887E+04  0.00000000000E+00 0. -1.
         25    2    1    2    0    0  0.82962110592E+02 -0.18374079548E+02 -0.95342398642E+03  0.96534177326E+03  0.12508845961E+03 0.  0.
          5    1    3    3  502    0  0.96156746214E+02 -0.51463648237E+02 -0.57847105471E+03  0.58867721246E+03  0.41800000000E+01 0.  1.
         -5    1    3    3    0  502 -0.13194635622E+02  0.33089568688E+02 -0.37495293171E+03  0.37666456080E+03  0.41800000000E+01 0.  1.
        -11    1    1    2    0    0 -0.10195279324E+03  0.15723601472E+02 -0.32567880963E+03  0.34162595149E+03  0.00000000000E+00 0.  1.
         11    1    1    2    0    0  0.18990682650E+02  0.26504780764E+01 -0.58490012419E+02  0.61552844080E+02  0.00000000000E+00 0. -1.
</event>
<event>
 7    1  0.2651429E-009  0.2426033E+03  0.7561462E-02  0.1118071E+00
          2   -1    0    0  501    0  0.00000000000E+00  0.00000000000E+00  0.32896098414E+03  0.32896098414E+03  0.00000000000E+00 0. -1.
         -2   -1    0    0    0  501 -0.00000000000E+00 -0.00000000000E+00 -0.22730256161E+03  0.22730256161E+03  0.00000000000E+00 0.  1.
         25    2    1    2    0    0  0.14547412669E+03  0.18408797098E+03 -0.38140411360E+02  0.26861317714E+03  0.12508894980E+03 0.  0.
          5    1    3    3  502    0  0.32120395978E+02  0.69891813846E+02  0.43147832105E+02  0.88293789679E+02  0.41800000000E+01 0. -1.
         -5    1    3    3    0  502  0.11335373071E+03  0.11419615713E+03 -0.81288243466E+02  0.18031938746E+03  0.41800000000E+01 0. -1.
        -11    1    1    2    0    0 -0.14811453039E+02 -0.76611913726E+02  0.20640501420E+02  0.80714278568E+02  0.00000000000E+00 0.  1.
         11    1    1    2    0    0 -0.13066267365E+03 -0.10747605725E+03  0.11915833247E+03  0.20693609005E+03  0.00000000000E+00 0. -1.
</event>
<event>
 7    1  0.2651429E-009  0.1214367E+03  0.7561462E-02  0.1240746E+00
          1   -1    0    0  501    0  0.00000000000E+00  0.00000000000E+00  0.37102589986E+02  0.37102589986E+02  0.00000000000E+00 0. -1.
         -1   -1    0    0    0  501 -0.00000000000E+00 -0.00000000000E+00 -0.42545894633E+03  0.42545894633E+03  0.00000000000E+00 0.  1.
         25    2    1    2    0    0 -0.45982011042E+02  0.37592634708E+02 -0.24223019083E+03  0.27901619550E+03  0.12508805090E+03 0.  0.
          5    1    3    3  502    0  0.32780544651E+02  0.47160686917E+02 -0.12196601789E+03  0.13487726427E+03  0.41800000000E+01 0. -1.
         -5    1    3    3    0  502 -0.78762555693E+02 -0.95680522086E+01 -0.12026417294E+03  0.14413893122E+03  0.41800000000E+01 0. -1.
        -11    1    1    2    0    0  0.15894798336E+02  0.28827214139E+02 -0.22023093448E+02  0.39606432990E+02  0.00000000000E+00 0.  1.
         11    1    1    2    0    0  0.30087212706E+02 -0.66419848847E+02 -0.12410307207E+03  0.14393890782E+03  0.00000000000E+00 0. -1.
</event>
<event>
 7    1  0.2651429E-009  0.1338663E+03  0.7561462E-02  0.1221829E+00
         -1   -1    0    0    0  501 -0.00000000000E+00  0.00000000000E+00  0.36625528335E+03  0.36625528335E+03  0.00000000000E+00 0.  1.
          1   -1    0    0  501    0  0.00000000000E+00 -0.00000000000E+00 -0.11346411081E+03  0.11346411081E+03  0.00000000000E+00 0. -1.
         25    2    1    2    0    0  0.36846427414E+02 -0.12775240841E+03  0.26024200024E+03  0.31788706289E+03  0.12509176230E+03 0.  0.
          5    1    3    3  502    0  0.21498881750E+02 -0.67296028211E+02  0.25917040181E+02  0.75366588760E+02  0.41800000000E+01 0.  1.
         -5    1    3    3    0  502  0.15347545664E+02 -0.60456380194E+02  0.23432496006E+03  0.24252047413E+03  0.41800000000E+01 0.  1.
        -11    1    1    2    0    0 -0.87504499641E+01  0.66334813972E+02  0.41216632535E+02  0.78585550306E+02  0.00000000000E+00 0.  1.
         11    1    1    2    0    0 -0.28095977450E+02  0.61417594433E+02 -0.48667460237E+02  0.83246780963E+02  0.00000000000E+00 0. -1.
</event>
<event>
 7    1  0.2651429E-009  0.1751896E+03  0.7561462E-02  0.1172541E+00
         -1   -1    0    0    0  501 -0.00000000000E+00  0.00000000000E+00  0.27265167820E+02  0.27265167820E+02  0.00000000000E+00 0.  1.
          1   -1    0    0  501    0  0.00000000000E+00 -0.00000000000E+00 -0.12575198343E+04  0.12575198343E+04  0.00000000000E+00 0. -1.
         25    2    1    2    0    0  0.11872112463E+03  0.90258880332E+02 -0.68422628851E+03  0.71137538371E+03  0.12509177332E+03 0.  0.
          5    1    3    3  502    0  0.13438807388E+03  0.83512038676E+02 -0.67093144318E+03  0.68934816229E+03  0.41800000000E+01 0.  1.
         -5    1    3    3    0  502 -0.15666949254E+02  0.67468416562E+01 -0.13294845333E+02  0.22027221425E+02  0.41800000000E+01 0.  1.
        -11    1    1    2    0    0  0.78837652564E+01 -0.35903451588E+02 -0.97634944472E+02  0.10432542342E+03  0.00000000000E+00 0.  1.
         11    1    1    2    0    0 -0.12660488989E+03 -0.54355428744E+02 -0.44839343345E+03  0.46908419494E+03  0.00000000000E+00 0. -1.
</event>
<event>
 7    1  0.2651429E-009  0.1196340E+03  0.7561462E-02  0.1243702E+00
         -2   -1    0    0    0  501 -0.00000000000E+00  0.00000000000E+00  0.40242021449E+03  0.40242021449E+03  0.00000000000E+00 0.  1.
          2   -1    0    0  501    0  0.00000000000E+00 -0.00000000000E+00 -0.58367295587E+02  0.58367295587E+02  0.00000000000E+00 0. -1.
         25    2    1    2    0    0  0.19725857972E+02  0.69020298054E+02  0.30710371844E+03  0.33928383081E+03  0.12509161825E+03 0.  0.
          5    1    3    3  502    0  0.53358030599E+02 -0.23737189392E+01  0.62966535289E+02  0.82673883042E+02  0.41800000000E+01 0. -1.
         -5    1    3    3    0  502 -0.33632172626E+02  0.71394016993E+02  0.24413718315E+03  0.25660994777E+03  0.41800000000E+01 0. -1.
        -11    1    1    2    0    0 -0.39405187237E+02 -0.50406483179E+01 -0.84597769436E+01  0.40617049900E+02  0.00000000000E+00 0.  1.
         11    1    1    2    0    0  0.19679329264E+02 -0.63979649736E+02  0.45408977404E+02  0.80886629362E+02  0.00000000000E+00 0. -1.
</event>
<event>
 7    1  0.2651429E-009  0.2073287E+03  0.7561462E-02  0.1143699E+00
          2   -1    0    0  501    0  0.00000000000E+00  0.00000000000E+00  0.29361049585E+03  0.29361049585E+03  0.00000000000E+00 0. -1.
         -2   -1    0    0    0  501 -0.00000000000E+00 -0.00000000000E+00 -0.17213917137E+03  0.17213917137E+03  0.00000000000E+00 0.  1.
         25    2    1    2    0    0  0.15115241848E+03  0.95199679896E+02 -0.22130133023E+02  0.21918804846E+03  0.12507447836E+03 0.  0.
          5    1    3    3  502    0 -0.12240189384E+02  0.41926851327E+02  0.81662989607E+01  0.44630078838E+02  0.41800000000E+01 0. -1.
         -5    1    3    3    0  502  0.16339260787E+03  0.53272828569E+02 -0.30296431984E+02  0.17455796963E+03  0.41800000000E+01 0. -1.
        -11    1    1    2    0    0 -0.13746909648E+03 -0.41706391062E+02  0.11699429287E+03  0.18526964162E+03  0.00000000000E+00 0. -1.
         11    1    1    2    0    0 -0.13683322001E+02 -0.53493288834E+02  0.26607164633E+02  0.61291977134E+02  0.00000000000E+00 0.  1.
</event>
<event>
 7    1  0.2651429E-009  0.1086493E+03  0.7561462E-02  0.1263092E+00
          1   -1    0    0  501    0  0.00000000000E+00  0.00000000000E+00  0.61557754951E+03  0.61557754951E+03  0.00000000000E+00 0. -1.
         -1   -1    0    0    0  501 -0.00000000000E+00 -0.00000000000E+00 -0.22106663405E+02  0.22106663405E+02  0.00000000000E+00 0.  1.
         25    2    1    2    0    0  0.20235902313E+02 -0.27597423712E+02  0.40946011205E+03  0.42950555966E+03  0.12508530244E+03 0.  0.
          5    1    3    3  502    0 -0.47015415552E+02 -0.28749224914E+02  0.11721329528E+03  0.12958933684E+03  0.41800000000E+01 0.  1.
         -5    1    3    3    0  502  0.67251317865E+02  0.11518012020E+01  0.29224681677E+03  0.29991622282E+03  0.41800000000E+01 0.  1.
        -11    1    1    2    0    0 -0.54602902501E+02  0.83105969257E+01  0.13063235343E+03  0.14182861046E+03  0.00000000000E+00 0. -1.
         11    1    1    2    0    0  0.34367000189E+02  0.19286826787E+02  0.53378420625E+02  0.66350042788E+02  0.00000000000E+00 0.  1.
</event>
<event>
 7    1  0.2651429E-009  0.9670718E+02  0.7561462E-02  0.1287377E+00
          3   -1    0    0  501    0  0.00000000000E+00  0.00000000000E+00  0.17348152387E+03  0.17348152387E+03  0.00000000000E+00 0. -1.
         -3   -1    0    0    0  501 -0.00000000000E+00 -0.00000000000E+00 -0.95888535823E+02  0.95888535823E+02  0.00000000000E+00 0.  1.
         25    2    1    2    0    0 -0.53903490177E+02 -0.52072297706E+02  0.60605551240E+02  0.15791151294E+03  0.12508358260E+03 0.  0.
          5    1    3    3  502    0  0.11208838382E+01 -0.53912125065E+02 -0.22135390100E+02  0.58439896513E+02  0.41800000000E+01 0. -1.
         -5    1    3    3    0  502 -0.55024374015E+02  0.18398273582E+01  0.82740941340E+02  0.99471616425E+02  0.41800000000E+01 0. -1.
        -11    1    1    2    0    0  0.83002032359E+01  0.34104350952E+02  0.43370061823E+02  0.55793927896E+02  0.00000000000E+00 0. -1.
         11    1    1    2    0    0  0.45603286941E+02  0.17967946755E+02 -0.26382625013E+02  0.55664618861E+02  0.00000000000E+00 0.  1.
</event>
<event>
 7    1  0.2651429E-009  0.1342310E+03  0.7561462E-02  0.1221309E+00
          1   -1    0    0  501    0  0.00000000000E+00  0.00000000000E+00  0.11318397210E+03  0.11318397210E+03  0.00000000000E+00 0. -1.
         -1   -1    0    0    0  501 -0.00000000000E+00 -0.00000000000E+00 -0.18799877294E+03  0.18799877294E+03  0.00000000000E+00 0.  1.
         25    2    1    2    0    0  0.57509900694E+02  0.71238937883E+02 -0.75991757683E+02  0.17264003761E+03  0.12508980934E+03 0.  0.
          5    1    3    3  502    0  0.90670217566E+02  0.54408458161E+02 -0.23882234700E+02  0.10848595396E+03  0.41800000000E+01 0. -1.
         -5    1    3    3    0  502 -0.33160316872E+02  0.16830479722E+02 -0.52109522983E+02  0.64154083644E+02  0.41800000000E+01 0. -1.
        -11    1    1    2    0    0 -0.75337638304E+02 -0.31492949029E+02  0.14621718566E+02  0.82953964568E+02  0.00000000000E+00 0. -1.
         11    1    1    2    0    0  0.17827737610E+02 -0.39745988854E+02 -0.13444761724E+02  0.45588742866E+02  0.00000000000E+00 0.  1.
</event>
<event>
 7    1  0.2651429E-009  0.1454531E+03  0.7561462E-02  0.1206174E+00
          2   -1    0    0  501    0  0.00000000000E+00  0.00000000000E+00  0.16414938215E+03  0.16414938215E+03  0.00000000000E+00 0. -1.
         -2   -1    0    0    0  501 -0.00000000000E+00 -0.00000000000E+00 -0.19349263610E+03  0.19349263610E+03  0.00000000000E+00 0.  1.
         25    2    1    2    0    0 -0.12215067104E+03  0.29867457905E+02  0.48648711065E+02  0.18391992485E+03  0.12508792983E+03 0.  0.
          5    1    3    3  502    0 -0.24324716496E+02 -0.14921077234E+02  0.68598432539E+02  0.74414701002E+02  0.41800000000E+01 0.  1.
         -5    1    3    3    0  502 -0.97825954545E+02  0.44788535139E+02 -0.19949721474E+02  0.10950522385E+03  0.41800000000E+01 0.  1.
        -11    1    1    2    0    0  0.52979289014E+02  0.31743266899E+02 -0.40118222940E+02  0.73647212233E+02  0.00000000000E+00 0. -1.
         11    1    1    2    0    0  0.69171382027E+02 -0.61610724804E+02 -0.37873742075E+02  0.10007488117E+03  0.00000000000E+00 0.  1.
</event>
<event>
 7    1  0.2651429E-009  0.1042080E+03  0.7561462E-02  0.1271688E+00
          1   -1    0    0  501    0  0.00000000000E+00  0.00000000000E+00  0.20531708199E+03  0.20531708199E+03  0.00000000000E+00 0. -1.
         -1   -1    0    0    0  501 -0.00000000000E+00 -0.00000000000E+00 -0.10477283165E+03  0.10477283165E+03  0.00000000000E+00 0.  1.
         25    2    1    2    0    0 -0.83406856646E+01  0.81647273089E+02  0.11105189461E+03  0.18632434545E+03  0.12509354168E+03 0.  0.
          5    1    3    3  502    0 -0.33798624811E+02  0.91268601839E+02  0.31877210947E+02  0.10249845705E+03  0.41800000000E+01 0. -1.
         -5    1    3    3    0  502  0.25457939147E+02 -0.96213287500E+01  0.79174683658E+02  0.83825888393E+02  0.41800000000E+01 0. -1.
        -11    1    1    2    0    0 -0.63345174371E+00 -0.60372742638E+02  0.37093144884E+02  0.70860219532E+02  0.00000000000E+00 0. -1.
         11    1    1    2    0    0  0.89741374083E+01 -0.21274530452E+02 -0.47600789154E+02  0.52905348655E+02  0.00000000000E+00 0.  1.
</event>
<event>
 7    1  0.2651429E-009  0.1069190E+03  0.7561462E-02  0.1266384E+00
          2   -1    0    0  501    0  0.00000000000E+00  0.00000000000E+00  0.35190420533E+03  0.35190420533E+03  0.00000000000E+00 0. -1.
         -2   -1    0    0    0  501 -0.00000000000E+00 -0.00000000000E+00 -0.39163074959E+02  0.39163074959E+02  0.00000000000E+00 0.  1.
         25    2    1    2    0    0  0.25368001279E+02  0.36255966620E+02  0.19512085151E+03  0.23596122369E+03  0.12509005471E+03 0.  0.
          5    1    3    3  502    0  0.33288111081E+01 -0.40831098983E+02  0.11661614764E+03  0.12367318997E+03  0.41800000000E+01 0. -1.
         -5    1    3    3    0  502  0.22039190171E+02  0.77087065602E+02  0.78504703863E+02  0.11228803371E+03  0.41800000000E+01 0. -1.
        -11    1    1    2    0    0 -0.32689314654E+02 -0.59563368068E+02  0.11039795219E+03  0.12963060578E+03  0.00000000000E+00 0. -1.
         11    1    1    2    0    0  0.73213133754E+01  0.23307401448E+02  0.72223266766E+01  0.25475450819E+02  0.00000000000E+00 0.  1.
</event>
<event>
 7    1  0.2651429E-009  0.1002079E+03  0.7561462E-02  0.1279859E+00
          2   -1    0    0  501    0  0.00000000000E+00  0.00000000000E+00  0.93230924242E+02  0.93230924242E+02  0.00000000000E+00 0. -1.
         -2   -1    0    0    0  501 -0.00000000000E+00 -0.00000000000E+00 -0.14012967940E+03  0.14012967940E+03  0.00000000000E+00 0.  1.
         25    2    1    2    0    0 -0.34412697047E+02  0.48580827327E+01 -0.14937868070E+02  0.13068461131E+03  0.12508993982E+03 0.  0.
          5    1    3    3  502    0  0.28167056846E+02 -0.41481974659E+02 -0.15673324867E+02  0.52699742176E+02  0.41800000000E+01 0.  1.
         -5    1    3    3    0  502 -0.62579753894E+02  0.46340057392E+02  0.73545679716E+00  0.77984869130E+02  0.41800000000E+01 0.  1.
        -11    1    1    2    0    0 -0.18138404588E+02  0.46263072376E+01  0.20539835851E+02  0.27790093494E+02  0.00000000000E+00 0. -1.
         11    1    1    2    0    0  0.52551101635E+02 -0.94843899703E+01 -0.52500722935E+02  0.74885898838E+02  0.00000000000E+00 0.  1.
</event>
<event>
 6    1  0.2651429E-009  0.6971361E+02  0.7561462E-02  0.1361070E+00
         -1   -1    0    0    0  501 -0.00000000000E+00  0.00000000000E+00  0.17483909173E+02  0.17483909173E+02  0.00000000000E+00 0.  1.
          1   -1    0    0  501    0  0.00000000000E+00 -0.00000000000E+00 -0.74524561616E+03  0.74524561616E+03  0.00000000000E+00 0. -1.
          5    1    1    2  502    0 -0.61447846002E+01 -0.29550996814E+01  0.83203112426E+01  0.11540839271E+02  0.41800000000E+01 0.  1.
         -5    1    1    2    0  502  0.26702139503E+02  0.28650711758E+02 -0.37825081903E+03  0.38029596637E+03  0.41800000000E+01 0.  1.
        -11    1    1    2    0    0  0.14893267655E+01 -0.55194884873E+02 -0.27111510097E+03  0.27668048609E+03  0.00000000000E+00 0. -1.
         11    1    1    2    0    0 -0.22046681668E+02  0.29499272796E+02 -0.86716098225E+02  0.94212233598E+02  0.00000000000E+00 0.  1.
</event>
<event>
 7    1  0.2651429E-009  0.1141561E+03  0.7561462E-02  0.1253061E+00
         -1   -1    0    0    0  501 -0.00000000000E+00  0.00000000000E+00  0.18823520578E+02  0.18823520578E+02  0.00000000000E+00 0.  1.
          1   -1    0    0  501    0  0.00000000000E+00 -0.00000000000E+00 -0.87967110377E+03  0.87967110377E+03  0.00000000000E+00 0. -1.
         25    2    1    2    0    0  0.11517161679E+01 -0.31135317059E+02 -0.29942083992E+03  0.32599424748E+03  0.12509466653E+03 0.  0.
          5    1    3    3  502    0  0.44434577134E+02  0.21064692837E+02 -0.63135662859E+02  0.80135742675E+02  0.41800000000E+01 0. -1.
         -5    1    3    3    0  502 -0.43282860966E+02 -0.52200009897E+02 -0.23628517706E+03  0.24585850481E+03  0.41800000000E+01 0. -1.
        -11    1    1    2    0    0  0.42096065041E+02 -0.17808098617E+02 -0.19382743407E+03  0.19914387077E+03  0.00000000000E+00 0.  1.
         11    1    1    2    0    0 -0.43247781208E+02  0.48943415676E+02 -0.36759930920E+03  0.37335650610E+03  0.00000000000E+00 0. -1.
</event>
<event>
 7    1  0.2651429E-009  0.1104890E+03  0.7561462E-02  0.1259667E+00
         -2   -1    0    0    0  501 -0.00000000000E+00  0.00000000000E+00  0.66574747142E+02  0.66574747142E+02  0.00000000000E+00 0. -1.
          2   -1    0    0  501    0  0.00000000000E+00 -0.00000000000E+00 -0.23138252054E+03  0.23138252054E+03  0.00000000000E+00 0.  1.
         25    2    1    2    0    0 -0.24338849096E+02 -0.21197994290E+02 -0.31087338767E+02  0.13287253951E+03  0.12508778752E+03 0.  0.
          5    1    3    3  502    0 -0.59598185552E+02 -0.50453700137E+02 -0.15757329052E+01  0.78214288418E+02  0.41800000000E+01 0.  1.
         -5    1    3    3    0  502  0.35259336457E+02  0.29255705847E+02 -0.29511605861E+02  0.54658251092E+02  0.41800000000E+01 0.  1.
        -11    1    1    2    0    0  0.22077581583E+02 -0.34537995103E+02 -0.54458456191E+02  0.68161691330E+02  0.00000000000E+00 0.  1.
         11    1    1    2    0    0  0.22612675128E+01  0.55735989393E+02 -0.79261978445E+02  0.96923036846E+02  0.00000000000E+00 0. -1.
</event>
<event>
 7    1  0.2651429E-009  0.1226748E+03  0.7561462E-02  0.1238749E+00
         -1   -1    0    0    0  501 -0.00000000000E+00  0.00000000000E+00  0.16759832085E+02  0.16759832085E+02  0.00000000000E+00 0.  1.
          1   -1    0    0  501    0  0.00000000000E+00 -0.00000000000E+00 -0.20463190920E+04  0.20463190920E+04  0.00000000000E+00 0. -1.
         25    2    1    2    0    0 -0.12231817129E+02 -0.81029436509E+02 -0.17690625975E+04  0.17753715763E+04  0.12508546422E+03 0.  0.
          5    1    3    3  502    0  0.37532891744E+02  0.11716956334E+01 -0.93818187247E+03  0.93894237792E+03  0.41800000000E+01 0. -1.
         -5    1    3    3    0  502 -0.49764708873E+02 -0.82201132143E+02 -0.83088072502E+03  0.83642919843E+03  0.41800000000E+01 0. -1.
        -11    1    1    2    0    0 -0.20587754931E+02 -0.33394048355E+01 -0.14018189132E+02  0.25130000085E+02  0.00000000000E+00 0.  1.
         11    1    1    2    0    0  0.32819572060E+02  0.84368841345E+02 -0.24647847331E+03  0.26257734767E+03  0.00000000000E+00 0. -1.
</event>
<event>
 7    1  0.2651429E-009  0.1662558E+03  0.7561462E-02  0.1181810E+00
         -1   -1    0    0    0  501 -0.00000000000E+00  0.00000000000E+00  0.18654127208E+03  0.18654127208E+03  0.00000000000E+00 0.  1.
          1   -1    0    0  501    0  0.00000000000E+00 -0.00000000000E+00 -0.18347271023E+03  0.18347271023E+03  0.00000000000E+00 0. -1.
         25    2    1    2    0    0 -0.12110083944E+03  0.82001103239E+02 -0.31805113652E+02  0.19505755230E+03  0.12508512784E+03 0.  0.
          5    1    3    3  502    0 -0.20187013816E+02 -0.26403271431E+02 -0.32810991306E+02  0.46890103642E+02  0.41800000000E+01 0.  1.
         -5    1    3    3    0  502 -0.10091382563E+03  0.10840437467E+03  0.10058776543E+01  0.14816744865E+03  0.41800000000E+01 0.  1.
        -11    1    1    2    0    0  0.11283537671E+02 -0.24309260337E+02 -0.25502060434E+02  0.36994775941E+02  0.00000000000E+00 0. -1.
         11    1    1    2    0    0  0.10981730177E+03 -0.57691842902E+02  0.60375735929E+02  0.13796165408E+03  0.00000000000E+00 0.  1.
</event>
<event>
 7    1  0.2651429E-009  0.7094941E+02  0.7561462E-02  0.1356894E+00
         -2   -1    0    0    0  501 -0.00000000000E+00  0.00000000000E+00  0.12192316440E+03  0.12192316440E+03  0.00000000000E+00 0.  1.
          2   -1    0    0  501    0  0.00000000000E+00 -0.00000000000E+00 -0.17005976366E+03  0.17005976366E+03  0.00000000000E+00 0. -1.
         25    2    1    2    0    0  0.52167677510E+02  0.76832882513E+01  0.53331809967E+02  0.14585082301E+03  0.12509069159E+03 0.  0.
          5    1    3    3  502    0  0.21611622997E+02 -0.59748697841E+01  0.91857067484E+02  0.94646471483E+02  0.41800000000E+01 0.  1.
         -5    1    3    3    0  502  0.30556054513E+02  0.13658158035E+02 -0.38525257517E+02  0.51204351525E+02  0.41800000000E+01 0.  1.
        -11    1    1    2    0    0 -0.60621672274E+02 -0.25401801895E+02 -0.10714205619E+03  0.12569669404E+03  0.00000000000E+00 0. -1.
         11    1    1    2    0    0  0.84539947634E+01  0.17718513643E+02  0.56736469685E+01  0.20435411009E+02  0.00000000000E+00 0.  1.
</event>
<event>
 7    1  0.2651429E-009  0.1417184E+03  0.7561462E-02  0.1211035E+00
          1   -1    0    0  501    0  0.00000000000E+00  0.00000000000E+00  0.25867837648E+02  0.25867837648E+02  0.00000000000E+00 0. -1.
         -1   -1    0    0    0  501 -0.00000000000E+00 -0.00000000000E+00 -0.91395636184E+03  0.91395636184E+03  0.00000000000E+00 0.  1.
         25    2    1    2    0    0  0.60437806657E+02  0.84901110883E+02 -0.51907788361E+03  0.54401280114E+03  0.12508857438E+03 0.  0.
          5    1    3    3  502    0 -0.22963629069E+02  0.75205250724E+02 -0.24977171660E+03  0.26189032210E+03  0.41800000000E+01 0. -1.
         -5    1    3    3    0  502  0.83401435727E+02  0.96958601585E+01 -0.26930616701E+03  0.28212247903E+03  0.41800000000E+01 0. -1.
        -11    1    1    2    0    0 -0.46408718460E+02 -0.14180305711E+02 -0.53764637514E+02  0.72425730692E+02  0.00000000000E+00 0. -1.
         11    1    1    2    0    0 -0.14029088197E+02 -0.70720805172E+02 -0.31524600306E+03  0.32338566766E+03  0.00000000000E+00 0.  1.
</event>
<event>
 7    1  0.2651429E-009  0.1406889E+03  0.7561462E-02  0.1212405E+00
          1   -1    0    0  501    0  0.00000000000E+00  0.00000000000E+00  0.39920095940E+03  0.39920095940E+03  0.00000000000E+00 0. -1.
         -1   -1    0    0    0  501 -0.00000000000E+00 -0.00000000000E+00 -0.75854885428E+02  0.75854885428E+02  0.00000000000E+00 0.  1.
         25    2    1    2    0    0  0.12342880485E+03 -0.26860431548E+02  0.10177702137E+03  0.20484868283E+03  0.12509303789E+03 0.  0.
          5    1    3    3  502    0  0.95165870535E+02 -0.58732236762E+02  0.11458948567E+03  0.16016941398E+03  0.41800000000E+01 0.  1.
         -5    1    3    3    0  502  0.28262934313E+02  0.31871805214E+02 -0.12812464294E+02  0.44679268849E+02  0.41800000000E+01 0.  1.
        -11    1    1    2    0    0 -0.83128612583E+02  0.13552953896E+02  0.20993540696E+03  0.22620106959E+03  0.00000000000E+00 0. -1.
         11    1    1    2    0    0 -0.40300192265E+02  0.13307477652E+02  0.11633645643E+02  0.44006092408E+02  0.00000000000E+00 0.  1.
</event>
<event>
 7    1  0.2651429E-009  0.1061449E+03  0.7561462E-02  0.1267880E+00
         -1   -1    0    0    0  501 -0.00000000000E+00  0.00000000000E+00  0.26616168688E+02  0.26616168688E+02  0.00000000000E+00 0.  1.
          1   -1    0    0  501    0  0.00000000000E+00 -0.00000000000E+00 -0.46082332428E+03  0.46082332428E+03  0.00000000000E+00 0. -1.
         25    2    1    2    0    0  0.36950137745E+02 -0.37739279557E+01 -0.25605490311E+03  0.28738083279E+03  0.12507627447E+03 0.  0.
          5    1    3    3  502    0 -0.18512209893E+02  0.46348260579E+02 -0.64134561405E+02  0.81373076262E+02  0.41800000000E+01 0. -1.
         -5    1    3    3    0  502  0.55462347638E+02 -0.50122188535E+02 -0.19192034171E+03  0.20600775653E+03  0.41800000000E+01 0. -1.
        -11    1    1    2    0    0 -0.56438020123E+02  0.22074115879E+02 -0.94712974653E+02  0.11244138151E+03  0.00000000000E+00 0.  1.
         11    1    1    2    0    0  0.19487882377E+02 -0.18300187923E+02 -0.83439277822E+02  0.87617278667E+02  0.00000000000E+00 0. -1.
</event>
<event>
 7    1  0.2651429E-009  0.7232670E+02  0.7561462E-02  0.1352355E+00
          2   -1    0    0  501    0  0.00000000000E+00  0.00000000000E+00  0.62275768317E+03  0.62275768317E+03  0.00000000000E+00 0. -1.
         -2   -1    0    0    0  501 -0.00000000000E+00 -0.00000000000E+00 -0.19776860534E+02  0.19776860534E+02  0.00000000000E+00 0.  1.
         25    2    1    2    0    0  0.11021873168E+02 -0.15108219818E+02  0.36053607274E+03  0.38207879370E+03  0.12509278498E+03 0.  0.
          5    1    3    3  502    0 -0.36428337050E+01 -0.30894106125E+02  0.35868174699E+03  0.36005247403E+03  0.41800000000E+01 0. -1.
         -5    1    3    3    0  502  0.14664706873E+02  0.15785886307E+02  0.18543257486E+01  0.22026319669E+02  0.41800000000E+01 0. -1.
        -11    1    1    2    0    0 -0.46174074677E+00  0.52480213689E+02  0.10159290979E+03  0.11434817600E+03  0.00000000000E+00 0. -1.
         11    1    1    2    0    0 -0.10560132422E+02 -0.37371993871E+02  0.14085184011E+03  0.14610757401E+03  0.00000000000E+00 0.  1.
</event>
<event>
 7    1  0.2651429E-009  0.7725604E+02  0.7561462E-02  0.1337024E+00
         -1   -1    0    0    0  501 -0.00000000000E+00  0.00000000000E+00  0.21248867533E+03  0.21248867533E+03  0.00000000000E+00 0.  1.
          1   -1    0    0  501    0  0.00000000000E+00 -0.00000000000E+00 -0.23978082227E+03  0.23978082227E+03  0.00000000000E+00 0. -1.
         25    2    1    2    0    0 -0.42550857793E+02 -0.52121447934E+01  0.16784338031E+03  0.21367354775E+03  0.12508893933E+03 0.  0.
          5    1    3    3  502    0 -0.87800750610E+01  0.17081105566E+02 -0.16024180788E+02  0.25359429319E+02  0.41800000000E+01 0.  1.
         -5    1    3    3    0  502 -0.33770782732E+02 -0.22293250360E+02  0.18386756109E+03  0.18831411843E+03  0.41800000000E+01 0.  1.
        -11    1    1    2    0    0  0.39218143760E+02 -0.35756836477E+02 -0.18987958045E+03  0.19715696596E+03  0.00000000000E+00 0. -1.
         11    1    1    2    0    0  0.33327140321E+01  0.40968981271E+02 -0.52559467875E+01  0.41438983890E+02  0.00000000000E+00 0.  1.
</event>
<event>
 7    1  0.2651429E-009  0.1091698E+03  0.7561462E-02  0.1262115E+00
          2   -1    0    0  501    0  0.00000000000E+00  0.00000000000E+00  0.31204411420E+03  0.31204411420E+03  0.00000000000E+00 0. -1.
         -2   -1    0    0    0  501 -0.00000000000E+00 -0.00000000000E+00 -0.42898260741E+02  0.42898260741E+02  0.00000000000E+00 0.  1.
         25    2    1    2    0    0 -0.25945142070E+02 -0.77504633026E+01  0.10974288529E+03  0.16859566492E+03  0.12509107594E+03 0.  0.
          5    1    3    3  502    0  0.47913126114E+02 -0.19669401377E+02  0.34278898634E+02  0.62250046556E+02  0.41800000000E+01 0. -1.
         -5    1    3    3    0  502 -0.73858268184E+02  0.11918938074E+02  0.75463986655E+02  0.10634561837E+03  0.41800000000E+01 0. -1.
        -11    1    1    2    0    0 -0.32140003388E+02 -0.33394153267E+01  0.30087380996E+02  0.44151806393E+02  0.00000000000E+00 0.  1.
         11    1    1    2    0    0  0.58085145458E+02  0.11089878629E+02  0.12931558718E+03  0.14219490363E+03  0.00000000000E+00 0. -1.
</event>
<event>
 7    1  0.2651429E-009  0.2442088E+03  0.7561462E-02  0.1117020E+00
          2   -1    0    0  501    0  0.00000000000E+00  0.00000000000E+00  0.41598196840E+03  0.41598196840E+03  0.00000000000E+00 0. -1.
         -2   -1    0    0    0  501 -0.00000000000E+00 -0.00000000000E+00 -0.16024654317E+03  0.16024654317E+03  0.00000000000E+00 0.  1.
         25    2    1    2    0    0  0.29358248566E+01  0.22185519612E+03  0.21036712635E+03  0.33034787659E+03  0.12508814735E+03 0.  0.
          5    1    3    3  502    0 -0.60903703670E+02  0.10515808335E+03  0.97917672235E+02  0.15611798920E+03  0.41800000000E+01 0.  1.
         -5    1    3    3    0  502  0.63839528526E+02  0.11669711277E+03  0.11244945411E+03  0.17422988739E+03  0.41800000000E+01 0.  1.
        -11    1    1    2    0    0 -0.34287119179E+02 -0.62084488606E+02 -0.14527133408E+02  0.72395634345E+02  0.00000000000E+00 0.  1.
         11    1    1    2    0    0  0.31351294323E+02 -0.15977070752E+03  0.59895432285E+02  0.17348500063E+03  0.00000000000E+00 0. -1.
</event>
<event>
 7    1  0.2651429E-009  0.8821176E+02  0.7561462E-02  0.1307241E+00
         -1   -1    0    0    0  501 -0.00000000000E+00  0.00000000000E+00  0.45922293406E+02  0.45922293406E+02  0.00000000000E+00 0.  1.
          1   -1    0    0  501    0  0.00000000000E+00 -0.00000000000E+00 -0.30090952999E+03  0.30090952999E+03  0.00000000000E+00 0. -1.
         25    2    1    2    0    0 -0.84096729111E+01  0.50457511131E+02 -0.18707281807E+03  0.23078287939E+03  0.12509122725E+03 0.  0.
          5    1    3    3  502    0  0.38992727885E+02  0.91681161204E+01 -0.15488333140E+03  0.16003376496E+03  0.41800000000E+01 0. -1.
         -5    1    3    3    0  502 -0.47402400796E+02  0.41289395011E+02 -0.32189486666E+02  0.70749114436E+02  0.41800000000E+01 0. -1.
        -11    1    1    2    0    0  0.29580706701E+02 -0.18752088275E+02 -0.69570273317E+02  0.77888907766E+02  0.00000000000E+00 0. -1.
         11    1    1    2    0    0 -0.21171033790E+02 -0.31705422856E+02  0.16558548011E+01  0.38160036233E+02  0.00000000000E+00 0.  1.
</event>
<event>
 7    1  0.2651429E-009  0.1097587E+03  0.7561462E-02  0.1261017E+00
          1   -1    0    0  501    0  0.00000000000E+00  0.00000000000E+00  0.63834298418E+02  0.63834298418E+02  0.00000000000E+00 0. -1.
         -1   -1    0    0    0  501 -0.00000000000E+00 -0.00000000000E+00 -0.29576157054E+03  0.29576157054E+03  0.00000000000E+00 0.  1.
         25    2    1    2    0    0 -0.18984409680E+02 -0.80723989345E+02 -0.99490001118E+02  0.18006014929E+03  0.12508647717E+03 0.  0.
          5    1    3    3  502    0  0.27015601242E+02 -0.85513471459E+02 -0.98966858426E+02  0.13362001339E+03  0.41800000000E+01 0.  1.
         -5    1    3    3    0  502 -0.46000010922E+02  0.47894821139E+01 -0.52314269134E+00  0.46440135896E+02  0.41800000000E+01 0.  1.
        -11    1    1    2    0    0  0.40393319420E+01  0.34206051433E+02 -0.12555480950E+03  0.13019362636E+03  0.00000000000E+00 0.  1.
         11    1    1    2    0    0  0.14945077738E+02  0.46517937912E+02 -0.68824615102E+01  0.49342093314E+02  0.00000000000E+00 0. -1.
</event>
<event>
 7    1  0.2651429E-009  0.1093768E+03  0.7561462E-02  0.1261728E+00
         -2   -1    0    0    0  501 -0.00000000000E+00  0.00000000000E+00  0.25532389584E+02  0.25532389584E+02  0.00000000000E+00 0.  1.
          2   -1    0    0  501    0  0.00000000000E+00 -0.00000000000E+00 -0.60942065829E+03  0.60942065829E+03  0.00000000000E+00 0. -1.
         25    2    1    2    0    0 -0.22307196952E+02 -0.45555181188E+02 -0.23763082887E+03  0.27329188937E+03  0.12508861020E+03 0.  0.
          5    1    3    3  502    0  0.42749445952E+02 -0.22537375649E+02 -0.36776638924E+02  0.60872341838E+02  0.41800000000E+01 0.  1.
         -5    1    3    3    0  502 -0.65056642904E+02 -0.23017805539E+02 -0.20085418994E+03  0.21241954754E+03  0.41800000000E+01 0.  1.
        -11    1    1    2    0    0 -0.31574712135E+02  0.33228532141E+02 -0.11297524162E+03  0.12192006814E+03  0.00000000000E+00 0.  1.
         11    1    1    2    0    0  0.53881909087E+02  0.12326649047E+02 -0.23328219822E+03  0.23974109036E+03  0.00000000000E+00 0. -1.
</event>
<event>
 7    1  0.2651429E-009  0.2175799E+03  0.7561462E-02  0.1135700E+00
         -3   -1    0    0    0  501 -0.00000000000E+00  0.00000000000E+00  0.52291613504E+02  0.52291613504E+02  0.00000000000E+00 0.  1.
          3   -1    0    0  501    0  0.00000000000E+00 -0.00000000000E+00 -0.10329995909E+04  0.10329995909E+04  0.00000000000E+00 0. -1.
         25    2    1    2    0    0  0.33962321041E+02  0.20330272850E+03 -0.41219299618E+03  0.47753095021E+03  0.12508918276E+03 0.  0.
          5    1    3    3  502    0 -0.21991163971E+02  0.12810295042E+03 -0.14719086977E+03  0.19640927102E+03  0.41800000000E+01 0. -1.
         -5    1    3    3    0  502  0.55953485012E+02  0.75199778079E+02 -0.26500212641E+03  0.28112167919E+03  0.41800000000E+01 0. -1.
        -11    1    1    2    0    0  0.86644290368E+01 -0.86844077766E+02 -0.29078273237E+03  0.30359770028E+03  0.00000000000E+00 0. -1.
         11    1    1    2    0    0 -0.42626750078E+02 -0.11645865074E+03 -0.27773224889E+03  0.30416255395E+03  0.00000000000E+00 0.  1.
</event>
<event>
 7    1  0.2651429E-009  0.8619920E+02  0.7561462E-02  0.1312326E+00
         -4   -1    0    0    0  501 -0.00000000000E+00  0.00000000000E+00  0.77811180909E+02  0.77811180909E+02  0.00000000000E+00 0.  1.
          4   -1    0    0  501    0  0.00000000000E+00 -0.00000000000E+00 -0.17550107993E+03  0.17550107993E+03  0.00000000000E+00 0. -1.
         25    2    1    2    0    0  0.16987647675E+02  0.37751140771E+02 -0.47843024818E+02  0.14017948222E+03  0.12509038096E+03 0.  0.
          5    1    3    3  502    0  0.34665787064E+02 -0.25945715635E+02 -0.58696918477E+02  0.73059548255E+02  0.41800000000E+01 0.  1.
         -5    1    3    3    0  502 -0.17678139389E+02  0.63696856406E+02  0.10853893659E+02  0.67119933968E+02  0.41800000000E+01 0.  1.
        -11    1    1    2    0    0  0.15530079618E+02 -0.20892873752E+02  0.20954295473E+02  0.33418229237E+02  0.00000000000E+00 0.  1.
         11    1    1    2    0    0 -0.32517727293E+02 -0.16858267019E+02 -0.70801169675E+02  0.79714549378E+02  0.00000000000E+00 0. -1.
</event>
<event>
 7    1  0.2651429E-009  0.1125528E+03  0.7561462E-02  0.1255914E+00
         -1   -1    0    0    0  501 -0.00000000000E+00  0.00000000000E+00  0.61389868846E+02  0.61389868846E+02  0.00000000000E+00 0.  1.
          1   -1    0    0  501    0  0.00000000000E+00 -0.00000000000E+00 -0.28925438316E+03  0.28925438316E+03  0.00000000000E+00 0. -1.
         25    2    1    2    0    0 -0.40911609119E+02 -0.65654219345E+02 -0.13890392584E+03  0.20230413282E+03  0.12509366596E+03 0.  0.
          5    1    3    3  502    0  0.39665094894E+02 -0.51098236125E+02 -0.55260105086E+02  0.85179229288E+02  0.41800000000E+01 0. -1.
         -5    1    3    3    0  502 -0.80576704013E+02 -0.14555983220E+02 -0.83643820752E+02  0.11712490353E+03  0.41800000000E+01 0. -1.
        -11    1    1    2    0    0  0.15524412552E+01  0.10066111694E+02  0.18496360973E+02  0.21115208920E+02  0.00000000000E+00 0.  1.
         11    1    1    2    0    0  0.39359167864E+02  0.55588107651E+02 -0.10745694945E+03  0.12722491026E+03  0.00000000000E+00 0. -1.
</event>
<event>
 7    1  0.2651429E-009  0.1387032E+03  0.7561462E-02  0.1215085E+00
          2   -1    0    0  501    0  0.00000000000E+00  0.00000000000E+00  0.44122087231E+03  0.44122087231E+03  0.00000000000E+00 0. -1.
         -2   -1    0    0    0  501 -0.00000000000E+00 -0.00000000000E+00 -0.56674074578E+02  0.56674074578E+02  0.00000000000E+00 0.  1.
         25    2    1    2    0    0 -0.10766536344E+03 -0.74501985560E+01  0.26847541049E+03  0.31523715513E+03  0.12509229391E+03 0.  0.
          5    1    3    3  502    0 -0.99209879896E+02 -0.46811512206E+02  0.12595653177E+03  0.16708213022E+03  0.41800000000E+01 0.  1.
         -5    1    3    3    0  502 -0.84554835399E+01  0.39361313650E+02  0.14251887872E+03  0.14815502491E+03  0.41800000000E+01 0.  1.
        -11    1    1    2    0    0  0.24949411240E+02  0.32272217112E+02  0.78526492126E+02  0.88489429223E+02  0.00000000000E+00 0. -1.
         11    1    1    2    0    0  0.82715952196E+02 -0.24822018557E+02  0.37544895115E+02  0.94168362533E+02  0.00000000000E+00 0.  1.
</event>
<event>
 7    1  0.2651429E-009  0.1727591E+03  0.7561462E-02  0.1175001E+00
         -1   -1    0    0    0  501 -0.00000000000E+00  0.00000000000E+00  0.80873699581E+02  0.80873699581E+02  0.00000000000E+00 0.  1.
          1   -1    0    0  501    0  0.00000000000E+00 -0.00000000000E+00 -0.44684067774E+03  0.44684067774E+03  0.00000000000E+00 0. -1.
         25    2    1    2    0    0 -0.69882592270E+02  0.11740976292E+03 -0.87922021153E+02  0.20505167388E+03  0.12508908036E+03 0.  0.
          5    1    3    3  502    0 -0.96285468581E+02  0.12130662300E+03 -0.59841025649E+02  0.16608614931E+03  0.41800000000E+01 0. -1.
         -5    1    3    3    0  502  0.26402876311E+02 -0.38968600804E+01 -0.28080995504E+02  0.38965524564E+02  0.41800000000E+01 0. -1.
        -11    1    1    2    0    0 -0.16081663913E+02 -0.55106772403E+02 -0.10404269584E+03  0.11882869534E+03  0.00000000000E+00 0.  1.
         11    1    1    2    0    0  0.85964256183E+02 -0.62302990515E+02 -0.17400226117E+03  0.20383400810E+03  0.00000000000E+00 0. -1.
</event>
<event>
 7    1  0.2651429E-009  0.1064044E+03  0.7561462E-02  0.1267377E+00
         -2   -1    0    0    0  501 -0.00000000000E+00  0.00000000000E+00  0.12354548252E+03  0.12354548252E+03  0.00000000000E+00 0.  1.
          2   -1    0    0  501    0  0.00000000000E+00 -0.00000000000E+00 -0.24073141646E+03  0.24073141646E+03  0.00000000000E+00 0. -1.
         25    2    1    2    0    0  0.20986925845E+02  0.84718760634E+02 -0.16851117806E+03  0.22729080234E+03  0.12508945693E+03 0.  0.
          5    1    3    3  502    0  0.20789503773E+02 -0.42910446392E+01 -0.12728038908E+03  0.12910610510E+03  0.41800000000E+01 0.  1.
         -5    1    3    3    0  502  0.19742207238E+00  0.89009805273E+02 -0.41230788983E+02  0.98184697231E+02  0.41800000000E+01 0.  1.
        -11    1    1    2    0    0 -0.33981547470E+02 -0.28459157152E+02  0.64019494521E+02  0.77866326952E+02  0.00000000000E+00 0.  1.
         11    1    1    2    0    0  0.12994621625E+02 -0.56259603482E+02 -0.12694250393E+02  0.59119769690E+02  0.00000000000E+00 0. -1.
</event>
<event>
 7    1  0.5310388E-009  0.1953814E+03  0.7561462E-02  0.1153695E+00
         -1   -1    0    0    0  501 -0.00000000000E+00  0.00000000000E+00  0.75004710825E+02  0.75004710825E+02  0.00000000000E+00 0.  1.
          1   -1    0    0  501    0  0.00000000000E+00 -0.00000000000E+00 -0.53598734565E+03  0.53598734565E+03  0.00000000000E+00 0. -1.
         25    2    1    2    0    0  0.15769397950E+03  0.54554973143E+02 -0.20851355485E+03  0.29490479050E+03  0.12508915475E+03 0.  0.
          5    1    3    3  502    0 -0.15958870679E+02  0.23448765101E+02 -0.12847762755E+02  0.31417631131E+02  0.41800000000E+01 0. -1.
         -5    1    3    3    0  502  0.17365285017E+03  0.31106208042E+02 -0.19566579210E+03  0.26348715936E+03  0.41800000000E+01 0. -1.
        -11    1    1    2    0    0 -0.74277461848E+02  0.16454644879E+02 -0.70689534085E+02  0.10385040638E+03  0.00000000000E+00 0.  1.
         11    1    1    2    0    0 -0.83416517648E+02 -0.71009618022E+02 -0.18177954589E+03  0.21223685960E+03  0.00000000000E+00 0. -1.
</event>
<event>
 7    1  0.3293155E-009  0.1629307E+03  0.7561462E-02  0.1185427E+00
         -1   -1    0    0    0  501 -0.00000000000E+00  0.00000000000E+00  0.77228767266E+02  0.77228767266E+02  0.00000000000E+00 0.  1.
          1   -1    0    0  501    0  0.00000000000E+00 -0.00000000000E+00 -0.41414598617E+03  0.41414598617E+03  0.00000000000E+00 0. -1.
         25    2    1    2    0    0  0.42193362303E+02  0.13422624936E+03 -0.15509573001E+03  0.24391857882E+03  0.12507846253E+03 0.  0.
          5    1    3    3  502    0  0.83008556390E+02  0.99928527810E+02 -0.13327845698E+03  0.18616323644E+03  0.41800000000E+01 0. -1.
         -5    1    3    3    0  502 -0.40815194087E+02  0.34297721550E+02 -0.21817273023E+02  0.57755342385E+02  0.41800000000E+01 0. -1.
        -11    1    1    2    0    0 -0.24947759090E+02 -0.44270177716E+02 -0.86405437105E+01  0.51545109508E+02  0.00000000000E+00 0.  1.
         11    1    1    2    0    0 -0.17245603213E+02 -0.89956071644E+02 -0.17318094519E+03  0.19591106511E+03  0.00000000000E+00 0. -1.
</event>
<event>
 7    1  0.2651429E-009  0.1011868E+03  0.7561462E-02  0.1277820E+00
         -1   -1    0    0    0  501 -0.00000000000E+00  0.00000000000E+00  0.14213133384E+02  0.14213133384E+02  0.00000000000E+00 0.  1.
          1   -1    0    0  501    0  0.00000000000E+00 -0.00000000000E+00 -0.14224302157E+04  0.14224302157E+04  0.00000000000E+00 0. -1.
         25    2    1    2    0    0  0.50782887508E+02  0.72492091963E+02 -0.93269814143E+03  0.94520435139E+03  0.12510570649E+03 0.  0.
          5    1    3    3  502    0  0.14695194306E+02  0.14096670639E+02 -0.74522032774E+03  0.74551021062E+03  0.41800000000E+01 0. -1.
         -5    1    3    3    0  502  0.36087693203E+02  0.58395421324E+02 -0.18747781370E+03  0.19969414078E+03  0.41800000000E+01 0. -1.
        -11    1    1    2    0    0 -0.66742000785E+01  0.14118413175E+02 -0.18551821682E+02  0.24249631440E+02  0.00000000000E+00 0.  1.
         11    1    1    2    0    0 -0.44108687430E+02 -0.86610505138E+02 -0.45696711918E+03  0.46718936623E+03  0.00000000000E+00 0. -1.
</event>
<event>
 7    1  0.2651429E-009  0.9851167E+02  0.7561462E-02  0.1283457E+00
          1   -1    0    0  501    0  0.00000000000E+00  0.00000000000E+00  0.25664571523E+03  0.25664571523E+03  0.00000000000E+00 0. -1.
         -1   -1    0    0    0  501 -0.00000000000E+00 -0.00000000000E+00 -0.51036504296E+02  0.51036504296E+02  0.00000000000E+00 0.  1.
         25    2    1    2    0    0 -0.30200272584E+02 -0.10939684711E+02  0.13854391010E+03  0.18940325892E+03  0.12508975297E+03 0.  0.
          5    1    3    3  502    0  0.21363286716E+02  0.31589065667E+02  0.11019209095E+03  0.11667916865E+03  0.41800000000E+01 0.  1.
         -5    1    3    3    0  502 -0.51563559301E+02 -0.42528750379E+02  0.28351819156E+02  0.72724090273E+02  0.41800000000E+01 0.  1.
        -11    1    1    2    0    0  0.12751169643E+02 -0.37815110630E+02  0.98400271623E+01  0.41102324189E+02  0.00000000000E+00 0. -1.
         11    1    1    2    0    0  0.17449102942E+02  0.48754795341E+02  0.57225273670E+02  0.77176636418E+02  0.00000000000E+00 0.  1.
</event>
<event>
 7    1  0.2651429E-009  0.1212135E+03  0.7561462E-02  0.1241108E+00
          2   -1    0    0  501    0  0.00000000000E+00  0.00000000000E+00  0.11939296014E+03  0.11939296014E+03  0.00000000000E+00 0. -1.
         -2   -1    0    0    0  501 -0.00000000000E+00 -0.00000000000E+00 -0.14152865940E+03  0.14152865940E+03  0.00000000000E+00 0.  1.
         25    2    1    2    0    0 -0.15608220994E+02 -0.71702889197E+02 -0.37954028312E+02  0.14990887353E+03  0.12508893322E+03 0.  0.
          5    1    3    3  502    0 -0.63985548074E+02 -0.70749282711E+02 -0.16867487977E+02  0.96961827113E+02  0.41800000000E+01 0.  1.
         -5    1    3    3    0  502  0.48377327079E+02 -0.95360648626E+00 -0.21086540336E+02  0.52947046414E+02  0.41800000000E+01 0.  1.
        -11    1    1    2    0    0 -0.18493849841E+02  0.59254762390E+02 -0.14465287497E+02  0.63736911521E+02  0.00000000000E+00 0.  1.
         11    1    1    2    0    0  0.34102070836E+02  0.12448126807E+02  0.30283616547E+02  0.47275834498E+02  0.00000000000E+00 0. -1.
</event>
<event>
 7    1  0.2651429E-009  0.1373275E+03  0.7561462E-02  0.1216971E+00
          2   -1    0    0  501    0  0.00000000000E+00  0.00000000000E+00  0.37638356897E+03  0.37638356897E+03  0.00000000000E+00 0.  1.
         -2   -1    0    0    0  501 -0.00000000000E+00 -0.00000000000E+00 -0.77320620865E+02  0.77320620865E+02  0.00000000000E+00 0. -1.
         25    2    1    2    0    0  0.84784932717E+02  0.93724435961E+02  0.10707705016E+03  0.20757225705E+03  0.12509193625E+03 0.  0.
          5    1    3    3  502    0  0.76223260234E+02  0.29887362668E+02 -0.65789262233E+00  0.81982590046E+02  0.41800000000E+01 0.  1.
         -5    1    3    3    0  502  0.85616724837E+01  0.63837073293E+02  0.10773494278E+03  0.12558966701E+03  0.41800000000E+01 0. -1.
        -11    1    1    2    0    0 -0.25965050340E+02 -0.44089993418E+02  0.14994472844E+03  0.15843463304E+03  0.00000000000E+00 0.  1.
         11    1    1    2    0    0 -0.58819882377E+02 -0.49634442543E+02  0.42041169504E+02  0.87697299746E+02  0.00000000000E+00 0. -1.
</event>
<event>
 7    1  0.2651429E-009  0.1744170E+03  0.7561462E-02  0.1173318E+00
          1   -1    0    0  501    0  0.00000000000E+00  0.00000000000E+00  0.25470852157E+02  0.25470852157E+02  0.00000000000E+00 0. -1.
         -1   -1    0    0    0  501 -0.00000000000E+00 -0.00000000000E+00 -0.14911135949E+04  0.14911135949E+04  0.00000000000E+00 0.  1.
         25    2    1    2    0    0 -0.11837183665E+03 -0.10038739811E+03 -0.87251621724E+03  0.89499819439E+03  0.12509075586E+03 0.  0.
          5    1    3    3  502    0 -0.22116498437E+02  0.67082860238E+01 -0.40758240473E+03  0.40825853285E+03  0.41800000000E+01 0.  1.
         -5    1    3    3    0  502 -0.96255338211E+02 -0.10709568413E+03 -0.46493381251E+03  0.48673966154E+03  0.41800000000E+01 0.  1.
        -11    1    1    2    0    0  0.13398994420E+03  0.96712674647E+02 -0.56977490121E+03  0.59325381131E+03  0.00000000000E+00 0.  1.
         11    1    1    2    0    0 -0.15618107557E+02  0.36747234602E+01 -0.23351624293E+02  0.28332441358E+02  0.00000000000E+00 0. -1.
</event>
<event>
 7    1  0.2651429E-009  0.8412725E+02  0.7561462E-02  0.1317731E+00
          1   -1    0    0  501    0  0.00000000000E+00  0.00000000000E+00  0.25241864091E+03  0.25241864091E+03  0.00000000000E+00 0. -1.
         -1   -1    0    0    0  501 -0.00000000000E+00 -0.00000000000E+00 -0.62871752119E+02  0.62871752119E+02  0.00000000000E+00 0.  1.
         25    2    1    2    0    0 -0.17468098198E+02 -0.48916111295E+02  0.15012199271E+03  0.20217718956E+03  0.12506431499E+03 0.  0.
          5    1    3    3  502    0 -0.14108163420E+02 -0.53843883304E+02  0.40945355653E+01  0.55968220142E+02  0.41800000000E+01 0.  1.
         -5    1    3    3    0  502 -0.33599347774E+01  0.49277720092E+01  0.14602745714E+03  0.14620896942E+03  0.41800000000E+01 0.  1.
        -11    1    1    2    0    0 -0.33529041837E+02  0.41918233236E+02  0.27335535268E+02  0.60237583057E+02  0.00000000000E+00 0. -1.
         11    1    1    2    0    0  0.50997140035E+02  0.69978780588E+01  0.12089360817E+02  0.52875620413E+02  0.00000000000E+00 0.  1.
</event>
<event>
 7    1  0.2651429E-009  0.1066157E+03  0.7561462E-02  0.1266969E+00
         -1   -1    0    0    0  501 -0.00000000000E+00  0.00000000000E+00  0.17535170412E+03  0.17535170412E+03  0.00000000000E+00 0.  1.
          1   -1    0    0  501    0  0.00000000000E+00 -0.00000000000E+00 -0.94452461225E+02  0.94452461225E+02  0.00000000000E+00 0. -1.
         25    2    1    2    0    0 -0.37191781442E+02  0.46015117806E+02  0.96855744913E+02  0.16890400924E+03  0.12508760667E+03 0.  0.
          5    1    3    3  502    0  0.19507304210E+02 -0.19260182975E+02 -0.11668629806E+02  0.30085193822E+02  0.41800000000E+01 0.  1.
         -5    1    3    3    0  502 -0.56699085652E+02  0.65275300781E+02  0.10852437472E+03  0.13881881542E+03  0.41800000000E+01 0.  1.
        -11    1    1    2    0    0 -0.61205099501E+01 -0.54466532863E+02 -0.29260057360E+01  0.54887387930E+02  0.00000000000E+00 0.  1.
         11    1    1    2    0    0  0.43312291393E+02  0.84514150573E+01 -0.13030496279E+02  0.46012768178E+02  0.00000000000E+00 0. -1.
</event>
<event>
 7    1  0.2651429E-009  0.2000584E+03  0.7561462E-02  0.1149690E+00
          1   -1    0    0  501    0  0.00000000000E+00  0.00000000000E+00  0.65391963415E+03  0.65391963415E+03  0.00000000000E+00 0. -1.
         -1   -1    0    0    0  501 -0.00000000000E+00 -0.00000000000E+00 -0.87001145920E+02  0.87001145920E+02  0.00000000000E+00 0.  1.
         25    2    1    2    0    0 -0.11722409283E+03  0.15468116682E+03  0.42536125809E+03  0.48399028173E+03  0.12508653655E+03 0.  0.
          5    1    3    3  502    0 -0.47553856217E+02  0.11486575909E+03  0.35846862617E+03  0.37943739958E+03  0.41800000000E+01 0.  1.
         -5    1    3    3    0  502 -0.69670236611E+02  0.39815407725E+02  0.66892631913E+02  0.10455288215E+03  0.41800000000E+01 0.  1.
        -11    1    1    2    0    0  0.99506751723E+02 -0.11603180120E+03  0.14934899895E+03  0.21370562934E+03  0.00000000000E+00 0.  1.
         11    1    1    2    0    0  0.17717341105E+02 -0.38649365619E+02 -0.77917687986E+01  0.43224868995E+02  0.00000000000E+00 0. -1.
</event>
<event>
 7    1  0.2651429E-009  0.1733251E+03  0.7561462E-02  0.1174424E+00
          1   -1    0    0  501    0  0.00000000000E+00  0.00000000000E+00  0.47537676379E+02  0.47537676379E+02  0.00000000000E+00 0. -1.
         -1   -1    0    0    0  501 -0.00000000000E+00 -0.00000000000E+00 -0.82852728859E+03  0.82852728859E+03  0.00000000000E+00 0.  1.
         25    2    1    2    0    0  0.10024281002E+03  0.12671447261E+03 -0.32375456726E+03  0.38284690513E+03  0.12509817909E+03 0.  0.
          5    1    3    3  502    0  0.65502781031E+02  0.88394252477E+02 -0.86583880639E+02  0.14006569523E+03  0.41800000000E+01 0. -1.
         -5    1    3    3    0  502  0.34740028986E+02  0.38320220133E+02 -0.23717068662E+03  0.24278120990E+03  0.41800000000E+01 0. -1.
        -11    1    1    2    0    0 -0.19932775032E+02 -0.97003284250E+02 -0.25851966843E+03  0.27683816869E+03  0.00000000000E+00 0.  1.
         11    1    1    2    0    0 -0.80310034984E+02 -0.29711188361E+02 -0.19871537652E+03  0.21637989116E+03  0.00000000000E+00 0. -1.
</event>
<event>
 7    1  0.2651429E-009  0.7245540E+02  0.7561462E-02  0.1351937E+00
         -2   -1    0    0    0  501 -0.00000000000E+00  0.00000000000E+00  0.33034906768E+03  0.33034906768E+03  0.00000000000E+00 0.  1.
          2   -1    0    0  501    0  0.00000000000E+00 -0.00000000000E+00 -0.39688676071E+02  0.39688676071E+02  0.00000000000E+00 0. -1.
         25    2    1    2    0    0  0.28624053286E+02 -0.23048544287E+02  0.16247754804E+03  0.20831761832E+03  0.12508678854E+03 0.  0.
          5    1    3    3  502    0  0.51198570011E+01 -0.46519050093E+02  0.49206246932E+01  0.47243199559E+02  0.41800000000E+01 0.  1.
         -5    1    3    3    0  502  0.23504196285E+02  0.23470505806E+02  0.15755692335E+03  0.16107441876E+03  0.41800000000E+01 0.  1.
        -11    1    1    2    0    0  0.14119506460E+02  0.15631237845E+02  0.11422011669E+03  0.11614616273E+03  0.00000000000E+00 0.  1.
         11    1    1    2    0    0 -0.42743559746E+02  0.74173064423E+01  0.13962726883E+02  0.45573962705E+02  0.00000000000E+00 0. -1.
</event>
<event>
 7    1  0.2651429E-009  0.1406336E+03  0.7561462E-02  0.1212479E+00
          2   -1    0    0  501    0  0.00000000000E+00  0.00000000000E+00  0.27962934654E+03  0.27962934654E+03  0.00000000000E+00 0. -1.
         -2   -1    0    0    0  501 -0.00000000000E+00 -0.00000000000E+00 -0.84011800079E+02  0.84011800079E+02  0.00000000000E+00 0.  1.
         25    2    1    2    0    0 -0.16411406523E+02 -0.90009994102E+02  0.40545116205E+02  0.16019922201E+03  0.12509496786E+03 0.  0.
          5    1    3    3  502    0 -0.54734954623E+02 -0.10094799468E+03  0.30484353487E+02  0.11888305639E+03  0.41800000000E+01 0. -1.
         -5    1    3    3    0  502  0.38323548100E+02  0.10938000581E+02  0.10060762718E+02  0.41316165628E+02  0.41800000000E+01 0. -1.
        -11    1    1    2    0    0  0.51585357280E+02  0.65689295369E+02  0.73138587833E+02  0.11101975339E+03  0.00000000000E+00 0. -1.
         11    1    1    2    0    0 -0.35173950757E+02  0.24320698733E+02  0.81933842420E+02  0.92422171217E+02  0.00000000000E+00 0.  1.
</event>
<event>
 7    1  0.2651429E-009  0.1998694E+03  0.7561462E-02  0.1149849E+00
          1   -1    0    0  501    0  0.00000000000E+00  0.00000000000E+00  0.21997422042E+03  0.21997422042E+03  0.00000000000E+00 0. -1.
         -1   -1    0    0    0  501 -0.00000000000E+00 -0.00000000000E+00 -0.23521907874E+03  0.23521907874E+03  0.00000000000E+00 0.  1.
         25    2    1    2    0    0 -0.66285041575E+02  0.17147577559E+03 -0.95706196882E+02  0.24208429235E+03  0.12508988820E+03 0.  0.
          5    1    3    3  502    0 -0.88340282564E+02  0.17036670295E+03 -0.62279803902E+02  0.20180452268E+03  0.41800000000E+01 0.  1.
         -5    1    3    3    0  502  0.22055240990E+02  0.11090726329E+01 -0.33426392980E+02  0.40279769672E+02  0.41800000000E+01 0.  1.
        -11    1    1    2    0    0  0.74418197850E+01 -0.47484712745E+02  0.55832574159E+02  0.73671262806E+02  0.00000000000E+00 0.  1.
         11    1    1    2    0    0  0.58843221790E+02 -0.12399106284E+03  0.24628764405E+02  0.13943774400E+03  0.00000000000E+00 0. -1.
</event>
<event>
 7    1  0.2651429E-009  0.1213827E+03  0.7561462E-02  0.1240833E+00
          2   -1    0    0  501    0  0.00000000000E+00  0.00000000000E+00  0.14431192661E+03  0.14431192661E+03  0.00000000000E+00 0.  1.
         -2   -1    0    0    0  501 -0.00000000000E+00 -0.00000000000E+00 -0.17213509771E+03  0.17213509771E+03  0.00000000000E+00 0. -1.
         25    2    1    2    0    0 -0.63983822961E-01  0.10638995292E+03  0.25031046037E+02  0.16609972876E+03  0.12507493934E+03 0.  0.
          5    1    3    3  502    0  0.22015176633E+02  0.75357029811E+02  0.71224987257E+02  0.10608402874E+03  0.41800000000E+01 0.  1.
         -5    1    3    3    0  502 -0.22079160456E+02  0.31032923110E+02 -0.46193941221E+02  0.60015700019E+02  0.41800000000E+01 0.  1.
        -11    1    1    2    0    0 -0.18280293221E+02 -0.10591636473E+03 -0.67455711341E+02  0.12689648707E+03  0.00000000000E+00 0. -1.
         11    1    1    2    0    0  0.18344277044E+02 -0.47358818882E+00  0.14601494205E+02  0.23450808494E+02  0.00000000000E+00 0.  1.
</event>
<event>
 7    1  0.2872530E-009  0.1062230E+03  0.7561462E-02  0.1267729E+00
         -2   -1    0    0    0  501 -0.00000000000E+00  0.00000000000E+00  0.11429972440E+03  0.11429972440E+03  0.00000000000E+00 0. -1.
          2   -1    0    0  501    0  0.00000000000E+00 -0.00000000000E+00 -0.15570906235E+03  0.15570906235E+03  0.00000000000E+00 0.  1.
         25    2    1    2    0    0 -0.61111685922E+02  0.43029157127E+02 -0.15880880323E+01  0.14572632521E+03  0.12508994091E+03 0.  0.
          5    1    3    3  502    0  0.19258951205E+02 -0.13585312966E+02 -0.34482420698E+02  0.41975917704E+02  0.41800000000E+01 0.  1.
         -5    1    3    3    0  502 -0.80370637126E+02  0.56614470093E+02  0.32894332666E+02  0.10375040751E+03  0.41800000000E+01 0.  1.
        -11    1    1    2    0    0  0.69447217382E+02 -0.32480288513E+02  0.56402672928E+01  0.76874558595E+02  0.00000000000E+00 0. -1.
         11    1    1    2    0    0 -0.83355314608E+01 -0.10548868615E+02 -0.45461517216E+02  0.47407902942E+02  0.00000000000E+00 0.  1.
</event>
<event>
 7    1  0.2651429E-009  0.8322944E+02  0.7561462E-02  0.1320129E+00
          2   -1    0    0  501    0  0.00000000000E+00  0.00000000000E+00  0.53898323550E+03  0.53898323550E+03  0.00000000000E+00 0.  1.
         -2   -1    0    0    0  501 -0.00000000000E+00 -0.00000000000E+00 -0.23926221998E+02  0.23926221998E+02  0.00000000000E+00 0. -1.
         25    2    1    2    0    0 -0.30115166765E+01 -0.10509916686E+02  0.36184808930E+03  0.38301636802E+03  0.12509184970E+03 0.  0.
          5    1    3    3  502    0  0.36163929992E+02  0.16074202857E+02  0.31053285586E+03  0.31307241463E+03  0.41800000000E+01 0. -1.
         -5    1    3    3    0  502 -0.39175446669E+02 -0.26584119543E+02  0.51315233432E+02  0.69943953390E+02  0.41800000000E+01 0. -1.
        -11    1    1    2    0    0 -0.95158924450E+01 -0.32746724248E+02  0.11770907525E+03  0.12254928214E+03  0.00000000000E+00 0.  1.
         11    1    1    2    0    0  0.12527409121E+02  0.43256640934E+02  0.35499848962E+02  0.57343807342E+02  0.00000000000E+00 0. -1.
</event>
<event>
 7    1  0.2651429E-009  0.1392182E+03  0.7561462E-02  0.1214385E+00
          3   -1    0    0  501    0  0.00000000000E+00  0.00000000000E+00  0.39212153707E+02  0.39212153707E+02  0.00000000000E+00 0. -1.
         -3   -1    0    0    0  501 -0.00000000000E+00 -0.00000000000E+00 -0.69602353592E+03  0.69602353592E+03  0.00000000000E+00 0.  1.
         25    2    1    2    0    0  0.22470054942E+02 -0.12045259760E+03 -0.29422875543E+03  0.34239157160E+03  0.12509075163E+03 0.  0.
          5    1    3    3  502    0  0.48875177718E+02 -0.83698376800E+02 -0.87234503975E+02  0.13046659480E+03  0.41800000000E+01 0. -1.
         -5    1    3    3    0  502 -0.26405122776E+02 -0.36754220801E+02 -0.20699425145E+03  0.21192497680E+03  0.41800000000E+01 0. -1.
        -11    1    1    2    0    0  0.15056072947E+02  0.77450592656E+02 -0.11983402969E+03  0.14347638937E+03  0.00000000000E+00 0. -1.
         11    1    1    2    0    0 -0.37526127889E+02  0.43002004945E+02 -0.24274859709E+03  0.24936772865E+03  0.00000000000E+00 0.  1.
</event>
<event>
 7    1  0.2651429E-009  0.1733984E+03  0.7561462E-02  0.1174349E+00
         -2   -1    0    0    0  501 -0.00000000000E+00  0.00000000000E+00  0.11597195238E+03  0.11597195238E+03  0.00000000000E+00 0.  1.
          2   -1    0    0  501    0  0.00000000000E+00 -0.00000000000E+00 -0.27026427936E+03  0.27026427936E+03  0.00000000000E+00 0. -1.
         25    2    1    2    0    0 -0.84873758753E+02  0.10664674753E+03 -0.45849008699E+02  0.19060118080E+03  0.12509834068E+03 0.  0.
          5    1    3    3  502    0 -0.20294242673E+02  0.11678151475E+03 -0.38444802580E+02  0.12468060683E+03  0.41800000000E+01 0. -1.
         -5    1    3    3    0  502 -0.64579516081E+02 -0.10134767229E+02 -0.74042061186E+01  0.65920573968E+02  0.41800000000E+01 0. -1.
        -11    1    1    2    0    0  0.85245567630E+02 -0.36815533066E+02 -0.65904328704E+02  0.11386646046E+03  0.00000000000E+00 0.  1.
         11    1    1    2    0    0 -0.37180887643E+00 -0.69831214460E+02 -0.42538989585E+02  0.81768590483E+02  0.00000000000E+00 0. -1.
</event>
<event>
 7    1  0.2651429E-009  0.7502530E+02  0.7561462E-02  0.1343793E+00
          2   -1    0    0  501    0  0.00000000000E+00  0.00000000000E+00  0.10003546514E+03  0.10003546514E+03  0.00000000000E+00 0.  1.
         -2   -1    0    0    0  501 -0.00000000000E+00 -0.00000000000E+00 -0.14564026485E+03  0.14564026485E+03  0.00000000000E+00 0. -1.
         25    2    1    2    0    0  0.23522838956E+02 -0.13517138711E+02  0.21363500547E+02  0.12976904229E+03  0.12509024019E+03 0.  0.
          5    1    3    3  502    0  0.16497963435E+02  0.42267814977E+02 -0.29131467296E+02  0.54082028135E+02  0.41800000000E+01 0.  1.
         -5    1    3    3    0  502  0.70248755209E+01 -0.55784953687E+02  0.50494967844E+02  0.75687014154E+02  0.41800000000E+01 0.  1.
        -11    1    1    2    0    0 -0.54293982748E+01 -0.14087994712E+02  0.18738460765E+02  0.24064078467E+02  0.00000000000E+00 0.  1.
         11    1    1    2    0    0 -0.18093440681E+02  0.27605133423E+02 -0.85706761017E+02  0.91842609234E+02  0.00000000000E+00 0. -1.
</event>
<event>
 7    1  0.3612247E-009  0.2376317E+03  0.7561462E-02  0.1121381E+00
          2   -1    0    0  501    0  0.00000000000E+00  0.00000000000E+00  0.10679528464E+04  0.10679528464E+04  0.00000000000E+00 0.  1.
         -2   -1    0    0    0  501 -0.00000000000E+00 -0.00000000000E+00 -0.60396124554E+02  0.60396124554E+02  0.00000000000E+00 0. -1.
         25    2    1    2    0    0  0.12281109110E+03 -0.19027958222E+03  0.43808162483E+03  0.50877453744E+03  0.12508851436E+03 0.  0.
          5    1    3    3  502    0  0.11218468459E+03 -0.11262529863E+03  0.18576710205E+03  0.24453373991E+03  0.41800000000E+01 0.  1.
         -5    1    3    3    0  502  0.10626406512E+02 -0.77654283589E+02  0.25231452278E+03  0.26424079754E+03  0.41800000000E+01 0.  1.
        -11    1    1    2    0    0 -0.29542460819E+02  0.11248652331E+03  0.20887574886E+03  0.23907123076E+03  0.00000000000E+00 0. -1.
         11    1    1    2    0    0 -0.93268630284E+02  0.77793058910E+02  0.36059934816E+03  0.38050320275E+03  0.00000000000E+00 0.  1.
</event>
<event>
 7    1  0.2651429E-009  0.1208115E+03  0.7561462E-02  0.1241764E+00
         -1   -1    0    0    0  501 -0.00000000000E+00  0.00000000000E+00  0.29169482286E+02  0.29169482286E+02  0.00000000000E+00 0.  1.
          1   -1    0    0  501    0  0.00000000000E+00 -0.00000000000E+00 -0.62352336112E+03  0.62352336112E+03  0.00000000000E+00 0. -1.
         25    2    1    2    0    0  0.14899747514E+02 -0.74034581977E+02 -0.27103355813E+03  0.30791108876E+03  0.12508767784E+03 0.  0.
          5    1    3    3  502    0 -0.45409305089E+02 -0.17556473047E+01 -0.50355844628E+02  0.67957860283E+02  0.41800000000E+01 0.  1.
         -5    1    3    3    0  502  0.60309052603E+02 -0.72278934673E+02 -0.22067771350E+03  0.23995322848E+03  0.41800000000E+01 0.  1.
        -11    1    1    2    0    0  0.21059525854E+01 -0.12954392167E+02 -0.45072150681E+01  0.13876826020E+02  0.00000000000E+00 0.  1.
         11    1    1    2    0    0 -0.17005700099E+02  0.86988974145E+02 -0.31881310564E+03  0.33090492862E+03  0.00000000000E+00 0. -1.
</event>
<event>
 7    1  0.2651429E-009  0.1263155E+03  0.7561462E-02  0.1233028E+00
         -1   -1    0    0    0  501 -0.00000000000E+00  0.00000000000E+00  0.82835136944E+02  0.82835136944E+02  0.00000000000E+00 0.  1.
          1   -1    0    0  501    0  0.00000000000E+00 -0.00000000000E+00 -0.26165320562E+03  0.26165320562E+03  0.00000000000E+00 0. -1.
         25    2    1    2    0    0  0.91865942477E+02  0.16675631436E+02 -0.14068409048E+03  0.21012763865E+03  0.12507670902E+03 0.  0.
          5    1    3    3  502    0 -0.64834209077E+01  0.34270935431E+02  0.27949296856E+01  0.35239406833E+02  0.41800000000E+01 0.  1.
         -5    1    3    3    0  502  0.98349363385E+02 -0.17595303995E+02 -0.14347902017E+03  0.17488823182E+03  0.41800000000E+01 0.  1.
        -11    1    1    2    0    0 -0.97773093532E+02 -0.30541850900E+02 -0.51107303589E+02  0.11447418467E+03  0.00000000000E+00 0.  1.
         11    1    1    2    0    0  0.59071510550E+01  0.13866219464E+02  0.12973325395E+02  0.19886519244E+02  0.00000000000E+00 0. -1.
</event>
<event>
 7    1  0.2651429E-009  0.2750095E+03  0.7561462E-02  0.1098446E+00
          2   -1    0    0  501    0  0.00000000000E+00  0.00000000000E+00  0.17190087150E+04  0.17190087150E+04  0.00000000000E+00 0. -1.
         -2   -1    0    0    0  501 -0.00000000000E+00 -0.00000000000E+00 -0.46083443610E+02  0.46083443610E+02  0.00000000000E+00 0.  1.
         25    2    1    2    0    0 -0.11156443993E+03 -0.23349265538E+03  0.91903001946E+03  0.96292693587E+03  0.12508662114E+03 0.  0.
          5    1    3    3  502    0 -0.12891102603E+03 -0.13467377905E+03  0.62478937505E+03  0.65202324726E+03  0.41800000000E+01 0.  1.
         -5    1    3    3    0  502  0.17346586104E+02 -0.98818876330E+02  0.29424064441E+03  0.31090368861E+03  0.41800000000E+01 0.  1.
        -11    1    1    2    0    0  0.94304574666E+02  0.14500935126E+03  0.37939720912E+03  0.41696919196E+03  0.00000000000E+00 0.  1.
         11    1    1    2    0    0  0.17259865261E+02  0.88483304123E+02  0.37449804286E+03  0.38519603082E+03  0.00000000000E+00 0. -1.
</event>
<event>
 7    1  0.2651429E-009  0.7993255E+02  0.7561462E-02  0.1329243E+00
          3   -1    0    0  501    0  0.00000000000E+00  0.00000000000E+00  0.11402562903E+02  0.11402562903E+02  0.00000000000E+00 0. -1.
         -3   -1    0    0    0  501 -0.00000000000E+00 -0.00000000000E+00 -0.15350814796E+04  0.15350814796E+04  0.00000000000E+00 0.  1.
         25    2    1    2    0    0 -0.34544729525E+02 -0.33968871321E+02 -0.11814683517E+04  0.11890597217E+04  0.12509329775E+03 0.  0.
          5    1    3    3  502    0 -0.31230269055E+02 -0.39138722727E+02 -0.16309714560E+03  0.17066142102E+03  0.41800000000E+01 0.  1.
         -5    1    3    3    0  502 -0.33144604707E+01  0.51698514062E+01 -0.10183712061E+04  0.10183983007E+04  0.41800000000E+01 0.  1.
        -11    1    1    2    0    0  0.25396087466E+02 -0.29007140866E+02 -0.15373038197E+03  0.15849102757E+03  0.00000000000E+00 0.  1.
         11    1    1    2    0    0  0.91486420595E+01  0.62976012187E+02 -0.18848018302E+03  0.19893329322E+03  0.00000000000E+00 0. -1.
</event>
<event>
 7    1  0.2651429E-009  0.7975323E+02  0.7561462E-02  0.1329753E+00
         -1   -1    0    0    0  501 -0.00000000000E+00  0.00000000000E+00  0.10473245951E+03  0.10473245951E+03  0.00000000000E+00 0.  1.
          1   -1    0    0  501    0  0.00000000000E+00 -0.00000000000E+00 -0.15604331900E+03  0.15604331900E+03  0.00000000000E+00 0. -1.
         25    2    1    2    0    0 -0.36283222318E+02  0.20467475562E+02 -0.82949439789E+02  0.15576914183E+03  0.12509207092E+03 0.  0.
          5    1    3    3  502    0 -0.11886132970E+02  0.34834808827E+02 -0.11019469239E+03  0.11625440505E+03  0.41800000000E+01 0. -1.
         -5    1    3    3    0  502 -0.24397089348E+02 -0.14367333266E+02  0.27245252598E+02  0.39514736782E+02  0.41800000000E+01 0. -1.
        -11    1    1    2    0    0  0.43726487975E+02 -0.48229372694E+02  0.38260610889E+02  0.75511273904E+02  0.00000000000E+00 0.  1.
         11    1    1    2    0    0 -0.74432656571E+01  0.27761897132E+02 -0.66220305903E+01  0.29495362774E+02  0.00000000000E+00 0. -1.
</event>
<event>
 7    1  0.2651429E-009  0.1085978E+03  0.7561462E-02  0.1263189E+00
         -3   -1    0    0    0  501 -0.00000000000E+00  0.00000000000E+00  0.32737043615E+03  0.32737043615E+03  0.00000000000E+00 0.  1.
          3   -1    0    0  501    0  0.00000000000E+00 -0.00000000000E+00 -0.39013280113E+02  0.39013280113E+02  0.00000000000E+00 0. -1.
         25    2    1    2    0    0  0.23868870744E+02  0.50273819846E+01  0.19224094181E+03  0.23064960564E+03  0.12509062040E+03 0.  0.
          5    1    3    3  502    0  0.53919460753E+02 -0.42453192904E+02  0.83381213038E+02  0.10807164718E+03  0.41800000000E+01 0.  1.
         -5    1    3    3    0  502 -0.30050590009E+02  0.47480574889E+02  0.10885972878E+03  0.12257795846E+03  0.41800000000E+01 0.  1.
        -11    1    1    2    0    0 -0.49848851429E+02 -0.28208914424E+02  0.77142528841E+02  0.96081322835E+02  0.00000000000E+00 0.  1.
         11    1    1    2    0    0  0.25979980684E+02  0.23181532439E+02  0.18973685383E+02  0.39652787791E+02  0.00000000000E+00 0. -1.
</event>
<event>
 7    1  0.2651429E-009  0.1891966E+03  0.7561462E-02  0.1159188E+00
         -2   -1    0    0    0  501 -0.00000000000E+00  0.00000000000E+00  0.18621247673E+03  0.18621247673E+03  0.00000000000E+00 0.  1.
          2   -1    0    0  501    0  0.00000000000E+00 -0.00000000000E+00 -0.29293914175E+03  0.29293914175E+03  0.00000000000E+00 0. -1.
         25    2    1    2    0    0  0.11766726964E+03  0.13052316903E+03 -0.16748932682E+03  0.27309704075E+03  0.12508970807E+03 0.  0.
          5    1    3    3  502    0  0.10958042890E+03  0.13310881962E+03 -0.18516947674E+03  0.25304354521E+03  0.41800000000E+01 0. -1.
         -5    1    3    3    0  502  0.80868407418E+01 -0.25856505809E+01  0.17680149917E+02  0.20053495536E+02  0.41800000000E+01 0. -1.
        -11    1    1    2    0    0 -0.52625658087E+02 -0.22819328684E+01  0.10358375763E+02  0.53683918031E+02  0.00000000000E+00 0. -1.
         11    1    1    2    0    0 -0.65041611555E+02 -0.12824123617E+03  0.50404286043E+02  0.15237065970E+03  0.00000000000E+00 0.  1.
</event>
<event>
 7    1  0.2651429E-009  0.1918174E+03  0.7561462E-02  0.1156832E+00
         -3   -1    0    0    0  501 -0.00000000000E+00  0.00000000000E+00  0.28932728503E+03  0.28932728503E+03  0.00000000000E+00 0.  1.
          3   -1    0    0  501    0  0.00000000000E+00 -0.00000000000E+00 -0.14499985612E+03  0.14499985612E+03  0.00000000000E+00 0. -1.
         25    2    1    2    0    0 -0.14923724861E+03  0.85520733285E+02  0.91615330808E+02  0.23158265300E+03  0.12510637129E+03 0.  0.
          5    1    3    3  502    0 -0.31382047713E+02  0.82874999873E+02  0.66770945607E+02  0.11103571542E+03  0.41800000000E+01 0. -1.
         -5    1    3    3    0  502 -0.11785520089E+03  0.26457334117E+01  0.24844385201E+02  0.12054693758E+03  0.41800000000E+01 0. -1.
        -11    1    1    2    0    0  0.71581287284E+02 -0.17414475901E+02  0.65612447473E+02  0.98651598687E+02  0.00000000000E+00 0.  1.
         11    1    1    2    0    0  0.77655961321E+02 -0.68106257384E+02 -0.12900349370E+02  0.10409288947E+03  0.00000000000E+00 0. -1.
</event>
<event>
 7    1  0.2651429E-009  0.9898261E+02  0.7561462E-02  0.1282450E+00
          1   -1    0    0  501    0  0.00000000000E+00  0.00000000000E+00  0.51270206419E+03  0.51270206419E+03  0.00000000000E+00 0. -1.
         -1   -1    0    0    0  501 -0.00000000000E+00 -0.00000000000E+00 -0.38018661064E+02  0.38018661064E+02  0.00000000000E+00 0.  1.
         25    2    1    2    0    0 -0.42123092708E+02 -0.54370806303E+02  0.14948195406E+03  0.20669767530E+03  0.12509410405E+03 0.  0.
          5    1    3    3  502    0  0.88662595664E+01 -0.25573494326E+02 -0.15577852248E+02  0.31508031538E+02  0.41800000000E+01 0. -1.
         -5    1    3    3    0  502 -0.50989352274E+02 -0.28797311977E+02  0.16505980631E+03  0.17518964376E+03  0.41800000000E+01 0. -1.
        -11    1    1    2    0    0 -0.27212128527E+02  0.23569214363E+02  0.11793278035E+03  0.12330510324E+03  0.00000000000E+00 0. -1.
         11    1    1    2    0    0  0.69335221235E+02  0.30801591941E+02  0.20726866872E+03  0.22071794671E+03  0.00000000000E+00 0.  1.
</event>
<event>
 7    1  0.2651429E-009  0.1104006E+03  0.7561462E-02  0.1259830E+00
         -2   -1    0    0    0  501 -0.00000000000E+00  0.00000000000E+00  0.32145715622E+02  0.32145715622E+02  0.00000000000E+00 0.  1.
          2   -1    0    0  501    0  0.00000000000E+00 -0.00000000000E+00 -0.47470637987E+03  0.47470637987E+03  0.00000000000E+00 0. -1.
         25    2    1    2    0    0 -0.13948647208E+02 -0.47841046672E+02 -0.18244653425E+03  0.22676788597E+03  0.12511437065E+03 0.  0.
          5    1    3    3  502    0  0.21421167598E+02 -0.72144380368E+02 -0.58127500982E+02  0.95183805400E+02  0.41800000000E+01 0. -1.
         -5    1    3    3    0  502 -0.35369814806E+02  0.24303333697E+02 -0.12431903326E+03  0.13158408057E+03  0.41800000000E+01 0. -1.
        -11    1    1    2    0    0  0.28410405952E+02 -0.18832872957E+02 -0.11074574529E+03  0.11587255228E+03  0.00000000000E+00 0.  1.
         11    1    1    2    0    0 -0.14461758744E+02  0.66673919629E+02 -0.14936838471E+03  0.16421165725E+03  0.00000000000E+00 0. -1.
</event>
<event>
 7    1  0.2651429E-009  0.1034934E+03  0.7561462E-02  0.1273117E+00
          2   -1    0    0  501    0  0.00000000000E+00  0.00000000000E+00  0.12893761527E+03  0.12893761527E+03  0.00000000000E+00 0. -1.
         -2   -1    0    0    0  501 -0.00000000000E+00 -0.00000000000E+00 -0.17134186769E+03  0.17134186769E+03  0.00000000000E+00 0.  1.
         25    2    1    2    0    0  0.36587244204E+02  0.89787728242E+02 -0.50832016895E+02  0.16622724256E+03  0.12508852723E+03 0.  0.
          5    1    3    3  502    0  0.47699907573E+02  0.70798522441E+02 -0.88100631713E+02  0.12274732449E+03  0.41800000000E+01 0.  1.
         -5    1    3    3    0  502 -0.11112663368E+02  0.18989205801E+02  0.37268614819E+02  0.43479918061E+02  0.41800000000E+01 0.  1.
        -11    1    1    2    0    0 -0.18195545677E+02 -0.69029644409E+02 -0.37320338256E+02  0.80554188825E+02  0.00000000000E+00 0.  1.
         11    1    1    2    0    0 -0.18391698527E+02 -0.20758083833E+02  0.45748102734E+02  0.53498051580E+02  0.00000000000E+00 0. -1.
</event>
<event>
 6    1  0.2651429E-009  0.1156522E+03  0.7561462E-02  0.1250447E+00
         -2   -1    0    0    0  501 -0.00000000000E+00  0.00000000000E+00  0.61465751429E+02  0.61465751429E+02  0.00000000000E+00 0.  1.
          2   -1    0    0  501    0  0.00000000000E+00 -0.00000000000E+00 -0.22383214850E+03  0.22383214850E+03  0.00000000000E+00 0. -1.
          5    1    1    2  502    0  0.63537485702E+02 -0.13924857842E+02 -0.33080508845E+02  0.73093817937E+02  0.41800000000E+01 0.  1.
         -5    1    1    2    0  502 -0.43429183134E+02  0.49210681929E+02 -0.45718309287E+02  0.80096325557E+02  0.41800000000E+01 0.  1.
        -11    1    1    2    0    0 -0.35342259239E+00 -0.64822795152E+02 -0.41188279522E+02  0.76802304971E+02  0.00000000000E+00 0.  1.
         11    1    1    2    0    0 -0.19754879975E+02  0.29536971066E+02 -0.42379299415E+02  0.55305451462E+02  0.00000000000E+00 0. -1.
</event>
<event>
 7    1  0.2651429E-009  0.8495277E+02  0.7561462E-02  0.1315556E+00
          2   -1    0    0  501    0  0.00000000000E+00  0.00000000000E+00  0.53844567521E+02  0.53844567521E+02  0.00000000000E+00 0. -1.
         -2   -1    0    0    0  501 -0.00000000000E+00 -0.00000000000E+00 -0.17662800252E+03  0.17662800252E+03  0.00000000000E+00 0.  1.
         25    2    1    2    0    0 -0.57243705086E+01  0.20506048014E+02 -0.57929068889E+02  0.13948668337E+03  0.12508993322E+03 0.  0.
          5    1    3    3  502    0  0.12008562915E+02  0.71312555935E+02 -0.27184940315E+02  0.77370405176E+02  0.41800000000E+01 0. -1.
         -5    1    3    3    0  502 -0.17732933423E+02 -0.50806507920E+02 -0.30744128574E+02  0.62116278194E+02  0.41800000000E+01 0. -1.
        -11    1    1    2    0    0 -0.99762081688E+01  0.67457698530E+01  0.60074306996E+01  0.13458059442E+02  0.00000000000E+00 0. -1.
         11    1    1    2    0    0  0.15700578677E+02 -0.27251817867E+02 -0.70861796812E+02  0.77527827232E+02  0.00000000000E+00 0.  1.
</event>
<event>
 7    1  0.3175777E-009  0.8631634E+02  0.7561462E-02  0.1312026E+00
         -2   -1    0    0    0  501 -0.00000000000E+00  0.00000000000E+00  0.20975553313E+03  0.20975553313E+03  0.00000000000E+00 0. -1.
          2   -1    0    0  501    0  0.00000000000E+00 -0.00000000000E+00 -0.92526871792E+02  0.92526871792E+02  0.00000000000E+00 0.  1.
         25    2    1    2    0    0  0.45612011042E+02 -0.30038183409E+02 -0.96846505905E+01  0.13682738734E+03  0.12508074774E+03 0.  0.
          5    1    3    3  502    0 -0.20221333971E+02  0.90098734394E+01 -0.46588723743E+02  0.51749992724E+02  0.41800000000E+01 0.  1.
         -5    1    3    3    0  502  0.65833345013E+02 -0.39048056848E+02  0.36904073152E+02  0.85077394615E+02  0.41800000000E+01 0.  1.
        -11    1    1    2    0    0  0.63070474127E+01  0.19466337061E+02 -0.68511787550E+01  0.21579058737E+02  0.00000000000E+00 0.  1.
         11    1    1    2    0    0 -0.51919058455E+02  0.10571846348E+02  0.13376449069E+03  0.14387595885E+03  0.00000000000E+00 0. -1.
</event>
<event>
 7    1  0.2745356E-009  0.5691637E+02  0.7561462E-02  0.1411248E+00
         -1   -1    0    0    0  501 -0.00000000000E+00  0.00000000000E+00  0.63745321726E+02  0.63745321726E+02  0.00000000000E+00 0.  1.
          1   -1    0    0  501    0  0.00000000000E+00 -0.00000000000E+00 -0.21769761313E+03  0.21769761313E+03  0.00000000000E+00 0. -1.
         25    2    1    2    0    0 -0.21475909957E+02 -0.32722394490E+01 -0.13642406209E+03  0.18636281843E+03  0.12509057965E+03 0.  0.
          5    1    3    3  502    0 -0.32527940068E+02  0.29805308871E+01 -0.15777334655E+03  0.16117335925E+03  0.41800000000E+01 0. -1.
         -5    1    3    3    0  502  0.11052030110E+02 -0.62527703361E+01  0.21349284469E+02  0.25189459180E+02  0.41800000000E+01 0. -1.
        -11    1    1    2    0    0  0.29087836495E+02 -0.24937966852E+02  0.23322902957E+02  0.44854901906E+02  0.00000000000E+00 0.  1.
         11    1    1    2    0    0 -0.76119265381E+01  0.28210206301E+02 -0.40851132276E+02  0.50225214518E+02  0.00000000000E+00 0. -1.
</event>
<event>
 7    1  0.2651429E-009  0.1273133E+03  0.7561462E-02  0.1231498E+00
          2   -1    0    0  501    0  0.00000000000E+00  0.00000000000E+00  0.97781012832E+03  0.97781012832E+03  0.00000000000E+00 0. -1.
         -2   -1    0    0    0  501 -0.00000000000E+00 -0.00000000000E+00 -0.27713142361E+02  0.27713142361E+02  0.00000000000E+00 0.  1.
         25    2    1    2    0    0 -0.84238721709E+02 -0.92668560051E+02  0.52519639229E+03  0.55422202740E+03  0.12508869226E+03 0.  0.
          5    1    3    3  502    0 -0.22366836476E+02 -0.14501414204E+02  0.36155430731E+03  0.36255972739E+03  0.41800000000E+01 0. -1.
         -5    1    3    3    0  502 -0.61871885232E+02 -0.78167145847E+02  0.16364208497E+03  0.19166230001E+03  0.41800000000E+01 0. -1.
        -11    1    1    2    0    0  0.58150135581E+02  0.45011662134E+02  0.35621252734E+03  0.36372359372E+03  0.00000000000E+00 0. -1.
         11    1    1    2    0    0  0.26088586128E+02  0.47656897917E+02  0.68688066331E+02  0.87577649554E+02  0.00000000000E+00 0.  1.
</event>
<event>
 7    1  0.2651429E-009  0.1109308E+03  0.7561462E-02  0.1258856E+00
          1   -1    0    0  501    0  0.00000000000E+00  0.00000000000E+00  0.49667306276E+03  0.49667306276E+03  0.00000000000E+00 0. -1.
         -1   -1    0    0    0  501 -0.00000000000E+00 -0.00000000000E+00 -0.37970084228E+02  0.37970084228E+02  0.00000000000E+00 0.  1.
         25    2    1    2    0    0 -0.78188705386E+02 -0.12212330583E+02  0.30697418264E+03  0.34079811549E+03  0.12509033556E+03 0.  0.
          5    1    3    3  502    0 -0.81309206580E+01 -0.53228157622E+02  0.59694594907E+02  0.80500097489E+02  0.41800000000E+01 0.  1.
         -5    1    3    3    0  502 -0.70057784728E+02  0.41015827040E+02  0.24727958773E+03  0.26029801800E+03  0.41800000000E+01 0.  1.
        -11    1    1    2    0    0  0.57596909592E+02 -0.74707410478E+01  0.23772449404E+02  0.62756237276E+02  0.00000000000E+00 0.  1.
         11    1    1    2    0    0  0.20591795794E+02  0.19683071630E+02  0.12795634649E+03  0.13108879422E+03  0.00000000000E+00 0. -1.
</event>
<event>
 7    1  0.2651429E-009  0.2108534E+03  0.7561462E-02  0.1140892E+00
         -1   -1    0    0    0  501 -0.00000000000E+00  0.00000000000E+00  0.22941768390E+03  0.22941768390E+03  0.00000000000E+00 0.  1.
          1   -1    0    0  501    0  0.00000000000E+00 -0.00000000000E+00 -0.34177441329E+03  0.34177441329E+03  0.00000000000E+00 0. -1.
         25    2    1    2    0    0 -0.11340496473E+03  0.15314132512E+03 -0.23190869111E+03  0.32518063380E+03  0.12509137501E+03 0.  0.
          5    1    3    3  502    0  0.31148484277E+01 -0.18837047291E+02 -0.27270250651E+02  0.33551089431E+02  0.41800000000E+01 0. -1.
         -5    1    3    3    0  502 -0.11651981316E+03  0.17197837241E+03 -0.20463844046E+03  0.29162954437E+03  0.41800000000E+01 0. -1.
        -11    1    1    2    0    0  0.55301174783E+02 -0.43726050913E+02  0.97279169690E+02  0.12013918726E+03  0.00000000000E+00 0.  1.
         11    1    1    2    0    0  0.58103789947E+02 -0.10941527420E+03  0.22272792026E+02  0.12587227614E+03  0.00000000000E+00 0. -1.
</event>
<event>
 7    1  0.2651429E-009  0.1467115E+03  0.7561462E-02  0.1204573E+00
          3   -1    0    0  501    0  0.00000000000E+00  0.00000000000E+00  0.47062678384E+02  0.47062678384E+02  0.00000000000E+00 0. -1.
         -3   -1    0    0    0  501 -0.00000000000E+00 -0.00000000000E+00 -0.56780772464E+03  0.56780772464E+03  0.00000000000E+00 0.  1.
         25    2    1    2    0    0  0.98442664318E+02  0.63842985189E+02 -0.21403643898E+03  0.27426845063E+03  0.12507877870E+03 0.  0.
          5    1    3    3  502    0 -0.32006699892E+00  0.44462116802E+02 -0.86217869006E+01  0.45483951925E+02  0.41800000000E+01 0. -1.
         -5    1    3    3    0  502  0.98762731317E+02  0.19380868387E+02 -0.20541465208E+03  0.22878449870E+03  0.41800000000E+01 0. -1.
        -11    1    1    2    0    0 -0.11599599607E+03 -0.55940307427E+02 -0.27066753430E+03  0.29974206115E+03  0.00000000000E+00 0. -1.
         11    1    1    2    0    0  0.17553331752E+02 -0.79026777615E+01 -0.36041072969E+02  0.40859891241E+02  0.00000000000E+00 0.  1.
</event>
<event>
 7    1  0.2651429E-009  0.1313163E+03  0.7561462E-02  0.1225516E+00
         -1   -1    0    0    0  501 -0.00000000000E+00  0.00000000000E+00  0.20465832537E+02  0.20465832537E+02  0.00000000000E+00 0.  1.
          1   -1    0    0  501    0  0.00000000000E+00 -0.00000000000E+00 -0.11941029706E+04  0.11941029706E+04  0.00000000000E+00 0. -1.
         25    2    1    2    0    0 -0.77012685261E+02 -0.77928338617E+02 -0.53643052350E+03  0.56161305654E+03  0.12509092326E+03 0.  0.
          5    1    3    3  502    0 -0.10862406224E+02  0.61493388953E+01 -0.31881823243E+03  0.31908986817E+03  0.41800000000E+01 0.  1.
         -5    1    3    3    0  502 -0.66150279037E+02 -0.84077677512E+02 -0.21761229107E+03  0.24252318837E+03  0.41800000000E+01 0.  1.
        -11    1    1    2    0    0  0.97905439498E+02  0.59641790323E+02 -0.50120342589E+03  0.51414734499E+03  0.00000000000E+00 0.  1.
         11    1    1    2    0    0 -0.20892754237E+02  0.18286548294E+02 -0.13600318867E+03  0.13880840161E+03  0.00000000000E+00 0. -1.
</event>
<event>
 7    1  0.2651429E-009  0.9429675E+02  0.7561462E-02  0.1292768E+00
          1   -1    0    0  501    0  0.00000000000E+00  0.00000000000E+00  0.10729691387E+03  0.10729691387E+03  0.00000000000E+00 0. -1.
         -1   -1    0    0    0  501 -0.00000000000E+00 -0.00000000000E+00 -0.18607525237E+03  0.18607525237E+03  0.00000000000E+00 0.  1.
         25    2    1    2    0    0  0.88590605191E+02 -0.11739883114E+02 -0.37384210449E+02  0.15821261007E+03  0.12509008998E+03 0.  0.
          5    1    3    3  502    0  0.74257567313E+02 -0.80499759595E+01 -0.82013631525E+02  0.11100764195E+03  0.41800000000E+01 0. -1.
         -5    1    3    3    0  502  0.14333037878E+02 -0.36899071547E+01  0.44629421076E+02  0.47204968120E+02  0.41800000000E+01 0. -1.
        -11    1    1    2    0    0 -0.36667757229E+02  0.25532105393E+02  0.23846066167E+02  0.50646299941E+02  0.00000000000E+00 0. -1.
         11    1    1    2    0    0 -0.51922847962E+02 -0.13792222279E+02 -0.65240194219E+02  0.84513256224E+02  0.00000000000E+00 0.  1.
</event>
<event>
 7    1  0.2651429E-009  0.1119612E+03  0.7561462E-02  0.1256981E+00
         -3   -1    0    0    0  501 -0.00000000000E+00  0.00000000000E+00  0.88254926754E+02  0.88254926754E+02  0.00000000000E+00 0.  1.
          3   -1    0    0  501    0  0.00000000000E+00 -0.00000000000E+00 -0.22974637708E+03  0.22974637708E+03  0.00000000000E+00 0. -1.
         25    2    1    2    0    0  0.36354544389E+02  0.84658158024E+02 -0.91044141482E+02  0.18005619668E+03  0.12507014690E+03 0.  0.
          5    1    3    3  502    0 -0.20384035779E+02 -0.78303278247E+01 -0.64569064198E+02  0.68289526282E+02  0.41800000000E+01 0. -1.
         -5    1    3    3    0  502  0.56738580168E+02  0.92488485849E+02 -0.26475077284E+02  0.11176667040E+03  0.41800000000E+01 0. -1.
        -11    1    1    2    0    0 -0.13911138365E+02 -0.49292607313E+02  0.20813914342E+02  0.55285621427E+02  0.00000000000E+00 0.  1.
         11    1    1    2    0    0 -0.22443406024E+02 -0.35365550711E+02 -0.71261223181E+02  0.82659485725E+02  0.00000000000E+00 0. -1.
</event>
<event>
 7    1  0.2651429E-009  0.1166554E+03  0.7561462E-02  0.1248719E+00
         -1   -1    0    0    0  501 -0.00000000000E+00  0.00000000000E+00  0.43888322316E+02  0.43888322316E+02  0.00000000000E+00 0.  1.
          1   -1    0    0  501    0  0.00000000000E+00 -0.00000000000E+00 -0.32804510389E+03  0.32804510389E+03  0.00000000000E+00 0. -1.
         25    2    1    2    0    0 -0.45654715077E+02 -0.27329692788E+02 -0.17873438397E+03  0.22455515189E+03  0.12509105128E+03 0.  0.
          5    1    3    3  502    0  0.35461655031E+02 -0.33410119525E+02 -0.37918451687E+02  0.61879289286E+02  0.41800000000E+01 0. -1.
         -5    1    3    3    0  502 -0.81116370107E+02  0.60804267373E+01 -0.14081593229E+03  0.16267586260E+03  0.41800000000E+01 0. -1.
        -11    1    1    2    0    0  0.38886021795E+02  0.58951291253E+02 -0.73908025274E+02  0.10222413429E+03  0.00000000000E+00 0. -1.
         11    1    1    2    0    0  0.67686932814E+01 -0.31621598465E+02 -0.31514372324E+02  0.45154140023E+02  0.00000000000E+00 0.  1.
</event>
<event>
 7    1  0.2651429E-009  0.1632254E+03  0.7561462E-02  0.1185103E+00
          2   -1    0    0  501    0  0.00000000000E+00  0.00000000000E+00  0.28257537718E+03  0.28257537718E+03  0.00000000000E+00 0. -1.
         -2   -1    0    0    0  501 -0.00000000000E+00 -0.00000000000E+00 -0.11846741191E+03  0.11846741191E+03  0.00000000000E+00 0.  1.
         25    2    1    2    0    0  0.31128339979E+02 -0.13621327795E+03  0.51475179120E+02  0.19447459092E+03  0.12509053444E+03 0.  0.
          5    1    3    3  502    0  0.41308900680E+01 -0.12738312035E+03  0.82753645332E+02  0.15201697872E+03  0.41800000000E+01 0.  1.
         -5    1    3    3    0  502  0.26997449911E+02 -0.88301576035E+01 -0.31278466212E+02  0.42457612198E+02  0.41800000000E+01 0.  1.
        -11    1    1    2    0    0  0.32536623017E+02  0.21416246321E+02  0.10773040967E+02  0.40414673765E+02  0.00000000000E+00 0. -1.
         11    1    1    2    0    0 -0.63664962997E+02  0.11479703163E+03  0.10185974519E+03  0.16615352441E+03  0.00000000000E+00 0.  1.
</event>
<event>
 7    1  0.2651429E-009  0.1074634E+03  0.7561462E-02  0.1265341E+00
         -1   -1    0    0    0  501 -0.00000000000E+00  0.00000000000E+00  0.37983263787E+02  0.37983263787E+02  0.00000000000E+00 0.  1.
          1   -1    0    0  501    0  0.00000000000E+00 -0.00000000000E+00 -0.53394360462E+03  0.53394360462E+03  0.00000000000E+00 0. -1.
         25    2    1    2    0    0 -0.62382236141E+02 -0.25779646271E+02 -0.39548165252E+03  0.42024905171E+03  0.12508954566E+03 0.  0.
          5    1    3    3  502    0 -0.84103238682E+02 -0.36107689666E+02 -0.38100688352E+03  0.39186839334E+03  0.41800000000E+01 0.  1.
         -5    1    3    3    0  502  0.21721002541E+02  0.10328043395E+02 -0.14474769003E+02  0.28380658368E+02  0.41800000000E+01 0.  1.
        -11    1    1    2    0    0 -0.16349745972E+02  0.78899361147E+01  0.50143723093E+01  0.18833725465E+02  0.00000000000E+00 0.  1.
         11    1    1    2    0    0  0.78731982113E+02  0.17889710156E+02 -0.10549306063E+03  0.13284409124E+03  0.00000000000E+00 0. -1.
</event>
<event>
 7    1  0.2651429E-009  0.1273410E+03  0.7561462E-02  0.1231455E+00
          3   -1    0    0  501    0  0.00000000000E+00  0.00000000000E+00  0.43480342604E+02  0.43480342604E+02  0.00000000000E+00 0. -1.
         -3   -1    0    0    0  501 -0.00000000000E+00 -0.00000000000E+00 -0.50171842631E+03  0.50171842631E+03  0.00000000000E+00 0.  1.
         25    2    1    2    0    0 -0.29347961444E+02 -0.92938308653E+02 -0.28370069462E+03  0.32500965543E+03  0.12508541055E+03 0.  0.
          5    1    3    3  502    0 -0.98792417337E+01  0.30170091455E+02 -0.39853259672E+02  0.51123268109E+02  0.41800000000E+01 0.  1.
         -5    1    3    3    0  502 -0.19468719710E+02 -0.12310840011E+03 -0.24384743495E+03  0.27388638732E+03  0.41800000000E+01 0.  1.
        -11    1    1    2    0    0  0.18545396937E+02  0.72516068247E+02 -0.18127764480E+03  0.19612265653E+03  0.00000000000E+00 0.  1.
         11    1    1    2    0    0  0.10802564507E+02  0.20422240406E+02  0.67402557186E+01  0.24066456953E+02  0.00000000000E+00 0. -1.
</event>
<event>
 7    1  0.2651429E-009  0.7514011E+02  0.7561462E-02  0.1343438E+00
          1   -1    0    0  501    0  0.00000000000E+00  0.00000000000E+00  0.76127323122E+02  0.76127323122E+02  0.00000000000E+00 0. -1.
         -1   -1    0    0    0  501 -0.00000000000E+00 -0.00000000000E+00 -0.20955421226E+03  0.20955421226E+03  0.00000000000E+00 0.  1.
         25    2    1    2    0    0 -0.45650983997E+02  0.24413814770E+02 -0.34039441896E+02  0.13960008589E+03  0.12509777649E+03 0.  0.
          5    1    3    3  502    0  0.11659535409E+02  0.36645619063E+01  0.40912522555E+02  0.42903154683E+02  0.41800000000E+01 0.  1.
         -5    1    3    3    0  502 -0.57310519407E+02  0.20749252864E+02 -0.74951964451E+02  0.96696931203E+02  0.41800000000E+01 0.  1.
        -11    1    1    2    0    0  0.20511373942E+02  0.17785877854E+02 -0.92595841359E+02  0.96493749793E+02  0.00000000000E+00 0.  1.
         11    1    1    2    0    0  0.25139610055E+02 -0.42199692624E+02 -0.67916058812E+01  0.49587699702E+02  0.00000000000E+00 0. -1.
</event>
<event>
 7    1  0.2651429E-009  0.1027669E+03  0.7561462E-02  0.1274583E+00
          2   -1    0    0  501    0  0.00000000000E+00  0.00000000000E+00  0.42501456595E+03  0.42501456595E+03  0.00000000000E+00 0. -1.
         -2   -1    0    0    0  501 -0.00000000000E+00 -0.00000000000E+00 -0.33904972404E+02  0.33904972404E+02  0.00000000000E+00 0.  1.
         25    2    1    2    0    0  0.39599453922E+02  0.35549062054E+02  0.22927646341E+03  0.26654746534E+03  0.12509197434E+03 0.  0.
          5    1    3    3  502    0 -0.28259113992E+02 -0.45548078428E+01  0.15660668025E+03  0.15925592139E+03  0.41800000000E+01 0. -1.
         -5    1    3    3    0  502  0.67858567914E+02  0.40103869897E+02  0.72669783162E+02  0.10729154396E+03  0.41800000000E+01 0. -1.
        -11    1    1    2    0    0 -0.30487823397E+02  0.23143292105E+02  0.33124282360E+02  0.50619536020E+02  0.00000000000E+00 0.  1.
         11    1    1    2    0    0 -0.91116305247E+01 -0.58692354160E+02  0.12870884778E+03  0.14175253699E+03  0.00000000000E+00 0. -1.
</event>
<event>
 7    1  0.2651429E-009  0.1290099E+03  0.7561462E-02  0.1228932E+00
          1   -1    0    0  501    0  0.00000000000E+00  0.00000000000E+00  0.92780589561E+03  0.92780589561E+03  0.00000000000E+00 0. -1.
         -1   -1    0    0    0  501 -0.00000000000E+00 -0.00000000000E+00 -0.21005490435E+02  0.21005490435E+02  0.00000000000E+00 0.  1.
         25    2    1    2    0    0 -0.52900998789E+02 -0.64737054137E+02  0.40569922397E+03  0.43269945232E+03  0.12509018290E+03 0.  0.
          5    1    3    3  502    0 -0.90894494944E+01  0.35053585797E+02  0.60018809962E+02  0.70221805150E+02  0.41800000000E+01 0. -1.
         -5    1    3    3    0  502 -0.43811549295E+02 -0.99790639934E+02  0.34568041401E+03  0.36247764717E+03  0.41800000000E+01 0. -1.
        -11    1    1    2    0    0  0.54526286278E+01 -0.17075893960E+02  0.25326628343E+02  0.31028300255E+02  0.00000000000E+00 0.  1.
         11    1    1    2    0    0  0.47448370161E+02  0.81812948098E+02  0.47577455286E+03  0.48508363347E+03  0.00000000000E+00 0. -1.
</event>
<event>
 7    1  0.2651429E-009  0.1052602E+03  0.7561462E-02  0.1269608E+00
         -4   -1    0    0    0  501 -0.00000000000E+00  0.00000000000E+00  0.36886983800E+02  0.36886983800E+02  0.00000000000E+00 0. -1.
          4   -1    0    0  501    0  0.00000000000E+00 -0.00000000000E+00 -0.46080810144E+03  0.46080810144E+03  0.00000000000E+00 0.  1.
         25    2    1    2    0    0  0.11567015398E+02 -0.49041719526E+02 -0.33336654391E+03  0.35959998197E+03  0.12506001893E+03 0.  0.
          5    1    3    3  502    0  0.39228794626E+02  0.15685911037E+02 -0.41620401312E+02  0.59453144057E+02  0.41800000000E+01 0. -1.
         -5    1    3    3    0  502 -0.27661779228E+02 -0.64727630564E+02 -0.29174614259E+03  0.30014683791E+03  0.41800000000E+01 0. -1.
        -11    1    1    2    0    0 -0.22891812987E+02  0.70043960414E+02 -0.86929728304E+02  0.11396038415E+03  0.00000000000E+00 0.  1.
         11    1    1    2    0    0  0.11324797590E+02 -0.21002240888E+02 -0.36248454279E+01  0.24134719123E+02  0.00000000000E+00 0. -1.
</event>
<event>
 7    1  0.2651429E-009  0.1199630E+03  0.7561462E-02  0.1243158E+00
         -2   -1    0    0    0  501 -0.00000000000E+00  0.00000000000E+00  0.37045160327E+02  0.37045160327E+02  0.00000000000E+00 0. -1.
          2   -1    0    0  501    0  0.00000000000E+00 -0.00000000000E+00 -0.51891321126E+03  0.51891321126E+03  0.00000000000E+00 0.  1.
         25    2    1    2    0    0 -0.80128716757E+02 -0.21075000096E+02 -0.22023764996E+03  0.26649073709E+03  0.12509166087E+03 0.  0.
          5    1    3    3  502    0 -0.44149318211E+02  0.37992098664E+02 -0.17310941251E+03  0.18269346720E+03  0.41800000000E+01 0. -1.
         -5    1    3    3    0  502 -0.35979398546E+02 -0.59067098761E+02 -0.47128237447E+02  0.83797269887E+02  0.41800000000E+01 0. -1.
        -11    1    1    2    0    0  0.68143798268E+01 -0.24825860625E+02 -0.12599794169E+03  0.12860109035E+03  0.00000000000E+00 0.  1.
         11    1    1    2    0    0  0.73314336930E+02  0.45900860721E+02 -0.13563245928E+03  0.16086654414E+03  0.00000000000E+00 0. -1.
</event>
<event>
 7    1  0.2651429E-009  0.1193666E+03  0.7561462E-02  0.1244146E+00
          2   -1    0    0  501    0  0.00000000000E+00  0.00000000000E+00  0.37965585332E+03  0.37965585332E+03  0.00000000000E+00 0. -1.
         -2   -1    0    0    0  501 -0.00000000000E+00 -0.00000000000E+00 -0.70169015478E+02  0.70169015478E+02  0.00000000000E+00 0.  1.
         25    2    1    2    0    0  0.49256907898E+02 -0.34550891540E+02  0.19553575180E+02  0.14014215233E+03  0.12504988395E+03 0.  0.
          5    1    3    3  502    0  0.76211862812E+02  0.16018464012E+02 -0.38908847716E+01  0.78086174237E+02  0.41800000000E+01 0. -1.
         -5    1    3    3    0  502 -0.26954954914E+02 -0.50569355551E+02  0.23444459951E+02  0.62055978098E+02  0.41800000000E+01 0. -1.
        -11    1    1    2    0    0 -0.36538712960E+02 -0.23773571305E+02  0.76391379596E+02  0.87953982934E+02  0.00000000000E+00 0.  1.
         11    1    1    2    0    0 -0.12718194938E+02  0.58324462844E+02  0.21354188306E+03  0.22172873353E+03  0.00000000000E+00 0. -1.
</event>
<event>
 7    1  0.2651429E-009  0.8620845E+02  0.7561462E-02  0.1312302E+00
         -1   -1    0    0    0  501 -0.00000000000E+00  0.00000000000E+00  0.95561856586E+02  0.95561856586E+02  0.00000000000E+00 0.  1.
          1   -1    0    0  501    0  0.00000000000E+00 -0.00000000000E+00 -0.10264694927E+03  0.10264694927E+03  0.00000000000E+00 0. -1.
         25    2    1    2    0    0  0.36001939485E+02  0.13182256661E+01  0.15669096703E+01  0.13018501926E+03  0.12509119341E+03 0.  0.
          5    1    3    3  502    0 -0.31318501376E+02  0.35526551273E+02  0.21188891730E+02  0.52052146032E+02  0.41800000000E+01 0.  1.
         -5    1    3    3    0  502  0.67320440861E+02 -0.34208325607E+02 -0.19621982060E+02  0.78132873226E+02  0.41800000000E+01 0.  1.
        -11    1    1    2    0    0  0.15835725627E+00 -0.11638514928E+02  0.18349322455E+02  0.21729651200E+02  0.00000000000E+00 0.  1.
         11    1    1    2    0    0 -0.36160296741E+02  0.10320289262E+02 -0.27001324809E+02  0.46294135398E+02  0.00000000000E+00 0. -1.
</event>
<event>
 7    1  0.2651429E-009  0.1163806E+03  0.7561462E-02  0.1249190E+00
         -4   -1    0    0    0  501 -0.00000000000E+00  0.00000000000E+00  0.24834479613E+03  0.24834479613E+03  0.00000000000E+00 0.  1.
          4   -1    0    0  501    0  0.00000000000E+00 -0.00000000000E+00 -0.62328514065E+02  0.62328514065E+02  0.00000000000E+00 0. -1.
         25    2    1    2    0    0  0.54188939889E+02 -0.25773924988E+02  0.90242888654E+02  0.16550436138E+03  0.12508868161E+03 0.  0.
          5    1    3    3  502    0  0.59742009353E+02 -0.69668173869E+02  0.45801077955E+02  0.10265463104E+03  0.41800000000E+01 0.  1.
         -5    1    3    3    0  502 -0.55530694644E+01  0.43894248881E+02  0.44441810699E+02  0.62849730337E+02  0.41800000000E+01 0.  1.
        -11    1    1    2    0    0 -0.47243274141E+02  0.51450148330E+02  0.95811086284E+02  0.11856984848E+03  0.00000000000E+00 0.  1.
         11    1    1    2    0    0 -0.69456657475E+01 -0.25676223341E+02 -0.37692876442E-01  0.26599100332E+02  0.00000000000E+00 0. -1.
</event>
<event>
 7    1  0.2651429E-009  0.1856040E+03  0.7561462E-02  0.1162487E+00
          1   -1    0    0  501    0  0.00000000000E+00  0.00000000000E+00  0.17221167263E+03  0.17221167263E+03  0.00000000000E+00 0. -1.
         -1   -1    0    0    0  501 -0.00000000000E+00 -0.00000000000E+00 -0.24198438161E+03  0.24198438161E+03  0.00000000000E+00 0.  1.
         25    2    1    2    0    0  0.15142358294E+03  0.53011180505E+02 -0.10068587524E+03  0.22698912388E+03  0.12508848931E+03 0.  0.
          5    1    3    3  502    0  0.24736916938E+02 -0.39265331949E+02 -0.20872083697E+02  0.51056807876E+02  0.41800000000E+01 0. -1.
         -5    1    3    3    0  502  0.12668666600E+03  0.92276512454E+02 -0.79813791545E+02  0.17593231600E+03  0.41800000000E+01 0. -1.
        -11    1    1    2    0    0 -0.25423823046E+02 -0.30709667830E+02  0.43049316381E+02  0.58674509946E+02  0.00000000000E+00 0. -1.
         11    1    1    2    0    0 -0.12599975989E+03 -0.22301512675E+02 -0.12136150117E+02  0.12853242042E+03  0.00000000000E+00 0.  1.
</event>
<event>
 7    1  0.2651429E-009  0.1100045E+03  0.7561462E-02  0.1260562E+00
          3   -1    0    0  501    0  0.00000000000E+00  0.00000000000E+00  0.48646986040E+02  0.48646986040E+02  0.00000000000E+00 0. -1.
         -3   -1    0    0    0  501 -0.00000000000E+00 -0.00000000000E+00 -0.35426101565E+03  0.35426101565E+03  0.00000000000E+00 0.  1.
         25    2    1    2    0    0 -0.22065888792E+02  0.25349054412E+02 -0.24532089930E+03  0.27741533581E+03  0.12508975538E+03 0.  0.
          5    1    3    3  502    0 -0.44431764111E+02  0.57416878260E+02 -0.21726507297E+03  0.22911233905E+03  0.41800000000E+01 0. -1.
         -5    1    3    3    0  502  0.22365875319E+02 -0.32067823848E+02 -0.28055826331E+02  0.48302996763E+02  0.41800000000E+01 0. -1.
        -11    1    1    2    0    0  0.61325802486E+02 -0.16684614767E+00 -0.46158068819E+02  0.76755776364E+02  0.00000000000E+00 0.  1.
         11    1    1    2    0    0 -0.39259913694E+02 -0.25182208264E+02 -0.14135061488E+02  0.48736889515E+02  0.00000000000E+00 0. -1.
</event>
<event>
 7    1  0.2651429E-009  0.1080605E+03  0.7561462E-02  0.1264204E+00
          1   -1    0    0  501    0  0.00000000000E+00  0.00000000000E+00  0.72513252795E+03  0.72513252795E+03  0.00000000000E+00 0. -1.
         -1   -1    0    0    0  501 -0.00000000000E+00 -0.00000000000E+00 -0.20070327997E+02  0.20070327997E+02  0.00000000000E+00 0.  1.
         25    2    1    2    0    0 -0.13461423677E+02  0.46146888052E+02  0.42457623212E+03  0.44522347681E+03  0.12509285436E+03 0.  0.
          5    1    3    3  502    0 -0.52951908940E+01  0.81907085764E+02  0.17997251702E+03  0.19784940997E+03  0.41800000000E+01 0. -1.
         -5    1    3    3    0  502 -0.81662327834E+01 -0.35760197713E+02  0.24460371511E+03  0.24737406683E+03  0.41800000000E+01 0. -1.
        -11    1    1    2    0    0  0.34676906587E+02  0.10741734524E+02  0.51023272525E+02  0.62619861468E+02  0.00000000000E+00 0.  1.
         11    1    1    2    0    0 -0.21215482910E+02 -0.56888622576E+02  0.22946269531E+03  0.23735951768E+03  0.00000000000E+00 0. -1.
</event>
<event>
 7    1  0.2651429E-009  0.7985338E+02  0.7561462E-02  0.1329468E+00
          3   -1    0    0  501    0  0.00000000000E+00  0.00000000000E+00  0.36372301343E+03  0.36372301343E+03  0.00000000000E+00 0. -1.
         -3   -1    0    0    0  501 -0.00000000000E+00 -0.00000000000E+00 -0.38537064450E+02  0.38537064450E+02  0.00000000000E+00 0.  1.
         25    2    1    2    0    0 -0.64330434753E+01  0.46180375037E+02  0.19826470576E+03  0.23901986788E+03  0.12509033778E+03 0.  0.
          5    1    3    3  502    0 -0.39859159690E+02  0.24169517555E+02  0.11804999603E+02  0.48267469435E+02  0.41800000000E+01 0.  1.
         -5    1    3    3    0  502  0.33426116215E+02  0.22010857482E+02  0.18645970616E+03  0.19075239845E+03  0.41800000000E+01 0.  1.
        -11    1    1    2    0    0  0.28403731069E+02 -0.95781507209E+01  0.68722114641E+00  0.29983081609E+02  0.00000000000E+00 0.  1.
         11    1    1    2    0    0 -0.21970687593E+02 -0.36602224316E+02  0.12623402207E+03  0.13325712839E+03  0.00000000000E+00 0. -1.
</event>
<event>
 7    1  0.2651429E-009  0.7038485E+02  0.7561462E-02  0.1358789E+00
         -3   -1    0    0    0  501 -0.00000000000E+00  0.00000000000E+00  0.13002158055E+03  0.13002158055E+03  0.00000000000E+00 0.  1.
          3   -1    0    0  501    0  0.00000000000E+00 -0.00000000000E+00 -0.79303310143E+02  0.79303310143E+02  0.00000000000E+00 0. -1.
         25    2    1    2    0    0 -0.41994578193E+01  0.16790434221E+02  0.49617388051E+02  0.13567945812E+03  0.12508987182E+03 0.  0.
          5    1    3    3  502    0  0.12735572363E+02  0.48240649323E+02  0.76046557503E+02  0.91048922885E+02  0.41800000000E+01 0.  1.
         -5    1    3    3    0  502 -0.16935030182E+02 -0.31450215102E+02 -0.26429169452E+02  0.44630535233E+02  0.41800000000E+01 0.  1.
        -11    1    1    2    0    0  0.27530166576E+02 -0.31438061029E+01  0.25184202078E+02  0.37443792848E+02  0.00000000000E+00 0.  1.
         11    1    1    2    0    0 -0.23330708757E+02 -0.13646628118E+02 -0.24083319723E+02  0.36201639727E+02  0.00000000000E+00 0. -1.
</event>
<event>
 7    1  0.2651429E-009  0.1221071E+03  0.7561462E-02  0.1239661E+00
         -1   -1    0    0    0  501 -0.00000000000E+00  0.00000000000E+00  0.25916564646E+02  0.25916564646E+02  0.00000000000E+00 0.  1.
          1   -1    0    0  501    0  0.00000000000E+00 -0.00000000000E+00 -0.94766645954E+03  0.94766645954E+03  0.00000000000E+00 0. -1.
         25    2    1    2    0    0 -0.70160068898E+02 -0.32492980211E+02 -0.74508412995E+03  0.75945671367E+03  0.12508361280E+03 0.  0.
          5    1    3    3  502    0 -0.29768182010E+01 -0.64983254557E+02 -0.23300429753E+03  0.24195073856E+03  0.41800000000E+01 0.  1.
         -5    1    3    3    0  502 -0.67183250697E+02  0.32490274345E+02 -0.51207983242E+03  0.51750597511E+03  0.41800000000E+01 0.  1.
        -11    1    1    2    0    0  0.32192808991E+02 -0.21183678384E+02 -0.12410874112E+03  0.12995424119E+03  0.00000000000E+00 0. -1.
         11    1    1    2    0    0  0.37967259907E+02  0.53676658595E+02 -0.52557023820E+02  0.84172069332E+02  0.00000000000E+00 0.  1.
</event>
<event>
 7    1  0.2868023E-009  0.1073028E+03  0.7561462E-02  0.1265648E+00
          1   -1    0    0  501    0  0.00000000000E+00  0.00000000000E+00  0.79851510878E+02  0.79851510878E+02  0.00000000000E+00 0. -1.
         -1   -1    0    0    0  501 -0.00000000000E+00 -0.00000000000E+00 -0.17892402456E+03  0.17892402456E+03  0.00000000000E+00 0.  1.
         25    2    1    2    0    0 -0.37228609733E+02  0.25549243903E+02 -0.30371509799E+02  0.13641353455E+03  0.12508992986E+03 0.  0.
          5    1    3    3  502    0 -0.41286399933E+02 -0.44873880566E+02 -0.23245077078E+02  0.65391421339E+02  0.41800000000E+01 0.  1.
         -5    1    3    3    0  502  0.40577901994E+01  0.70423124468E+02 -0.71264327210E+01  0.71022113208E+02  0.41800000000E+01 0.  1.
        -11    1    1    2    0    0  0.23005373434E+02  0.22820460042E+02 -0.63987484725E+02  0.71724603902E+02  0.00000000000E+00 0.  1.
         11    1    1    2    0    0  0.14223236299E+02 -0.48369703945E+02 -0.47135191537E+01  0.50637396984E+02  0.00000000000E+00 0. -1.
</event>
<event>
 7    1  0.2651429E-009  0.1700025E+03  0.7561462E-02  0.1177845E+00
         -1   -1    0    0    0  501 -0.00000000000E+00  0.00000000000E+00  0.19384833494E+03  0.19384833494E+03  0.00000000000E+00 0.  1.
          1   -1    0    0  501    0  0.00000000000E+00 -0.00000000000E+00 -0.18373303155E+03  0.18373303155E+03  0.00000000000E+00 0. -1.
         25    2    1    2    0    0 -0.84958356571E+02  0.10960406447E+03 -0.56560376464E+02  0.19512991847E+03  0.12508251515E+03 0.  0.
          5    1    3    3  502    0 -0.96995579294E+02  0.36352090324E+02 -0.33918867117E+01  0.10372364325E+03  0.41800000000E+01 0. -1.
         -5    1    3    3    0  502  0.12037222723E+02  0.73251974145E+02 -0.53168489753E+02  0.91406275220E+02  0.41800000000E+01 0. -1.
        -11    1    1    2    0    0  0.75584572474E+02 -0.12375462943E+03  0.75317697717E+02  0.16340438027E+03  0.00000000000E+00 0.  1.
         11    1    1    2    0    0  0.93737840970E+01  0.14150564964E+02 -0.86420178639E+01  0.19047067750E+02  0.00000000000E+00 0. -1.
</event>
<event>
 7    1  0.2651429E-009  0.1980619E+03  0.7561462E-02  0.1151385E+00
         -2   -1    0    0    0  501 -0.00000000000E+00  0.00000000000E+00  0.10647035235E+04  0.10647035235E+04  0.00000000000E+00 0.  1.
          2   -1    0    0  501    0  0.00000000000E+00 -0.00000000000E+00 -0.40860896560E+02  0.40860896560E+02  0.00000000000E+00 0. -1.
         25    2    1    2    0    0 -0.14299664237E+03  0.10069008913E+03  0.45624342797E+03  0.50437328239E+03  0.12509120129E+03 0.  0.
          5    1    3    3  502    0 -0.88673798892E+02 -0.30871687326E+01  0.27077805991E+03  0.28497509251E+03  0.41800000000E+01 0. -1.
         -5    1    3    3    0  502 -0.54322843476E+02  0.10377725786E+03  0.18546536806E+03  0.21939818988E+03  0.41800000000E+01 0. -1.
        -11    1    1    2    0    0  0.12084416433E+03 -0.42959316348E+02  0.29511592029E+03  0.32177977146E+03  0.00000000000E+00 0.  1.
         11    1    1    2    0    0  0.22152478035E+02 -0.57730772777E+02  0.27248327872E+03  0.27941136625E+03  0.00000000000E+00 0. -1.
</event>
<event>
 7    1  0.2651429E-009  0.1067674E+03  0.7561462E-02  0.1266676E+00
          2   -1    0    0  501    0  0.00000000000E+00  0.00000000000E+00  0.10009321688E+03  0.10009321688E+03  0.00000000000E+00 0.  1.
         -2   -1    0    0    0  501 -0.00000000000E+00 -0.00000000000E+00 -0.14161073923E+03  0.14161073923E+03  0.00000000000E+00 0. -1.
         25    2    1    2    0    0  0.45115906207E+02 -0.50310723943E+01 -0.19326953114E+02  0.13446362073E+03  0.12508468131E+03 0.  0.
          5    1    3    3  502    0 -0.29632204023E+02  0.34850216341E+02 -0.18808626355E+02  0.49637102249E+02  0.41800000000E+01 0. -1.
         -5    1    3    3    0  502  0.74748110230E+02 -0.39881288736E+02 -0.51832675908E+00  0.84826518476E+02  0.41800000000E+01 0. -1.
        -11    1    1    2    0    0 -0.58274313849E+02 -0.13719337763E+02 -0.45015285804E+02  0.74903216481E+02  0.00000000000E+00 0. -1.
         11    1    1    2    0    0  0.13158407642E+02  0.18750410158E+02  0.22824716572E+02  0.32337118909E+02  0.00000000000E+00 0.  1.
</event>
<event>
 7    1  0.2651429E-009  0.1095977E+03  0.7561462E-02  0.1261317E+00
          1   -1    0    0  501    0  0.00000000000E+00  0.00000000000E+00  0.16221062442E+03  0.16221062442E+03  0.00000000000E+00 0. -1.
         -1   -1    0    0    0  501 -0.00000000000E+00 -0.00000000000E+00 -0.85175508414E+02  0.85175508414E+02  0.00000000000E+00 0.  1.
         25    2    1    2    0    0 -0.37192643561E+02 -0.47662445279E+01  0.16542309272E+02  0.13163148346E+03  0.12508872699E+03 0.  0.
          5    1    3    3  502    0 -0.74046945234E+02  0.25455514818E+02  0.26487310483E+02  0.82764626199E+02  0.41800000000E+01 0. -1.
         -5    1    3    3    0  502  0.36854301673E+02 -0.30221759346E+02 -0.99450012101E+01  0.48866857264E+02  0.41800000000E+01 0. -1.
        -11    1    1    2    0    0 -0.15843139095E+02 -0.26864045648E+02  0.39936150350E+02  0.50671274996E+02  0.00000000000E+00 0.  1.
         11    1    1    2    0    0  0.53035782656E+02  0.31630290175E+02  0.20556656384E+02  0.65083374376E+02  0.00000000000E+00 0. -1.
</event>
<event>
 7    1  0.2651429E-009  0.7809178E+02  0.7561462E-02  0.1334556E+00
          1   -1    0    0  501    0  0.00000000000E+00  0.00000000000E+00  0.17080902149E+03  0.17080902149E+03  0.00000000000E+00 0. -1.
         -1   -1    0    0    0  501 -0.00000000000E+00 -0.00000000000E+00 -0.92486572850E+02  0.92486572850E+02  0.00000000000E+00 0.  1.
         25    2    1    2    0    0 -0.46689418064E+02  0.13227630890E+02  0.84796508804E+02  0.15872047462E+03  0.12508744614E+03 0.  0.
          5    1    3    3  502    0 -0.19809542432E+02  0.45272613445E+02  0.10190963960E+03  0.11333611315E+03  0.41800000000E+01 0.  1.
         -5    1    3    3    0  502 -0.26879875632E+02 -0.32044982555E+02 -0.17113130796E+02  0.45384361476E+02  0.41800000000E+01 0.  1.
        -11    1    1    2    0    0  0.33206802514E+02 -0.28801313836E+02 -0.43729687702E+02  0.62003975666E+02  0.00000000000E+00 0.  1.
         11    1    1    2    0    0  0.13482615550E+02  0.15573682946E+02  0.37255627538E+02  0.42571144051E+02  0.00000000000E+00 0. -1.
</event>
<event>
 7    1  0.2651429E-009  0.1479119E+03  0.7561462E-02  0.1203063E+00
         -2   -1    0    0    0  501 -0.00000000000E+00  0.00000000000E+00  0.48889639577E+02  0.48889639577E+02  0.00000000000E+00 0.  1.
          2   -1    0    0  501    0  0.00000000000E+00 -0.00000000000E+00 -0.50724105350E+03  0.50724105350E+03  0.00000000000E+00 0. -1.
         25    2    1    2    0    0  0.94312532633E+02 -0.33724134062E+02 -0.15204708156E+03  0.22089952701E+03  0.12508443146E+03 0.  0.
          5    1    3    3  502    0 -0.58194411266E+01  0.36568383290E+02 -0.27900232047E+02  0.46551132099E+02  0.41800000000E+01 0. -1.
         -5    1    3    3    0  502  0.10013197376E+03 -0.70292517352E+02 -0.12414684952E+03  0.17434839491E+03  0.41800000000E+01 0. -1.
        -11    1    1    2    0    0 -0.52712600165E+02 -0.29544451359E+02 -0.14164135101E+03  0.15399274379E+03  0.00000000000E+00 0.  1.
         11    1    1    2    0    0 -0.41599932467E+02  0.63268585422E+02 -0.16466298135E+03  0.18123842227E+03  0.00000000000E+00 0. -1.
</event>
<event>
 7    1  0.2651429E-009  0.1520975E+03  0.7561462E-02  0.1197919E+00
         -2   -1    0    0    0  501 -0.00000000000E+00  0.00000000000E+00  0.53249554045E+02  0.53249554045E+02  0.00000000000E+00 0. -1.
          2   -1    0    0  501    0  0.00000000000E+00 -0.00000000000E+00 -0.52547932408E+03  0.52547932408E+03  0.00000000000E+00 0.  1.
         25    2    1    2    0    0  0.10643209721E+03 -0.58302119741E+02 -0.31621612941E+03  0.36106278127E+03  0.12508702185E+03 0.  0.
          5    1    3    3  502    0  0.21225141723E+02 -0.82572423089E+02 -0.16428887612E+03  0.18514053828E+03  0.41800000000E+01 0.  1.
         -5    1    3    3    0  502  0.85206955482E+02  0.24270303348E+02 -0.15192725329E+03  0.17592224299E+03  0.41800000000E+01 0.  1.
        -11    1    1    2    0    0 -0.80035833302E+02  0.18114973746E+02 -0.14756724009E+03  0.16884897760E+03  0.00000000000E+00 0.  1.
         11    1    1    2    0    0 -0.26396263903E+02  0.40187145995E+02 -0.84464005321E+01  0.48817119264E+02  0.00000000000E+00 0. -1.
</event>
<event>
 7    1  0.2651429E-009  0.1061590E+03  0.7561462E-02  0.1267853E+00
          2   -1    0    0  501    0  0.00000000000E+00  0.00000000000E+00  0.26400467178E+03  0.26400467178E+03  0.00000000000E+00 0. -1.
         -2   -1    0    0    0  501 -0.00000000000E+00 -0.00000000000E+00 -0.61115163060E+02  0.61115163060E+02  0.00000000000E+00 0.  1.
         25    2    1    2    0    0 -0.25237240335E+02  0.48981571710E+02  0.92270224207E+02  0.16491586409E+03  0.12508930925E+03 0.  0.
          5    1    3    3  502    0 -0.23432196834E+02  0.87672572434E+02  0.38863514780E+02  0.98809883041E+02  0.41800000000E+01 0.  1.
         -5    1    3    3    0  502 -0.18050435009E+01 -0.38691000724E+02  0.53406709427E+02  0.66105981052E+02  0.41800000000E+01 0.  1.
        -11    1    1    2    0    0 -0.75234048712E+01  0.11492607876E+02 -0.12889277784E+02  0.18836537326E+02  0.00000000000E+00 0.  1.
         11    1    1    2    0    0  0.32760645206E+02 -0.60474179586E+02  0.12350856229E+03  0.14136743342E+03  0.00000000000E+00 0. -1.
</event>
<event>
 7    1  0.2651429E-009  0.1466441E+03  0.7561462E-02  0.1204658E+00
         -2   -1    0    0    0  501 -0.00000000000E+00  0.00000000000E+00  0.15850949265E+02  0.15850949265E+02  0.00000000000E+00 0. -1.
          2   -1    0    0  501    0  0.00000000000E+00 -0.00000000000E+00 -0.13704133959E+04  0.13704133959E+04  0.00000000000E+00 0.  1.
         25    2    1    2    0    0 -0.12779575700E+02  0.97868060590E+02 -0.66774657760E+03  0.68649408402E+03  0.12508861123E+03 0.  0.
          5    1    3    3  502    0  0.20508700887E+01  0.12659219323E+03 -0.53880997532E+03  0.55350108524E+03  0.41800000000E+01 0.  1.
         -5    1    3    3    0  502 -0.14830445789E+02 -0.28724132637E+02 -0.12893660228E+03  0.13299299878E+03  0.41800000000E+01 0.  1.
        -11    1    1    2    0    0 -0.19258746543E+01  0.17554121750E+02 -0.93306185683E+02  0.94962626703E+02  0.00000000000E+00 0.  1.
         11    1    1    2    0    0  0.14705450354E+02 -0.11542218234E+03 -0.59350968336E+03  0.60480763445E+03  0.00000000000E+00 0. -1.
</event>
<event>
 7    1  0.2651429E-009  0.1966186E+03  0.7561462E-02  0.1152624E+00
          1   -1    0    0  501    0  0.00000000000E+00  0.00000000000E+00  0.72470267259E+02  0.72470267259E+02  0.00000000000E+00 0. -1.
         -1   -1    0    0    0  501 -0.00000000000E+00 -0.00000000000E+00 -0.10131610456E+04  0.10131610456E+04  0.00000000000E+00 0.  1.
         25    2    1    2    0    0 -0.10327149291E+03  0.15630187217E+03 -0.80710552839E+03  0.83795142046E+03  0.12509185664E+03 0.  0.
          5    1    3    3  502    0  0.31544585700E+01 -0.40545991857E+01 -0.21983155243E+03  0.21993129434E+03  0.41800000000E+01 0. -1.
         -5    1    3    3    0  502 -0.10642595148E+03  0.16035647136E+03 -0.58727397596E+03  0.61802012612E+03  0.41800000000E+01 0. -1.
        -11    1    1    2    0    0  0.45658217411E+02 -0.28243466347E+02 -0.82143675266E+02  0.98132306580E+02  0.00000000000E+00 0.  1.
         11    1    1    2    0    0  0.57613275499E+02 -0.12805840583E+03 -0.51441574671E+02  0.14954758581E+03  0.00000000000E+00 0. -1.
</event>
<event>
 7    1  0.2651429E-009  0.9189502E+02  0.7561462E-02  0.1298326E+00
         -2   -1    0    0    0  501 -0.00000000000E+00  0.00000000000E+00  0.94368674757E+02  0.94368674757E+02  0.00000000000E+00 0.  1.
          2   -1    0    0  501    0  0.00000000000E+00 -0.00000000000E+00 -0.14587372786E+03  0.14587372786E+03  0.00000000000E+00 0. -1.
         25    2    1    2    0    0 -0.13202802859E+02  0.41634739293E+02 -0.16058265503E+02  0.13346719841E+03  0.12509140515E+03 0.  0.
          5    1    3    3  502    0  0.16352132269E+02 -0.12729866161E+02 -0.55892346881E+02  0.59756744908E+02  0.41800000000E+01 0. -1.
         -5    1    3    3    0  502 -0.29554935128E+02  0.54364605454E+02  0.39834081377E+02  0.73710453504E+02  0.41800000000E+01 0. -1.
        -11    1    1    2    0    0 -0.27198657374E+02 -0.52207683630E+02 -0.18506792234E+02  0.61708269719E+02  0.00000000000E+00 0.  1.
         11    1    1    2    0    0  0.40401460233E+02  0.10572944337E+02 -0.16939995363E+02  0.45066934484E+02  0.00000000000E+00 0. -1.
</event>
<event>
 7    1  0.2651429E-009  0.1049662E+03  0.7561462E-02  0.1270186E+00
          1   -1    0    0  501    0  0.00000000000E+00  0.00000000000E+00  0.60450074451E+02  0.60450074451E+02  0.00000000000E+00 0. -1.
         -1   -1    0    0    0  501 -0.00000000000E+00 -0.00000000000E+00 -0.24509168501E+03  0.24509168501E+03  0.00000000000E+00 0.  1.
         25    2    1    2    0    0  0.17419143535E+01  0.86081710798E+01 -0.16112073730E+03  0.20416330226E+03  0.12508248130E+03 0.  0.
          5    1    3    3  502    0  0.33998367580E+02  0.51150396464E+02 -0.12567740122E+03  0.13994475208E+03  0.41800000000E+01 0. -1.
         -5    1    3    3    0  502 -0.32256453226E+02 -0.42542225384E+02 -0.35443336083E+02  0.64218550187E+02  0.41800000000E+01 0. -1.
        -11    1    1    2    0    0  0.36174655571E+02  0.25145774286E+02  0.28984249747E+01  0.44151064964E+02  0.00000000000E+00 0.  1.
         11    1    1    2    0    0 -0.37916569925E+02 -0.33753945365E+02 -0.26419298228E+02  0.57227392230E+02  0.00000000000E+00 0. -1.
</event>
<event>
 7    1  0.2651429E-009  0.1136094E+03  0.7561462E-02  0.1254028E+00
          1   -1    0    0  501    0  0.00000000000E+00  0.00000000000E+00  0.17952543975E+03  0.17952543975E+03  0.00000000000E+00 0. -1.
         -1   -1    0    0    0  501 -0.00000000000E+00 -0.00000000000E+00 -0.85474498290E+02  0.85474498290E+02  0.00000000000E+00 0.  1.
         25    2    1    2    0    0  0.23706253863E+02  0.47561188089E+02  0.20907390597E+02  0.13752723198E+03  0.12511022129E+03 0.  0.
          5    1    3    3  502    0 -0.27043428108E+02  0.68445335008E+02 -0.10027120718E+02  0.74391709472E+02  0.41800000000E+01 0. -1.
         -5    1    3    3    0  502  0.50749681971E+02 -0.20884146919E+02  0.30934511314E+02  0.63135522512E+02  0.41800000000E+01 0. -1.
        -11    1    1    2    0    0 -0.71706935777E+01  0.23986059779E+02  0.18162818205E+01  0.25100772692E+02  0.00000000000E+00 0.  1.
         11    1    1    2    0    0 -0.16535560285E+02 -0.71547247868E+02  0.71327269043E+02  0.10237193336E+03  0.00000000000E+00 0. -1.
</event>
<event>
 6    1  0.2651429E-009  0.1211262E+03  0.7561462E-02  0.1241251E+00
         -2   -1    0    0    0  501 -0.00000000000E+00  0.00000000000E+00  0.51205460938E+02  0.51205460938E+02  0.00000000000E+00 0. -1.
          2   -1    0    0  501    0  0.00000000000E+00 -0.00000000000E+00 -0.45539994305E+03  0.45539994305E+03  0.00000000000E+00 0.  1.
          5    1    1    2  502    0 -0.69835363733E+02 -0.41441716982E+02 -0.19040901186E+03  0.20704458006E+03  0.41800000000E+01 0.  1.
         -5    1    1    2    0  502  0.55018151243E+02 -0.21920926928E+02 -0.16430666553E+03  0.17470454127E+03  0.41800000000E+01 0.  1.
        -11    1    1    2    0    0 -0.32008029192E+02  0.19965054196E+02 -0.47928949332E+02  0.60994274369E+02  0.00000000000E+00 0.  1.
         11    1    1    2    0    0  0.46825241681E+02  0.43397589714E+02 -0.15498553956E+01  0.63862008293E+02  0.00000000000E+00 0. -1.
</event>
<event>
 7    1  0.2651429E-009  0.1066583E+03  0.7561462E-02  0.1266886E+00
         -1   -1    0    0    0  501 -0.00000000000E+00  0.00000000000E+00  0.43739902353E+03  0.43739902353E+03  0.00000000000E+00 0.  1.
          1   -1    0    0  501    0  0.00000000000E+00 -0.00000000000E+00 -0.56111303738E+02  0.56111303738E+02  0.00000000000E+00 0. -1.
         25    2    1    2    0    0  0.21336887615E+02 -0.99836158080E+02  0.13147240681E+03  0.20822218107E+03  0.12509581009E+03 0.  0.
          5    1    3    3  502    0  0.19396079847E+02 -0.96203586718E+02  0.24696802635E+02  0.10128545044E+03  0.41800000000E+01 0.  1.
         -5    1    3    3    0  502  0.19408077683E+01 -0.36325713618E+01  0.10677560418E+03  0.10693673063E+03  0.41800000000E+01 0.  1.
        -11    1    1    2    0    0 -0.49418678242E+01  0.89927968382E+02  0.25041878829E+03  0.26612221080E+03  0.00000000000E+00 0.  1.
         11    1    1    2    0    0 -0.16395019791E+02  0.99081896978E+01 -0.60347531163E+00  0.19165935393E+02  0.00000000000E+00 0. -1.
</event>
<event>
 7    1  0.2651429E-009  0.9175047E+02  0.7561462E-02  0.1298667E+00
         -1   -1    0    0    0  501 -0.00000000000E+00  0.00000000000E+00  0.33311645811E+03  0.33311645811E+03  0.00000000000E+00 0.  1.
          1   -1    0    0  501    0  0.00000000000E+00 -0.00000000000E+00 -0.41821036853E+02  0.41821036853E+02  0.00000000000E+00 0. -1.
         25    2    1    2    0    0  0.20698579972E+02 -0.36438346421E+02  0.13353104108E+03  0.18770884369E+03  0.12509151356E+03 0.  0.
          5    1    3    3  502    0 -0.48714629483E+02 -0.19784050848E+02  0.26599606069E+02  0.59072288229E+02  0.41800000000E+01 0.  1.
         -5    1    3    3    0  502  0.69413209454E+02 -0.16654295574E+02  0.10693143501E+03  0.12863655546E+03  0.41800000000E+01 0.  1.
        -11    1    1    2    0    0 -0.29433288322E+02  0.94948223939E+01  0.15579641545E+03  0.15883637235E+03  0.00000000000E+00 0.  1.
         11    1    1    2    0    0  0.87347083502E+01  0.26943524027E+02  0.19679647217E+01  0.28392278917E+02  0.00000000000E+00 0. -1.
</event>
<event>
 7    1  0.2651429E-009  0.5201772E+02  0.7561462E-02  0.1434753E+00
         -4   -1    0    0    0  501 -0.00000000000E+00  0.00000000000E+00  0.56941516318E+02  0.56941516318E+02  0.00000000000E+00 0.  1.
          4   -1    0    0  501    0  0.00000000000E+00 -0.00000000000E+00 -0.25334396192E+03  0.25334396192E+03  0.00000000000E+00 0. -1.
         25    2    1    2    0    0  0.25991198845E+02 -0.24571316397E+02 -0.17230652026E+03  0.21590736514E+03  0.12508861415E+03 0.  0.
          5    1    3    3  502    0  0.91960774912E+01 -0.26626963944E+01  0.19477266871E+02  0.22101903042E+02  0.41800000000E+01 0.  1.
         -5    1    3    3    0  502  0.16795121354E+02 -0.21908620003E+02 -0.19178378713E+03  0.19380546210E+03  0.41800000000E+01 0.  1.
        -11    1    1    2    0    0  0.81773089787E+01 -0.12700378597E+02 -0.38868813845E+02  0.41700751652E+02  0.00000000000E+00 0. -1.
         11    1    1    2    0    0 -0.34168507824E+02  0.37271694994E+02  0.14772888502E+02  0.52677361450E+02  0.00000000000E+00 0.  1.
</event>
<event>
 7    1  0.2651429E-009  0.1268866E+03  0.7561462E-02  0.1232150E+00
          1   -1    0    0  501    0  0.00000000000E+00  0.00000000000E+00  0.98233258401E+03  0.98233258401E+03  0.00000000000E+00 0. -1.
         -1   -1    0    0    0  501 -0.00000000000E+00 -0.00000000000E+00 -0.19205319922E+02  0.19205319922E+02  0.00000000000E+00 0.  1.
         25    2    1    2    0    0 -0.14996832544E+02 -0.67825691911E+02  0.70058072859E+03  0.71504250185E+03  0.12508873932E+03 0.  0.
          5    1    3    3  502    0  0.51775798229E+02 -0.53269328568E+02  0.38415214717E+03  0.39129106714E+03  0.41800000000E+01 0. -1.
         -5    1    3    3    0  502 -0.66772630773E+02 -0.14556363343E+02  0.31642858142E+03  0.32375143470E+03  0.41800000000E+01 0. -1.
        -11    1    1    2    0    0 -0.36177093514E+02  0.22984550204E+02  0.67867149302E+02  0.80268434627E+02  0.00000000000E+00 0. -1.
         11    1    1    2    0    0  0.51173926058E+02  0.44841141706E+02  0.19467938619E+03  0.20622696745E+03  0.00000000000E+00 0.  1.
</event>
<event>
 7    1  0.2651429E-009  0.1109713E+03  0.7561462E-02  0.1258782E+00
         -1   -1    0    0    0  501 -0.00000000000E+00  0.00000000000E+00  0.12717892898E+02  0.12717892898E+02  0.00000000000E+00 0.  1.
          1   -1    0    0  501    0  0.00000000000E+00 -0.00000000000E+00 -0.11126908424E+04  0.11126908424E+04  0.00000000000E+00 0. -1.
         25    2    1    2    0    0 -0.33588167624E+02  0.35990101943E+02 -0.71801736385E+03  0.73049269696E+03  0.12508874081E+03 0.  0.
          5    1    3    3  502    0 -0.62151465761E+02 -0.17559633095E+02 -0.49913819127E+03  0.50331655228E+03  0.41800000000E+01 0.  1.
         -5    1    3    3    0  502  0.28563298138E+02  0.53549735038E+02 -0.21887917258E+03  0.22717614468E+03  0.41800000000E+01 0.  1.
        -11    1    1    2    0    0  0.43942792305E+02  0.13387033931E+02 -0.12789203610E+03  0.13589170162E+03  0.00000000000E+00 0.  1.
         11    1    1    2    0    0 -0.10354624681E+02 -0.49377135874E+02 -0.25406354956E+03  0.25902433672E+03  0.00000000000E+00 0. -1.
</event>
<event>
 7    1  0.2651429E-009  0.1133803E+03  0.7561462E-02  0.1254435E+00
          3   -1    0    0  501    0  0.00000000000E+00  0.00000000000E+00  0.23404865878E+03  0.23404865878E+03  0.00000000000E+00 0. -1.
         -3   -1    0    0    0  501 -0.00000000000E+00 -0.00000000000E+00 -0.68860020358E+02  0.68860020358E+02  0.00000000000E+00 0.  1.
         25    2    1    2    0    0  0.14694091105E+02  0.35482939448E+02  0.32758094200E+02  0.13489234640E+03  0.12509155478E+03 0.  0.
          5    1    3    3  502    0 -0.54897824274E+02  0.15082139215E+02  0.23223904457E+02  0.61628436388E+02  0.41800000000E+01 0.  1.
         -5    1    3    3    0  502  0.69591915379E+02  0.20400800233E+02  0.95341897429E+01  0.73263910013E+02  0.41800000000E+01 0.  1.
        -11    1    1    2    0    0 -0.43449558291E+02  0.87061112742E+01  0.32237542754E+02  0.54798901924E+02  0.00000000000E+00 0.  1.
         11    1    1    2    0    0  0.28755467187E+02 -0.44189050722E+02  0.10019300147E+03  0.11321743082E+03  0.00000000000E+00 0. -1.
</event>
<event>
 7    1  0.2651429E-009  0.7410977E+02  0.7561462E-02  0.1346650E+00
          1   -1    0    0  501    0  0.00000000000E+00  0.00000000000E+00  0.25250858561E+03  0.25250858561E+03  0.00000000000E+00 0. -1.
         -1   -1    0    0    0  501 -0.00000000000E+00 -0.00000000000E+00 -0.78379724116E+02  0.78379724116E+02  0.00000000000E+00 0.  1.
         25    2    1    2    0    0 -0.69644218478E+02 -0.23557539012E+01  0.16134435566E+03  0.21572243323E+03  0.12509316668E+03 0.  0.
          5    1    3    3  502    0 -0.48239218006E+02  0.11095665756E+01  0.18025539820E+03  0.18664869213E+03  0.41800000000E+01 0. -1.
         -5    1    3    3    0  502 -0.21405000471E+02 -0.34653204768E+01 -0.18911042545E+02  0.29073741096E+02  0.41800000000E+01 0. -1.
        -11    1    1    2    0    0  0.34624025842E+02 -0.16025551086E+02 -0.35936279840E+02  0.52412380807E+02  0.00000000000E+00 0.  1.
         11    1    1    2    0    0  0.35020192636E+02  0.18381304987E+02  0.48720785676E+02  0.62753495697E+02  0.00000000000E+00 0. -1.
</event>
<event>
 7    1  0.2651429E-009  0.1397460E+03  0.7561462E-02  0.1213671E+00
          2   -1    0    0  501    0  0.00000000000E+00  0.00000000000E+00  0.29223484652E+03  0.29223484652E+03  0.00000000000E+00 0. -1.
         -2   -1    0    0    0  501 -0.00000000000E+00 -0.00000000000E+00 -0.79885199969E+02  0.79885199969E+02  0.00000000000E+00 0.  1.
         25    2    1    2    0    0  0.88581112921E+01 -0.10466271300E+03  0.12998574624E+03  0.20875030775E+03  0.12509055573E+03 0.  0.
          5    1    3    3  502    0  0.58166467115E+02 -0.46191962577E+02  0.10398611761E+03  0.12785781306E+03  0.41800000000E+01 0.  1.
         -5    1    3    3    0  502 -0.49308355823E+02 -0.58470750419E+02  0.25999628628E+02  0.80892494691E+02  0.41800000000E+01 0.  1.
        -11    1    1    2    0    0 -0.30212435035E+02  0.10270136615E+03  0.90751896400E+02  0.14034339507E+03  0.00000000000E+00 0. -1.
         11    1    1    2    0    0  0.21354323743E+02  0.19613468418E+01 -0.83879960965E+01  0.23026343663E+02  0.00000000000E+00 0.  1.
</event>
<event>
 7    1  0.2651429E-009  0.1235033E+03  0.7561462E-02  0.1237427E+00
          2   -1    0    0  501    0  0.00000000000E+00  0.00000000000E+00  0.20929827707E+03  0.20929827707E+03  0.00000000000E+00 0. -1.
         -2   -1    0    0    0  501 -0.00000000000E+00 -0.00000000000E+00 -0.91868661453E+02  0.91868661453E+02  0.00000000000E+00 0.  1.
         25    2    1    2    0    0 -0.28959740963E+02  0.80895150158E+02  0.59295902598E+02  0.16292049396E+03  0.12507754144E+03 0.  0.
          5    1    3    3  502    0 -0.35191253235E+02  0.97320850126E+02  0.83277623495E+02  0.13289998927E+03  0.41800000000E+01 0.  1.
         -5    1    3    3    0  502  0.62315122718E+01 -0.16425699968E+02 -0.23981720898E+02  0.30020504690E+02  0.41800000000E+01 0.  1.
        -11    1    1    2    0    0 -0.33384859162E+02 -0.26163773844E+02  0.17761380153E+02  0.45984328939E+02  0.00000000000E+00 0.  1.
         11    1    1    2    0    0  0.62344600124E+02 -0.54731376314E+02  0.40372332866E+02  0.92262115621E+02  0.00000000000E+00 0. -1.
</event>
<event>
 7    1  0.2651429E-009  0.9665266E+02  0.7561462E-02  0.1287497E+00
          1   -1    0    0  501    0  0.00000000000E+00  0.00000000000E+00  0.16410070482E+03  0.16410070482E+03  0.00000000000E+00 0. -1.
         -1   -1    0    0    0  501 -0.00000000000E+00 -0.00000000000E+00 -0.77631434401E+02  0.77631434401E+02  0.00000000000E+00 0.  1.
         25    2    1    2    0    0  0.11203999234E+02  0.59602625585E+01  0.30880859491E+02  0.12946981526E+03  0.12509097190E+03 0.  0.
          5    1    3    3  502    0  0.19260023974E+02 -0.44561175982E+02 -0.24008795278E+02  0.54318887867E+02  0.41800000000E+01 0. -1.
         -5    1    3    3    0  502 -0.80560247391E+01  0.50521438541E+02  0.54889654769E+02  0.75150927390E+02  0.41800000000E+01 0. -1.
        -11    1    1    2    0    0  0.35257985428E+02  0.19477688189E+02  0.80252456753E+01  0.41072015312E+02  0.00000000000E+00 0.  1.
         11    1    1    2    0    0 -0.46461984663E+02 -0.25437950748E+02  0.47563165249E+02  0.71190308649E+02  0.00000000000E+00 0. -1.
</event>
<event>
 7    1  0.2651429E-009  0.1250781E+03  0.7561462E-02  0.1234947E+00
          2   -1    0    0  501    0  0.00000000000E+00  0.00000000000E+00  0.54386331666E+03  0.54386331666E+03  0.00000000000E+00 0. -1.
         -2   -1    0    0    0  501 -0.00000000000E+00 -0.00000000000E+00 -0.41765521670E+02  0.41765521670E+02  0.00000000000E+00 0.  1.
         25    2    1    2    0    0 -0.75490388864E+02 -0.67879472596E+02  0.31282596438E+03  0.35187362406E+03  0.12509413137E+03 0.  0.
          5    1    3    3  502    0  0.15950856970E+02 -0.40655926685E+02  0.19664868817E+03  0.20148328261E+03  0.41800000000E+01 0.  1.
         -5    1    3    3    0  502 -0.91441245834E+02 -0.27223545911E+02  0.11617727621E+03  0.15039034144E+03  0.41800000000E+01 0.  1.
        -11    1    1    2    0    0  0.52356638814E+02  0.17258470100E+02  0.25415266403E+02  0.60704268256E+02  0.00000000000E+00 0.  1.
         11    1    1    2    0    0  0.23133750049E+02  0.50621002496E+02  0.16385656421E+03  0.17305094602E+03  0.00000000000E+00 0. -1.
</event>
<event>
 7    1  0.2651429E-009  0.1243540E+03  0.7561462E-02  0.1236082E+00
          3   -1    0    0  501    0  0.00000000000E+00  0.00000000000E+00  0.11206573230E+03  0.11206573230E+03  0.00000000000E+00 0. -1.
         -3   -1    0    0    0  501 -0.00000000000E+00 -0.00000000000E+00 -0.16714885710E+03  0.16714885710E+03  0.00000000000E+00 0.  1.
         25    2    1    2    0    0 -0.31429186674E+02 -0.57540070618E+02 -0.82387875203E+02  0.16348600763E+03  0.12506501992E+03 0.  0.
          5    1    3    3  502    0  0.40077033428E+02  0.57362466171E+01 -0.45480116078E+02  0.61032667418E+02  0.41800000000E+01 0. -1.
         -5    1    3    3    0  502 -0.71506220102E+02 -0.63276317236E+02 -0.36907759125E+02  0.10245334021E+03  0.41800000000E+01 0. -1.
        -11    1    1    2    0    0  0.34175940680E+02  0.81468773663E+02  0.20378272500E+02  0.90666586975E+02  0.00000000000E+00 0. -1.
         11    1    1    2    0    0 -0.27467540069E+01 -0.23928703045E+02  0.69264779109E+01  0.25061994797E+02  0.00000000000E+00 0.  1.
</event>
<event>
 7    1  0.2651429E-009  0.1060940E+03  0.7561462E-02  0.1267979E+00
          2   -1    0    0  501    0  0.00000000000E+00  0.00000000000E+00  0.72371382192E+03  0.72371382192E+03  0.00000000000E+00 0. -1.
         -2   -1    0    0    0  501 -0.00000000000E+00 -0.00000000000E+00 -0.18537053922E+02  0.18537053922E+02  0.00000000000E+00 0.  1.
         25    2    1    2    0    0  0.26400794479E+02  0.32689870671E+02  0.39789251390E+03  0.41919959154E+03  0.12507683771E+03 0.  0.
          5    1    3    3  502    0  0.26080612691E+02  0.79331647834E+02  0.28407422927E+03  0.29612387415E+03  0.41800000000E+01 0. -1.
         -5    1    3    3    0  502  0.32018178797E+00 -0.46641777163E+02  0.11381828463E+03  0.12307571739E+03  0.41800000000E+01 0. -1.
        -11    1    1    2    0    0  0.23701589974E+02 -0.40824700527E+01  0.24092680335E+02  0.34042461350E+02  0.00000000000E+00 0.  1.
         11    1    1    2    0    0 -0.50102384453E+02 -0.28607400618E+02  0.28319157376E+03  0.28900882296E+03  0.00000000000E+00 0. -1.
</event>
<event>
 7    1  0.2651429E-009  0.1722675E+03  0.7561462E-02  0.1175504E+00
          4   -1    0    0  501    0  0.00000000000E+00  0.00000000000E+00  0.22824402575E+03  0.22824402575E+03  0.00000000000E+00 0. -1.
         -4   -1    0    0    0  501 -0.00000000000E+00 -0.00000000000E+00 -0.14113382457E+03  0.14113382457E+03  0.00000000000E+00 0.  1.
         25    2    1    2    0    0 -0.59123131800E+02  0.12425228360E+03  0.84368031837E+02  0.20420359311E+03  0.12508784094E+03 0.  0.
          5    1    3    3  502    0  0.24321260358E+02  0.82717008738E+02  0.67060862869E+02  0.10930809196E+03  0.41800000000E+01 0.  1.
         -5    1    3    3    0  502 -0.83444392158E+02  0.41535274865E+02  0.17307168968E+02  0.94895501150E+02  0.41800000000E+01 0.  1.
        -11    1    1    2    0    0 -0.20634017112E+02 -0.56880577405E+02 -0.32849825353E+01  0.60596648903E+02  0.00000000000E+00 0. -1.
         11    1    1    2    0    0  0.79757148912E+02 -0.67371706199E+02  0.60271518813E+01  0.10457760830E+03  0.00000000000E+00 0.  1.
</event>
<event>
 7    1  0.2651429E-009  0.1241129E+03  0.7561462E-02  0.1236462E+00
         -1   -1    0    0    0  501 -0.00000000000E+00  0.00000000000E+00  0.70967634175E+03  0.70967634175E+03  0.00000000000E+00 0.  1.
          1   -1    0    0  501    0  0.00000000000E+00 -0.00000000000E+00 -0.25549290239E+02  0.25549290239E+02  0.00000000000E+00 0. -1.
         25    2    1    2    0    0 -0.62761293048E+02  0.48386156521E+02  0.43755593023E+03  0.46193364900E+03  0.12508918398E+03 0.  0.
          5    1    3    3  502    0 -0.63882884356E+02  0.81089848052E+02  0.23498804509E+03  0.25669717588E+03  0.41800000000E+01 0. -1.
         -5    1    3    3    0  502  0.11215913082E+01 -0.32703691531E+02  0.20256788514E+03  0.20523647312E+03  0.41800000000E+01 0. -1.
        -11    1    1    2    0    0  0.57989090672E+02  0.51092267877E+01  0.17056068326E+03  0.18022149015E+03  0.00000000000E+00 0.  1.
         11    1    1    2    0    0  0.47722023761E+01 -0.53495383309E+02  0.76010438020E+02  0.93070492847E+02  0.00000000000E+00 0. -1.
</event>
<event>
 7    1  0.2651429E-009  0.1169972E+03  0.7561462E-02  0.1248134E+00
          2   -1    0    0  501    0  0.00000000000E+00  0.00000000000E+00  0.28314068967E+03  0.28314068967E+03  0.00000000000E+00 0.  1.
         -2   -1    0    0    0  501 -0.00000000000E+00 -0.00000000000E+00 -0.87631744909E+02  0.87631744909E+02  0.00000000000E+00 0. -1.
         25    2    1    2    0    0  0.40156647281E+02 -0.46347721645E+02  0.22130885829E+03  0.26150619185E+03  0.12508880844E+03 0.  0.
          5    1    3    3  502    0  0.65328311858E+02  0.17572880704E+02  0.84188836891E+02  0.10808250147E+03  0.41800000000E+01 0. -1.
         -5    1    3    3    0  502 -0.25171664578E+02 -0.63920602349E+02  0.13712002140E+03  0.15342369039E+03  0.41800000000E+01 0. -1.
        -11    1    1    2    0    0 -0.20051965500E+02  0.66178886075E+02  0.26227984026E+01  0.69199749667E+02  0.00000000000E+00 0.  1.
         11    1    1    2    0    0 -0.20104681781E+02 -0.19831164430E+02 -0.28422711935E+02  0.40066493057E+02  0.00000000000E+00 0. -1.
</event>
<event>
 7    1  0.2651429E-009  0.1119898E+03  0.7561462E-02  0.1256929E+00
          3   -1    0    0  501    0  0.00000000000E+00  0.00000000000E+00  0.57535823738E+02  0.57535823738E+02  0.00000000000E+00 0. -1.
         -3   -1    0    0    0  501 -0.00000000000E+00 -0.00000000000E+00 -0.38739372134E+03  0.38739372134E+03  0.00000000000E+00 0.  1.
         25    2    1    2    0    0 -0.55390405933E+02 -0.53388507032E+02 -0.10912896509E+03  0.18296005362E+03  0.12508725134E+03 0.  0.
          5    1    3    3  502    0 -0.83997173004E+02 -0.16808537055E+02 -0.29520568000E+02  0.90702747067E+02  0.41800000000E+01 0. -1.
         -5    1    3    3    0  502  0.28606767071E+02 -0.36579969977E+02 -0.79608397088E+02  0.92257306555E+02  0.41800000000E+01 0. -1.
        -11    1    1    2    0    0  0.13247209264E+02  0.47164580890E+02 -0.21314111765E+03  0.21869870204E+03  0.00000000000E+00 0.  1.
         11    1    1    2    0    0  0.42143196669E+02  0.62239261425E+01 -0.75878148706E+01  0.43270789415E+02  0.00000000000E+00 0. -1.
</event>
<event>
 7    1  0.2651429E-009  0.7881113E+02  0.7561462E-02  0.1332460E+00
          2   -1    0    0  501    0  0.00000000000E+00  0.00000000000E+00  0.29650163060E+03  0.29650163060E+03  0.00000000000E+00 0. -1.
         -2   -1    0    0    0  501 -0.00000000000E+00 -0.00000000000E+00 -0.40530756960E+02  0.40530756960E+02  0.00000000000E+00 0.  1.
         25    2    1    2    0    0  0.86192783356E+01  0.29400176279E+01  0.13541437476E+03  0.18457363402E+03  0.12508971909E+03 0.  0.
          5    1    3    3  502    0  0.42328523992E+02 -0.23154526166E+02  0.66635127473E+01  0.48884668634E+02  0.41800000000E+01 0.  1.
         -5    1    3    3    0  502 -0.33709245657E+02  0.26094543794E+02  0.12875086201E+03  0.13568896538E+03  0.41800000000E+01 0.  1.
        -11    1    1    2    0    0  0.26789053755E+02 -0.12677708322E+02  0.35793752517E+01  0.29852799141E+02  0.00000000000E+00 0.  1.
         11    1    1    2    0    0 -0.35408332090E+02  0.97376906937E+01  0.11697712363E+03  0.12260595440E+03  0.00000000000E+00 0. -1.
</event>
<event>
 7    1  0.2651429E-009  0.1288970E+03  0.7561462E-02  0.1229102E+00
         -2   -1    0    0    0  501 -0.00000000000E+00  0.00000000000E+00  0.52916013191E+02  0.52916013191E+02  0.00000000000E+00 0.  1.
          2   -1    0    0  501    0  0.00000000000E+00 -0.00000000000E+00 -0.34484464738E+03  0.34484464738E+03  0.00000000000E+00 0. -1.
         25    2    1    2    0    0 -0.62485199959E+02  0.53570063678E+02 -0.18232752476E+03  0.23592183700E+03  0.12506652212E+03 0.  0.
          5    1    3    3  502    0 -0.93948359706E+02  0.65176959439E+02 -0.12570772506E+03  0.16998304290E+03  0.41800000000E+01 0.  1.
         -5    1    3    3    0  502  0.31463159747E+02 -0.11606895761E+02 -0.56619799697E+02  0.65938794106E+02  0.41800000000E+01 0.  1.
        -11    1    1    2    0    0  0.78723006085E+02 -0.39419725961E+02 -0.10923430705E+03  0.14029739954E+03  0.00000000000E+00 0. -1.
         11    1    1    2    0    0 -0.16237806126E+02 -0.14150337717E+02 -0.36680239079E+00  0.21541424031E+02  0.00000000000E+00 0.  1.
</event>
<event>
 7    1  0.2651429E-009  0.7158405E+02  0.7561462E-02  0.1354788E+00
         -2   -1    0    0    0  501 -0.00000000000E+00  0.00000000000E+00  0.35481171942E+03  0.35481171942E+03  0.00000000000E+00 0.  1.
          2   -1    0    0  501    0  0.00000000000E+00 -0.00000000000E+00 -0.47219602493E+02  0.47219602493E+02  0.00000000000E+00 0. -1.
         25    2    1    2    0    0  0.22905267861E+02 -0.42858202483E+02  0.92631598519E+02  0.16306378599E+03  0.12509080078E+03 0.  0.
          5    1    3    3  502    0  0.14733168289E+01  0.52585858538E-02 -0.30525319454E+02  0.30845392167E+02  0.41800000000E+01 0. -1.
         -5    1    3    3    0  502  0.21431951032E+02 -0.42863461068E+02  0.12315691797E+03  0.13221839382E+03  0.41800000000E+01 0. -1.
        -11    1    1    2    0    0 -0.43442161960E+02  0.52332653284E+02  0.20145150073E+03  0.21262322353E+03  0.00000000000E+00 0. -1.
         11    1    1    2    0    0  0.20536894099E+02 -0.94744508014E+01  0.13509017677E+02  0.26344312400E+02  0.00000000000E+00 0.  1.
</event>
<event>
 7    1  0.2651429E-009  0.9805683E+02  0.7561462E-02  0.1284436E+00
         -1   -1    0    0    0  501 -0.00000000000E+00  0.00000000000E+00  0.13283246477E+02  0.13283246477E+02  0.00000000000E+00 0.  1.
          1   -1    0    0  501    0  0.00000000000E+00 -0.00000000000E+00 -0.12175357804E+04  0.12175357804E+04  0.00000000000E+00 0. -1.
         25    2    1    2    0    0  0.71195594127E+02  0.30217557320E+02 -0.65526487670E+03  0.67156786309E+03  0.12509765265E+03 0.  0.
          5    1    3    3  502    0  0.75896882317E+02  0.18237576490E+02 -0.65322291105E+03  0.65788341662E+03  0.41800000000E+01 0.  1.
         -5    1    3    3    0  502 -0.47012881895E+01  0.11979980830E+02 -0.20419656484E+01  0.13684446464E+02  0.41800000000E+01 0.  1.
        -11    1    1    2    0    0 -0.77343568591E+02 -0.44240025893E+02 -0.50156886322E+03  0.50942176244E+03  0.00000000000E+00 0. -1.
         11    1    1    2    0    0  0.61479744636E+01  0.14022468573E+02 -0.47418794033E+02  0.49829401385E+02  0.00000000000E+00 0.  1.
</event>
<event>
 7    1  0.2651429E-009  0.9025840E+02  0.7561462E-02  0.1302227E+00
          2   -1    0    0  501    0  0.00000000000E+00  0.00000000000E+00  0.33766515525E+03  0.33766515525E+03  0.00000000000E+00 0.  1.
         -2   -1    0    0    0  501 -0.00000000000E+00 -0.00000000000E+00 -0.35909017476E+02  0.35909017476E+02  0.00000000000E+00 0. -1.
         25    2    1    2    0    0  0.25218669743E+02  0.19682094715E+01  0.18193245779E+03  0.22223203432E+03  0.12509117766E+03 0.  0.
          5    1    3    3  502    0 -0.40685342717E+02  0.12239781690E+02  0.20187359536E+02  0.47224053752E+02  0.41800000000E+01 0.  1.
         -5    1    3    3    0  502  0.65904012459E+02 -0.10271572218E+02  0.16174509825E+03  0.17500798057E+03  0.41800000000E+01 0.  1.
        -11    1    1    2    0    0 -0.21774369952E+02 -0.33128963750E+02  0.15765390284E+02  0.42663789761E+02  0.00000000000E+00 0. -1.
         11    1    1    2    0    0 -0.34442997912E+01  0.31160754279E+02  0.10405828970E+03  0.10867834864E+03  0.00000000000E+00 0.  1.
</event>
<event>
 7    1  0.2945685E-009  0.1341252E+03  0.7561462E-02  0.1221460E+00
         -1   -1    0    0    0  501 -0.00000000000E+00  0.00000000000E+00  0.64501545205E+02  0.64501545205E+02  0.00000000000E+00 0.  1.
          1   -1    0    0  501    0  0.00000000000E+00 -0.00000000000E+00 -0.32541355629E+03  0.32541355629E+03  0.00000000000E+00 0. -1.
         25    2    1    2    0    0  0.75202143055E+02 -0.57734098186E+02 -0.16318361434E+03  0.22640712313E+03  0.12507079996E+03 0.  0.
          5    1    3    3  502    0 -0.33347194662E+01 -0.75037381556E+02 -0.64968215770E+02  0.99398543476E+02  0.41800000000E+01 0.  1.
         -5    1    3    3    0  502  0.78536862521E+02  0.17303283370E+02 -0.98215398568E+02  0.12700857965E+03  0.41800000000E+01 0.  1.
        -11    1    1    2    0    0 -0.21212575690E+02  0.54413694656E+02 -0.92192000940E+02  0.10913381039E+03  0.00000000000E+00 0. -1.
         11    1    1    2    0    0 -0.53989567365E+02  0.33204035295E+01 -0.55363958047E+01  0.54374167970E+02  0.00000000000E+00 0.  1.
</event>
<event>
 7    1  0.2651429E-009  0.1063411E+03  0.7561462E-02  0.1267500E+00
         -1   -1    0    0    0  501 -0.00000000000E+00  0.00000000000E+00  0.45109912888E+02  0.45109912888E+02  0.00000000000E+00 0.  1.
          1   -1    0    0  501    0  0.00000000000E+00 -0.00000000000E+00 -0.51857588262E+03  0.51857588262E+03  0.00000000000E+00 0. -1.
         25    2    1    2    0    0 -0.18299297112E+02  0.47437795159E+02 -0.42847278822E+03  0.44924551739E+03  0.12508955178E+03 0.  0.
          5    1    3    3  502    0 -0.12324289650E+02  0.84096869667E+02 -0.19443560172E+03  0.21224242558E+03  0.41800000000E+01 0.  1.
         -5    1    3    3    0  502 -0.59750074615E+01 -0.36659074507E+02 -0.23403718651E+03  0.23700309181E+03  0.41800000000E+01 0.  1.
        -11    1    1    2    0    0 -0.28934423652E+02 -0.12827899958E+02 -0.46045401866E+02  0.55874277824E+02  0.00000000000E+00 0. -1.
         11    1    1    2    0    0  0.47233720763E+02 -0.34609895202E+02  0.10522203543E+01  0.58566000296E+02  0.00000000000E+00 0.  1.
</event>
<event>
 7    1  0.2651429E-009  0.9185941E+02  0.7561462E-02  0.1298410E+00
         -2   -1    0    0    0  501 -0.00000000000E+00  0.00000000000E+00  0.52385554886E+02  0.52385554886E+02  0.00000000000E+00 0.  1.
          2   -1    0    0  501    0  0.00000000000E+00 -0.00000000000E+00 -0.28103255228E+03  0.28103255228E+03  0.00000000000E+00 0. -1.
         25    2    1    2    0    0  0.49950960945E+02  0.70026870249E+01 -0.98906769047E+02  0.16725414092E+03  0.12508901857E+03 0.  0.
          5    1    3    3  502    0  0.43825936453E+02  0.55399876908E+02 -0.18546064179E+02  0.73152498002E+02  0.41800000000E+01 0.  1.
         -5    1    3    3    0  502  0.61250244920E+01 -0.48397189883E+02 -0.80360704869E+02  0.94101642922E+02  0.41800000000E+01 0.  1.
        -11    1    1    2    0    0 -0.21805299826E+02 -0.22939847623E+02  0.81652424644E+00  0.31660297239E+02  0.00000000000E+00 0.  1.
         11    1    1    2    0    0 -0.28145661119E+02  0.15937160598E+02 -0.13055675260E+03  0.13450366901E+03  0.00000000000E+00 0. -1.
</event>
<event>
 7    1  0.2651429E-009  0.1240359E+03  0.7561462E-02  0.1236584E+00
         -2   -1    0    0    0  501 -0.00000000000E+00  0.00000000000E+00  0.39459449318E+02  0.39459449318E+02  0.00000000000E+00 0.  1.
          2   -1    0    0  501    0  0.00000000000E+00 -0.00000000000E+00 -0.57242268493E+03  0.57242268493E+03  0.00000000000E+00 0. -1.
         25    2    1    2    0    0  0.66574344950E+02  0.69238882204E+02 -0.20756244687E+03  0.26068270334E+03  0.12508851369E+03 0.  0.
          5    1    3    3  502    0 -0.13928539256E+02  0.19108930887E+02 -0.14504233185E+03  0.14701668570E+03  0.41800000000E+01 0.  1.
         -5    1    3    3    0  502  0.80502884206E+02  0.50129951317E+02 -0.62520115019E+02  0.11366601764E+03  0.41800000000E+01 0.  1.
        -11    1    1    2    0    0 -0.42117230628E+02  0.12402543518E+02 -0.14823365032E+03  0.15459915681E+03  0.00000000000E+00 0. -1.
         11    1    1    2    0    0 -0.24457114323E+02 -0.81641425722E+02 -0.17716713842E+03  0.19660027409E+03  0.00000000000E+00 0.  1.
</event>
<event>
 7    1  0.2651429E-009  0.9230611E+02  0.7561462E-02  0.1297361E+00
         -4   -1    0    0    0  501 -0.00000000000E+00  0.00000000000E+00  0.96240260047E+03  0.96240260047E+03  0.00000000000E+00 0. -1.
          4   -1    0    0  501    0  0.00000000000E+00 -0.00000000000E+00 -0.14683494873E+02  0.14683494873E+02  0.00000000000E+00 0.  1.
         25    2    1    2    0    0  0.31108372836E+02 -0.26681894615E+02  0.64747306637E+03  0.66071893653E+03  0.12509391296E+03 0.  0.
          5    1    3    3  502    0  0.49776767314E+01  0.39656355819E+02  0.42877387874E+03  0.43065289423E+03  0.41800000000E+01 0. -1.
         -5    1    3    3    0  502  0.26130696104E+02 -0.66338250434E+02  0.21869918763E+03  0.23006604230E+03  0.41800000000E+01 0. -1.
        -11    1    1    2    0    0  0.27157308723E+01 -0.17305160724E+02  0.86456653562E+01  0.19534362321E+02  0.00000000000E+00 0.  1.
         11    1    1    2    0    0 -0.33824103708E+02  0.43987055339E+02  0.29160037388E+03  0.29683279649E+03  0.00000000000E+00 0. -1.
</event>
<event>
 7    1  0.2651429E-009  0.8526744E+02  0.7561462E-02  0.1314735E+00
         -2   -1    0    0    0  501 -0.00000000000E+00  0.00000000000E+00  0.77565303422E+02  0.77565303422E+02  0.00000000000E+00 0.  1.
          2   -1    0    0  501    0  0.00000000000E+00 -0.00000000000E+00 -0.17519346824E+03  0.17519346824E+03  0.00000000000E+00 0. -1.
         25    2    1    2    0    0 -0.13759477237E+02 -0.22778202945E+01 -0.99378884550E+02  0.16034501095E+03  0.12505937854E+03 0.  0.
          5    1    3    3  502    0 -0.52014332481E+02  0.37954283650E+02 -0.29361675015E+02  0.70891457811E+02  0.41800000000E+01 0.  1.
         -5    1    3    3    0  502  0.38254855244E+02 -0.40232103945E+02 -0.70017209534E+02  0.89453553135E+02  0.41800000000E+01 0.  1.
        -11    1    1    2    0    0 -0.76490471604E+01  0.20715538998E+02  0.39505036529E+02  0.45258031216E+02  0.00000000000E+00 0.  1.
         11    1    1    2    0    0  0.21408524398E+02 -0.18437718704E+02 -0.37754316795E+02  0.47155729498E+02  0.00000000000E+00 0. -1.
</event>
<event>
 7    1  0.2651429E-009  0.1450745E+03  0.7561462E-02  0.1206659E+00
         -1   -1    0    0    0  501 -0.00000000000E+00  0.00000000000E+00  0.53628327468E+02  0.53628327468E+02  0.00000000000E+00 0.  1.
          1   -1    0    0  501    0  0.00000000000E+00 -0.00000000000E+00 -0.49047455511E+03  0.49047455511E+03  0.00000000000E+00 0. -1.
         25    2    1    2    0    0 -0.46481641690E+02  0.94648463744E+02 -0.13607136387E+03  0.21279184700E+03  0.12508428910E+03 0.  0.
          5    1    3    3  502    0 -0.79123251939E+02  0.86563854976E+02 -0.65227390864E+02  0.13426047410E+03  0.41800000000E+01 0. -1.
         -5    1    3    3    0  502  0.32641610250E+02  0.80846087673E+01 -0.70843973007E+02  0.78531372903E+02  0.41800000000E+01 0. -1.
        -11    1    1    2    0    0 -0.17003513761E+02 -0.67942231632E+02 -0.14894657625E+03  0.16459146058E+03  0.00000000000E+00 0. -1.
         11    1    1    2    0    0  0.63485155450E+02 -0.26706232112E+02 -0.15182828753E+03  0.16671957500E+03  0.00000000000E+00 0.  1.
</event>
<event>
 7    1  0.2651429E-009  0.2996826E+03  0.7561462E-02  0.1085399E+00
          1   -1    0    0  501    0  0.00000000000E+00  0.00000000000E+00  0.98477242649E+03  0.98477242649E+03  0.00000000000E+00 0. -1.
         -1   -1    0    0    0  501 -0.00000000000E+00 -0.00000000000E+00 -0.10491053923E+03  0.10491053923E+03  0.00000000000E+00 0.  1.
         25    2    1    2    0    0 -0.29286722952E+03 -0.30110096598E+02  0.56525285311E+03  0.64949604606E+03  0.12512591200E+03 0.  0.
          5    1    3    3  502    0 -0.60153808437E+02 -0.11807889565E+02  0.36437471295E+02  0.71435765831E+02  0.41800000000E+01 0.  1.
         -5    1    3    3    0  502 -0.23271342108E+03 -0.18302207034E+02  0.52881538181E+03  0.57806028022E+03  0.41800000000E+01 0.  1.
        -11    1    1    2    0    0  0.12608093331E+03  0.51708972486E+02  0.10863928614E+03  0.17427769241E+03  0.00000000000E+00 0.  1.
         11    1    1    2    0    0  0.16678629621E+03 -0.21598875887E+02  0.20596974801E+03  0.26590922725E+03  0.00000000000E+00 0. -1.
</event>
<event>
 7    1  0.2651429E-009  0.8885778E+02  0.7561462E-02  0.1305642E+00
         -1   -1    0    0    0  501 -0.00000000000E+00  0.00000000000E+00  0.76667690809E+02  0.76667690809E+02  0.00000000000E+00 0.  1.
          1   -1    0    0  501    0  0.00000000000E+00 -0.00000000000E+00 -0.17828234843E+03  0.17828234843E+03  0.00000000000E+00 0. -1.
         25    2    1    2    0    0 -0.45091117724E+02 -0.19339209555E+02 -0.57847802631E+02  0.14629101457E+03  0.12508988268E+03 0.  0.
          5    1    3    3  502    0  0.21272285560E+02 -0.33225934831E+02 -0.66882012334E+02  0.77763415898E+02  0.41800000000E+01 0. -1.
         -5    1    3    3    0  502 -0.66363403285E+02  0.13886725276E+02  0.90342097023E+01  0.68527598669E+02  0.41800000000E+01 0. -1.
        -11    1    1    2    0    0 -0.10138401152E+02 -0.29448351173E+01 -0.47814301593E+02  0.48965974601E+02  0.00000000000E+00 0. -1.
         11    1    1    2    0    0  0.55229518876E+02  0.22284044673E+02  0.40474466074E+01  0.59693050067E+02  0.00000000000E+00 0.  1.
</event>
<event>
 7    1  0.2651429E-009  0.8133764E+02  0.7561462E-02  0.1325298E+00
         -2   -1    0    0    0  501 -0.00000000000E+00  0.00000000000E+00  0.45103657425E+02  0.45103657425E+02  0.00000000000E+00 0.  1.
          2   -1    0    0  501    0  0.00000000000E+00 -0.00000000000E+00 -0.28676773632E+03  0.28676773632E+03  0.00000000000E+00 0. -1.
         25    2    1    2    0    0 -0.30436361560E+02 -0.62476235360E+01 -0.14229512244E+03  0.19199211107E+03  0.12509062289E+03 0.  0.
          5    1    3    3  502    0 -0.34764811803E+02  0.45875353473E+02 -0.23849449428E+02  0.62445246689E+02  0.41800000000E+01 0. -1.
         -5    1    3    3    0  502  0.43284502434E+01 -0.52122977009E+02 -0.11844567301E+03  0.12954686438E+03  0.41800000000E+01 0. -1.
        -11    1    1    2    0    0  0.25064251721E+02 -0.15915069696E+02  0.74848782891E+01  0.30619104506E+02  0.00000000000E+00 0.  1.
         11    1    1    2    0    0  0.53721098388E+01  0.22162693232E+02 -0.10685383475E+03  0.10926017818E+03  0.00000000000E+00 0. -1.
</event>
<event>
 7    1  0.2651429E-009  0.9458156E+02  0.7561462E-02  0.1292121E+00
          2   -1    0    0  501    0  0.00000000000E+00  0.00000000000E+00  0.17503113976E+03  0.17503113976E+03  0.00000000000E+00 0. -1.
         -2   -1    0    0    0  501 -0.00000000000E+00 -0.00000000000E+00 -0.71501614245E+02  0.71501614245E+02  0.00000000000E+00 0.  1.
         25    2    1    2    0    0 -0.11202529871E+02  0.19381810066E+02  0.54661146417E+02  0.13833478722E+03  0.12509005232E+03 0.  0.
          5    1    3    3  502    0 -0.25313315693E+02  0.54324622207E+02 -0.12355819690E+02  0.61335692786E+02  0.41800000000E+01 0.  1.
         -5    1    3    3    0  502  0.14110785822E+02 -0.34942812141E+02  0.67016966107E+02  0.76999094430E+02  0.41800000000E+01 0.  1.
        -11    1    1    2    0    0 -0.10652069944E+02 -0.51350879257E+02  0.10111726453E+02  0.53409984146E+02  0.00000000000E+00 0.  1.
         11    1    1    2    0    0  0.21854599815E+02  0.31969069191E+02  0.38756652647E+02  0.54787982646E+02  0.00000000000E+00 0. -1.
</event>
<event>
 7    1  0.2651429E-009  0.1067653E+03  0.7561462E-02  0.1266680E+00
         -2   -1    0    0    0  501 -0.00000000000E+00  0.00000000000E+00  0.21587881684E+02  0.21587881684E+02  0.00000000000E+00 0.  1.
          2   -1    0    0  501    0  0.00000000000E+00 -0.00000000000E+00 -0.11643744536E+04  0.11643744536E+04  0.00000000000E+00 0. -1.
         25    2    1    2    0    0  0.32042341915E+02  0.61598022010E+02 -0.95975240627E+03  0.97035683037E+03  0.12508664558E+03 0.  0.
          5    1    3    3  502    0  0.12997741451E+02  0.98919589188E+02 -0.72703628357E+03  0.73386187830E+03  0.41800000000E+01 0. -1.
         -5    1    3    3    0  502  0.19044600464E+02 -0.37321567178E+02 -0.23271612271E+03  0.23649495207E+03  0.41800000000E+01 0. -1.
        -11    1    1    2    0    0 -0.17170711977E+01 -0.20071832930E+02  0.49260308151E+01  0.20738673783E+02  0.00000000000E+00 0.  1.
         11    1    1    2    0    0 -0.30325270718E+02 -0.41526189080E+02 -0.18796019648E+03  0.19486683115E+03  0.00000000000E+00 0. -1.
</event>
<event>
 7    1  0.2651429E-009  0.1751552E+03  0.7561462E-02  0.1172576E+00
         -1   -1    0    0    0  501 -0.00000000000E+00  0.00000000000E+00  0.12989660298E+03  0.12989660298E+03  0.00000000000E+00 0.  1.
          1   -1    0    0  501    0  0.00000000000E+00 -0.00000000000E+00 -0.27376480279E+03  0.27376480279E+03  0.00000000000E+00 0. -1.
         25    2    1    2    0    0  0.87044271182E+02  0.12451110073E+03 -0.57127305036E+02  0.20491710493E+03  0.12509105308E+03 0.  0.
          5    1    3    3  502    0  0.99272975460E+02  0.14029319595E+03 -0.36184036895E+02  0.17568170484E+03  0.41800000000E+01 0.  1.
         -5    1    3    3    0  502 -0.12228704278E+02 -0.15782095226E+02 -0.20943268141E+02  0.29235400091E+02  0.41800000000E+01 0.  1.
        -11    1    1    2    0    0 -0.38558933210E+02 -0.91633838695E+02 -0.68155790006E+01  0.99649404621E+02  0.00000000000E+00 0.  1.
         11    1    1    2    0    0 -0.48485337972E+02 -0.32877262034E+02 -0.79925315770E+02  0.99094896226E+02  0.00000000000E+00 0. -1.
</event>
<event>
 7    1  0.2651429E-009  0.9920461E+02  0.7561462E-02  0.1281977E+00
          1   -1    0    0  501    0  0.00000000000E+00  0.00000000000E+00  0.15636364818E+03  0.15636364818E+03  0.00000000000E+00 0. -1.
         -1   -1    0    0    0  501 -0.00000000000E+00 -0.00000000000E+00 -0.14251913279E+03  0.14251913279E+03  0.00000000000E+00 0.  1.
         25    2    1    2    0    0  0.63338903631E+02 -0.38662962364E+02  0.84482179583E+02  0.16819750723E+03  0.12508605597E+03 0.  0.
          5    1    3    3  502    0  0.81944143106E+02 -0.44505738763E+01  0.96954666223E+02  0.12709181681E+03  0.41800000000E+01 0.  1.
         -5    1    3    3    0  502 -0.18605239475E+02 -0.34212388488E+02 -0.12472486640E+02  0.41105690420E+02  0.41800000000E+01 0.  1.
        -11    1    1    2    0    0 -0.26612362247E+02  0.28435667396E+02  0.11097298176E+02  0.40496358249E+02  0.00000000000E+00 0. -1.
         11    1    1    2    0    0 -0.36726541384E+02  0.10227294968E+02 -0.81734962369E+02  0.90188915493E+02  0.00000000000E+00 0.  1.
</event>
<event>
 7    1  0.2651429E-009  0.1939989E+03  0.7561462E-02  0.1154903E+00
          2   -1    0    0  501    0  0.00000000000E+00  0.00000000000E+00  0.50318182608E+03  0.50318182608E+03  0.00000000000E+00 0. -1.
         -2   -1    0    0    0  501 -0.00000000000E+00 -0.00000000000E+00 -0.84241901527E+02  0.84241901527E+02  0.00000000000E+00 0.  1.
         25    2    1    2    0    0  0.64044860441E+02 -0.15951743686E+03  0.17657078089E+03  0.27635735413E+03  0.12509432323E+03 0.  0.
          5    1    3    3  502    0  0.69846973549E+02 -0.19881359770E+02  0.58117257226E+02  0.93107229407E+02  0.41800000000E+01 0.  1.
         -5    1    3    3    0  502 -0.58021131082E+01 -0.13963607709E+03  0.11845352366E+03  0.18325012472E+03  0.41800000000E+01 0.  1.
        -11    1    1    2    0    0 -0.30623008106E+01  0.49936936330E+02  0.16433886963E+02  0.52660686826E+02  0.00000000000E+00 0.  1.
         11    1    1    2    0    0 -0.60982559630E+02  0.10958050053E+03  0.22593525670E+03  0.25840568666E+03  0.00000000000E+00 0. -1.
</event>
<event>
 7    1  0.2651429E-009  0.1546946E+03  0.7561462E-02  0.1194820E+00
          1   -1    0    0  501    0  0.00000000000E+00  0.00000000000E+00  0.40450203298E+02  0.40450203298E+02  0.00000000000E+00 0. -1.
         -1   -1    0    0    0  501 -0.00000000000E+00 -0.00000000000E+00 -0.80721003996E+03  0.80721003996E+03  0.00000000000E+00 0.  1.
         25    2    1    2    0    0 -0.97903156984E+02 -0.59908486015E+02 -0.19883743976E+03  0.26145187794E+03  0.12508677861E+03 0.  0.
          5    1    3    3  502    0 -0.59026321798E+02 -0.94844565495E+02 -0.10200645035E+03  0.15133534479E+03  0.41800000000E+01 0.  1.
         -5    1    3    3    0  502 -0.38876835186E+02  0.34936079480E+02 -0.96830989405E+02  0.11011653315E+03  0.41800000000E+01 0.  1.
        -11    1    1    2    0    0  0.67249875938E+02  0.82972125688E+02 -0.42767824836E+03  0.44081243582E+03  0.00000000000E+00 0.  1.
         11    1    1    2    0    0  0.30653281046E+02 -0.23063639673E+02 -0.14024414854E+03  0.14539592949E+03  0.00000000000E+00 0. -1.
</event>
<event>
 7    1  0.2651429E-009  0.9721598E+02  0.7561462E-02  0.1286262E+00
          1   -1    0    0  501    0  0.00000000000E+00  0.00000000000E+00  0.62270136195E+03  0.62270136195E+03  0.00000000000E+00 0. -1.
         -1   -1    0    0    0  501 -0.00000000000E+00 -0.00000000000E+00 -0.23249791498E+02  0.23249791498E+02  0.00000000000E+00 0.  1.
         25    2    1    2    0    0 -0.23143342506E+02  0.45392686593E+02  0.29336566894E+03  0.32295842396E+03  0.12507045054E+03 0.  0.
          5    1    3    3  502    0  0.26494682067E+02  0.28307294493E+01  0.23077748376E+03  0.23234823136E+03  0.41800000000E+01 0.  1.
         -5    1    3    3    0  502 -0.49638024572E+02  0.42561957143E+02  0.62588185181E+02  0.90610192603E+02  0.41800000000E+01 0.  1.
        -11    1    1    2    0    0  0.59109537811E+01 -0.70906277363E+02  0.23475808064E+03  0.24530388494E+03  0.00000000000E+00 0. -1.
         11    1    1    2    0    0  0.17232388725E+02  0.25513590771E+02  0.71327820877E+02  0.77688844542E+02  0.00000000000E+00 0.  1.
</event>
<event>
 7    1  0.2651429E-009  0.9295842E+02  0.7561462E-02  0.1295842E+00
          1   -1    0    0  501    0  0.00000000000E+00  0.00000000000E+00  0.33118097801E+02  0.33118097801E+02  0.00000000000E+00 0. -1.
         -1   -1    0    0    0  501 -0.00000000000E+00 -0.00000000000E+00 -0.39503447544E+03  0.39503447544E+03  0.00000000000E+00 0.  1.
         25    2    1    2    0    0  0.17970600002E+02 -0.94488309503E+01 -0.15345353594E+03  0.19901762289E+03  0.12509118138E+03 0.  0.
          5    1    3    3  502    0  0.44038933005E+02 -0.34197054546E+02 -0.17887934932E+02  0.58705338564E+02  0.41800000000E+01 0. -1.
         -5    1    3    3    0  502 -0.26068333003E+02  0.24748223596E+02 -0.13556560100E+03  0.14031228432E+03  0.41800000000E+01 0. -1.
        -11    1    1    2    0    0 -0.51650947353E+02  0.24209595114E+02 -0.14454982329E+03  0.15539812184E+03  0.00000000000E+00 0.  1.
         11    1    1    2    0    0  0.33680347351E+02 -0.14760764163E+02 -0.63913018408E+02  0.73736828508E+02  0.00000000000E+00 0. -1.
</event>
<event>
 7    1  0.2651429E-009  0.8899840E+02  0.7561462E-02  0.1305295E+00
          2   -1    0    0  501    0  0.00000000000E+00  0.00000000000E+00  0.17687748511E+03  0.17687748511E+03  0.00000000000E+00 0. -1.
         -2   -1    0    0    0  501 -0.00000000000E+00 -0.00000000000E+00 -0.69082957012E+02  0.69082957012E+02  0.00000000000E+00 0.  1.
         25    2    1    2    0    0 -0.42487109387E+01  0.15789256939E+02  0.47461805781E+02  0.13478586458E+03  0.12508898474E+03 0.  0.
          5    1    3    3  502    0  0.59691439256E+01 -0.33623318037E+02 -0.27694690609E+02  0.44165897284E+02  0.41800000000E+01 0.  1.
         -5    1    3    3    0  502 -0.10217854864E+02  0.49412574976E+02  0.75156496390E+02  0.90619967299E+02  0.41800000000E+01 0.  1.
        -11    1    1    2    0    0  0.25328870036E+00  0.38512586571E+02  0.19867655797E+02  0.43335980737E+02  0.00000000000E+00 0.  1.
         11    1    1    2    0    0  0.39954222383E+01 -0.54301843510E+02  0.40465066518E+02  0.67838596799E+02  0.00000000000E+00 0. -1.
</event>
<event>
 7    1  0.2651429E-009  0.1489533E+03  0.7561462E-02  0.1201765E+00
         -1   -1    0    0    0  501 -0.00000000000E+00  0.00000000000E+00  0.63249704122E+02  0.63249704122E+02  0.00000000000E+00 0.  1.
          1   -1    0    0  501    0  0.00000000000E+00 -0.00000000000E+00 -0.56259648287E+03  0.56259648287E+03  0.00000000000E+00 0. -1.
         25    2    1    2    0    0 -0.48117626039E+02  0.11668273520E+03 -0.12338591432E+03  0.21633630717E+03  0.12508855790E+03 0.  0.
          5    1    3    3  502    0 -0.46168930376E+02  0.12454017730E+03 -0.49371652385E+02  0.14176338862E+03  0.41800000000E+01 0. -1.
         -5    1    3    3    0  502 -0.19486956625E+01 -0.78574421001E+01 -0.74014261932E+02  0.74572918546E+02  0.41800000000E+01 0. -1.
        -11    1    1    2    0    0  0.12188126366E+02 -0.11926409792E+03 -0.23241586779E+03  0.26151407433E+03  0.00000000000E+00 0.  1.
         11    1    1    2    0    0  0.35929499673E+02  0.25813627132E+01 -0.14354499665E+03  0.14799580549E+03  0.00000000000E+00 0. -1.
</event>
<event>
 7    1  0.2651429E-009  0.1084096E+03  0.7561462E-02  0.1263544E+00
          2   -1    0    0  501    0  0.00000000000E+00  0.00000000000E+00  0.14635149241E+03  0.14635149241E+03  0.00000000000E+00 0. -1.
         -2   -1    0    0    0  501 -0.00000000000E+00 -0.00000000000E+00 -0.13507787060E+03  0.13507787060E+03  0.00000000000E+00 0.  1.
         25    2    1    2    0    0 -0.16152084991E+02 -0.55685986121E+02 -0.50474659469E+02  0.14682354918E+03  0.12509054499E+03 0.  0.
          5    1    3    3  502    0 -0.42829001672E+02 -0.75348389731E+02 -0.66932745890E+02  0.10958634993E+03  0.41800000000E+01 0.  1.
         -5    1    3    3    0  502  0.26676916681E+02  0.19662403610E+02  0.16458086421E+02  0.37237199249E+02  0.41800000000E+01 0.  1.
        -11    1    1    2    0    0 -0.25803627673E+02 -0.13516921908E+01  0.58237355132E+02  0.63712195110E+02  0.00000000000E+00 0.  1.
         11    1    1    2    0    0  0.41955712664E+02  0.57037678312E+02  0.35109261558E+01  0.70893618717E+02  0.00000000000E+00 0. -1.
</event>
<event>
 7    1  0.2651429E-009  0.2140904E+03  0.7561462E-02  0.1138367E+00
          2   -1    0    0  501    0  0.00000000000E+00  0.00000000000E+00  0.17414494015E+04  0.17414494015E+04  0.00000000000E+00 0. -1.
         -2   -1    0    0    0  501 -0.00000000000E+00 -0.00000000000E+00 -0.27308869377E+02  0.27308869377E+02  0.00000000000E+00 0.  1.
         25    2    1    2    0    0  0.19383394230E+03 -0.27962077166E+02  0.94464347558E+03  0.97280639641E+03  0.12509002358E+03 0.  0.
          5    1    3    3  502    0  0.18711082390E+03  0.92554087033E+01  0.67635398417E+03  0.70183210764E+03  0.41800000000E+01 0.  1.
         -5    1    3    3    0  502  0.67231184006E+01 -0.37217485869E+02  0.26828949141E+03  0.27097428877E+03  0.41800000000E+01 0.  1.
        -11    1    1    2    0    0 -0.75076604927E+02 -0.14802295008E+02  0.25783064505E+03  0.26894654873E+03  0.00000000000E+00 0.  1.
         11    1    1    2    0    0 -0.11875733737E+03  0.42764372174E+02  0.51166641149E+03  0.52700532573E+03  0.00000000000E+00 0. -1.
</event>
<event>
 7    1  0.2765194E-009  0.1264489E+03  0.7561462E-02  0.1232822E+00
         -1   -1    0    0    0  501 -0.00000000000E+00  0.00000000000E+00  0.20205127339E+02  0.20205127339E+02  0.00000000000E+00 0.  1.
          1   -1    0    0  501    0  0.00000000000E+00 -0.00000000000E+00 -0.94683092811E+03  0.94683092811E+03  0.00000000000E+00 0. -1.
         25    2    1    2    0    0 -0.85431247848E+02 -0.17089806785E+01 -0.50418587433E+03  0.52645595500E+03  0.12510418841E+03 0.  0.
          5    1    3    3  502    0 -0.11629092730E+03 -0.15459766498E+02 -0.38403373834E+03  0.40157436265E+03  0.41800000000E+01 0.  1.
         -5    1    3    3    0  502  0.30859679447E+02  0.13750785820E+02 -0.12015213599E+03  0.12488159236E+03  0.41800000000E+01 0.  1.
        -11    1    1    2    0    0  0.28646284974E+02  0.26944661594E+02 -0.53255016730E+02  0.66202124121E+02  0.00000000000E+00 0.  1.
         11    1    1    2    0    0  0.56784962874E+02 -0.25235680916E+02 -0.36918490971E+03  0.37437797633E+03  0.00000000000E+00 0. -1.
</event>
<event>
 7    1  0.2651429E-009  0.1313873E+03  0.7561462E-02  0.1225412E+00
          2   -1    0    0  501    0  0.00000000000E+00  0.00000000000E+00  0.25520880525E+03  0.25520880525E+03  0.00000000000E+00 0. -1.
         -2   -1    0    0    0  501 -0.00000000000E+00 -0.00000000000E+00 -0.88605781042E+02  0.88605781042E+02  0.00000000000E+00 0.  1.
         25    2    1    2    0    0 -0.85299234735E+02 -0.58864780531E+02  0.10788928117E+03  0.19500298664E+03  0.12508015818E+03 0.  0.
          5    1    3    3  502    0  0.15221517265E+02 -0.65755757688E+01 -0.18510637584E+02  0.25200176354E+02  0.41800000000E+01 0. -1.
         -5    1    3    3    0  502 -0.10052075200E+03 -0.52289204762E+02  0.12639991876E+03  0.16980281028E+03  0.41800000000E+01 0. -1.
        -11    1    1    2    0    0  0.97680652170E+01  0.55851275784E+02  0.67882687215E+01  0.57103946422E+02  0.00000000000E+00 0.  1.
         11    1    1    2    0    0  0.75531169518E+02  0.30135047470E+01  0.51925474316E+02  0.91707653238E+02  0.00000000000E+00 0. -1.
</event>
<event>
 7    1  0.2651429E-009  0.1580535E+03  0.7561462E-02  0.1190912E+00
         -2   -1    0    0    0  501 -0.00000000000E+00  0.00000000000E+00  0.12942807506E+03  0.12942807506E+03  0.00000000000E+00 0. -1.
          2   -1    0    0  501    0  0.00000000000E+00 -0.00000000000E+00 -0.22219463571E+03  0.22219463571E+03  0.00000000000E+00 0.  1.
         25    2    1    2    0    0  0.11226594948E+03  0.47511905785E+02 -0.73922481248E+02  0.18966465332E+03  0.12508846022E+03 0.  0.
          5    1    3    3  502    0  0.10462983575E+03 -0.14697404187E+02 -0.21624784688E+02  0.10792830923E+03  0.41800000000E+01 0.  1.
         -5    1    3    3    0  502  0.76361137306E+01  0.62209309971E+02 -0.52297696560E+02  0.81736344092E+02  0.41800000000E+01 0.  1.
        -11    1    1    2    0    0 -0.10994151110E+03 -0.10472024445E+02 -0.42065561585E+02  0.11817914634E+03  0.00000000000E+00 0.  1.
         11    1    1    2    0    0 -0.23244383856E+01 -0.37039881339E+02  0.23221482184E+02  0.43778911113E+02  0.00000000000E+00 0. -1.
</event>
<event>
 7    1  0.2651429E-009  0.9856389E+02  0.7561462E-02  0.1283345E+00
         -2   -1    0    0    0  501 -0.00000000000E+00  0.00000000000E+00  0.11700378247E+02  0.11700378247E+02  0.00000000000E+00 0.  1.
          2   -1    0    0  501    0  0.00000000000E+00 -0.00000000000E+00 -0.11057080707E+04  0.11057080707E+04  0.00000000000E+00 0. -1.
         25    2    1    2    0    0  0.27077238879E+01 -0.18509617274E+02 -0.75615567224E+03  0.76666003714E+03  0.12508506780E+03 0.  0.
          5    1    3    3  502    0 -0.38876007999E+02 -0.41554818237E+02 -0.61527239706E+03  0.61791240633E+03  0.41800000000E+01 0. -1.
         -5    1    3    3    0  502  0.41583731887E+02  0.23045200963E+02 -0.14088327518E+03  0.14874763080E+03  0.41800000000E+01 0. -1.
        -11    1    1    2    0    0  0.43228149105E+02  0.16794623883E+02 -0.20461125447E+03  0.20980109085E+03  0.00000000000E+00 0. -1.
         11    1    1    2    0    0 -0.45935872993E+02  0.17149933904E+01 -0.13324076579E+03  0.14094732100E+03  0.00000000000E+00 0.  1.
</event>
<event>
 7    1  0.2651429E-009  0.1104719E+03  0.7561462E-02  0.1259698E+00
          2   -1    0    0  501    0  0.00000000000E+00  0.00000000000E+00  0.29320870434E+03  0.29320870434E+03  0.00000000000E+00 0. -1.
         -2   -1    0    0    0  501 -0.00000000000E+00 -0.00000000000E+00 -0.48953513236E+02  0.48953513236E+02  0.00000000000E+00 0.  1.
         25    2    1    2    0    0  0.12588402010E+02 -0.11910969588E+02  0.20180030400E+03  0.23805632376E+03  0.12508841484E+03 0.  0.
          5    1    3    3  502    0 -0.56329524987E+02 -0.77750284246E+01  0.95862333660E+02  0.11153710534E+03  0.41800000000E+01 0.  1.
         -5    1    3    3    0  502  0.68917926998E+02 -0.41359411635E+01  0.10593797034E+03  0.12651921842E+03  0.41800000000E+01 0.  1.
        -11    1    1    2    0    0  0.22893444581E+02 -0.31342816832E+02  0.21460465912E+02  0.44351252168E+02  0.00000000000E+00 0. -1.
         11    1    1    2    0    0 -0.35481846591E+02  0.43253786420E+02  0.20994421192E+02  0.59754641647E+02  0.00000000000E+00 0.  1.
</event>
<event>
 7    1  0.2651429E-009  0.1877656E+03  0.7561462E-02  0.1160492E+00
         -1   -1    0    0    0  501 -0.00000000000E+00  0.00000000000E+00  0.79261703813E+03  0.79261703813E+03  0.00000000000E+00 0.  1.
          1   -1    0    0  501    0  0.00000000000E+00 -0.00000000000E+00 -0.11542859460E+03  0.11542859460E+03  0.00000000000E+00 0. -1.
         25    2    1    2    0    0  0.17675041282E+03  0.31426611159E+02  0.18256174462E+02  0.21956436434E+03  0.12508749683E+03 0.  0.
          5    1    3    3  502    0  0.50744874300E+02 -0.25858916740E+02 -0.39590940055E+02  0.69488421892E+02  0.41800000000E+01 0. -1.
         -5    1    3    3    0  502  0.12600553852E+03  0.57285527899E+02  0.57847114517E+02  0.15007594245E+03  0.41800000000E+01 0. -1.
        -11    1    1    2    0    0 -0.90046659295E+02 -0.22265629212E+02  0.18906803551E+03  0.21059648892E+03  0.00000000000E+00 0. -1.
         11    1    1    2    0    0 -0.86703753520E+02 -0.91609819471E+01  0.46986423356E+03  0.47788477946E+03  0.00000000000E+00 0.  1.
</event>
<event>
 7    1  0.2651429E-009  0.1610433E+03  0.7561462E-02  0.1187524E+00
         -1   -1    0    0    0  501 -0.00000000000E+00  0.00000000000E+00  0.48587925196E+02  0.48587925196E+02  0.00000000000E+00 0.  1.
          1   -1    0    0  501    0  0.00000000000E+00 -0.00000000000E+00 -0.60951657439E+03  0.60951657439E+03  0.00000000000E+00 0. -1.
         25    2    1    2    0    0 -0.11639010157E+03 -0.51019838645E+02 -0.36822968698E+03  0.40913286465E+03  0.12508764480E+03 0.  0.
          5    1    3    3  502    0 -0.33832660822E+02  0.38242382051E+02 -0.67600586557E+02  0.84820047312E+02  0.41800000000E+01 0.  1.
         -5    1    3    3    0  502 -0.82557440751E+02 -0.89262220696E+02 -0.30062910043E+03  0.32431281734E+03  0.41800000000E+01 0.  1.
        -11    1    1    2    0    0  0.74223904062E+01 -0.18505242937E+02 -0.62100419548E+02  0.65222680132E+02  0.00000000000E+00 0. -1.
         11    1    1    2    0    0  0.10896771117E+03  0.69525081582E+02 -0.13059854267E+03  0.18374895481E+03  0.00000000000E+00 0.  1.
</event>
<event>
 7    1  0.2651429E-009  0.1038225E+03  0.7561462E-02  0.1272457E+00
         -2   -1    0    0    0  501 -0.00000000000E+00  0.00000000000E+00  0.26932342850E+02  0.26932342850E+02  0.00000000000E+00 0.  1.
          2   -1    0    0  501    0  0.00000000000E+00 -0.00000000000E+00 -0.48297671169E+03  0.48297671169E+03  0.00000000000E+00 0. -1.
         25    2    1    2    0    0  0.24348018293E+02  0.21735502796E+02 -0.25082443576E+03  0.28217651420E+03  0.12508169137E+03 0.  0.
          5    1    3    3  502    0  0.65868550857E+02  0.11162069319E+02 -0.72275951320E+02  0.98511640544E+02  0.41800000000E+01 0. -1.
         -5    1    3    3    0  502 -0.41520532565E+02  0.10573433477E+02 -0.17854848444E+03  0.18366487366E+03  0.41800000000E+01 0. -1.
        -11    1    1    2    0    0 -0.56816393034E+02  0.29162556562E+01 -0.13567180651E+03  0.14711711711E+03  0.00000000000E+00 0. -1.
         11    1    1    2    0    0  0.32468374742E+02 -0.24651758452E+02 -0.69548126575E+02  0.80615423234E+02  0.00000000000E+00 0.  1.
</event>
<event>
 7    1  0.2651429E-009  0.1483020E+03  0.7561462E-02  0.1202575E+00
         -2   -1    0    0    0  501 -0.00000000000E+00  0.00000000000E+00  0.30304684826E+02  0.30304684826E+02  0.00000000000E+00 0.  1.
          2   -1    0    0  501    0  0.00000000000E+00 -0.00000000000E+00 -0.92044572741E+03  0.92044572741E+03  0.00000000000E+00 0. -1.
         25    2    1    2    0    0  0.10221436055E+03  0.74015270376E+02 -0.45517859444E+03  0.48863172933E+03  0.12508948123E+03 0.  0.
          5    1    3    3  502    0  0.15269130638E+02  0.50296780291E+02 -0.47109730863E+02  0.70708638793E+02  0.41800000000E+01 0. -1.
         -5    1    3    3    0  502  0.86945229909E+02  0.23718490085E+02 -0.40806886358E+03  0.41792309053E+03  0.41800000000E+01 0. -1.
        -11    1    1    2    0    0 -0.90457339871E+02 -0.12844077782E+02 -0.29723080561E+03  0.31095602981E+03  0.00000000000E+00 0.  1.
         11    1    1    2    0    0 -0.11757020676E+02 -0.61171192595E+02 -0.13773164252E+03  0.15116265310E+03  0.00000000000E+00 0. -1.
</event>
<event>
 7    1  0.2651429E-009  0.1140416E+03  0.7561462E-02  0.1253263E+00
          1   -1    0    0  501    0  0.00000000000E+00  0.00000000000E+00  0.65127574708E+03  0.65127574708E+03  0.00000000000E+00 0. -1.
         -1   -1    0    0    0  501 -0.00000000000E+00 -0.00000000000E+00 -0.33642492841E+02  0.33642492841E+02  0.00000000000E+00 0.  1.
         25    2    1    2    0    0 -0.50995508508E+02  0.22409761681E+01  0.13430821144E+03  0.19049931641E+03  0.12508289264E+03 0.  0.
          5    1    3    3  502    0 -0.84286204558E+01  0.58148988973E+02  0.89197503962E+02  0.10689253330E+03  0.41800000000E+01 0.  1.
         -5    1    3    3    0  502 -0.42566888053E+02 -0.55908012805E+02  0.45110707474E+02  0.83606783116E+02  0.41800000000E+01 0.  1.
        -11    1    1    2    0    0 -0.28579492152E+00 -0.36892995524E+02  0.11062762665E+03  0.11661752259E+03  0.00000000000E+00 0.  1.
         11    1    1    2    0    0  0.51281303430E+02  0.34652019356E+02  0.37269741615E+03  0.37780140091E+03  0.00000000000E+00 0. -1.
</event>
<event>
 7    1  0.2651429E-009  0.8752090E+02  0.7561462E-02  0.1308969E+00
          1   -1    0    0  501    0  0.00000000000E+00  0.00000000000E+00  0.60952869440E+03  0.60952869440E+03  0.00000000000E+00 0. -1.
         -1   -1    0    0    0  501 -0.00000000000E+00 -0.00000000000E+00 -0.20560610264E+02  0.20560610264E+02  0.00000000000E+00 0.  1.
         25    2    1    2    0    0 -0.83667485253E+01  0.22146006347E+02  0.38514155291E+03  0.40562523410E+03  0.12504945694E+03 0.  0.
          5    1    3    3  502    0 -0.48169998924E+02 -0.18100484882E+02  0.79740898798E+02  0.94995050874E+02  0.41800000000E+01 0.  1.
         -5    1    3    3    0  502  0.39803250399E+02  0.40246491229E+02  0.30540065411E+03  0.31063018322E+03  0.41800000000E+01 0.  1.
        -11    1    1    2    0    0  0.35540684637E+02 -0.14853268364E+02  0.18855862137E+03  0.19245288654E+03  0.00000000000E+00 0. -1.
         11    1    1    2    0    0 -0.27173936112E+02 -0.72927379833E+01  0.15267909856E+02  0.32011184022E+02  0.00000000000E+00 0.  1.
</event>
<event>
 7    1  0.3351364E-009  0.1528903E+03  0.7561462E-02  0.1196966E+00
         -1   -1    0    0    0  501 -0.00000000000E+00  0.00000000000E+00  0.92488547056E+02  0.92488547056E+02  0.00000000000E+00 0.  1.
          1   -1    0    0  501    0  0.00000000000E+00 -0.00000000000E+00 -0.30391915331E+03  0.30391915331E+03  0.00000000000E+00 0. -1.
         25    2    1    2    0    0 -0.89480204760E+02 -0.79583171928E+02 -0.60560073153E+02  0.18345396867E+03  0.12509055864E+03 0.  0.
          5    1    3    3  502    0  0.26988316274E+02  0.65863138634E+01 -0.12557061620E+02  0.30771755591E+02  0.41800000000E+01 0. -1.
         -5    1    3    3    0  502 -0.11646852103E+03 -0.86169485791E+02 -0.48003011533E+02  0.15268221308E+03  0.41800000000E+01 0. -1.
        -11    1    1    2    0    0  0.37835254362E+02 -0.48238946090E-01 -0.39481069699E+01  0.38040719608E+02  0.00000000000E+00 0.  1.
         11    1    1    2    0    0  0.51644950398E+02  0.79631410874E+02 -0.14692242613E+03  0.17491301210E+03  0.00000000000E+00 0. -1.
</event>
<event>
 7    1  0.2651429E-009  0.5658472E+02  0.7561462E-02  0.1412750E+00
         -1   -1    0    0    0  501 -0.00000000000E+00  0.00000000000E+00  0.90944285344E+02  0.90944285344E+02  0.00000000000E+00 0.  1.
          1   -1    0    0  501    0  0.00000000000E+00 -0.00000000000E+00 -0.13910759214E+03  0.13910759214E+03  0.00000000000E+00 0. -1.
         25    2    1    2    0    0 -0.13953713706E+02 -0.74104952283E+01 -0.57050131256E+02  0.13839084256E+03  0.12509071214E+03 0.  0.
          5    1    3    3  502    0  0.10500503340E+02 -0.21791011536E+02 -0.90825599063E+02  0.94084380209E+02  0.41800000000E+01 0. -1.
         -5    1    3    3    0  502 -0.24454217046E+02  0.14380516308E+02  0.33775467807E+02  0.44306462353E+02  0.41800000000E+01 0. -1.
        -11    1    1    2    0    0  0.33034695690E+02 -0.95816325088E+01  0.39111040214E+02  0.52084280426E+02  0.00000000000E+00 0.  1.
         11    1    1    2    0    0 -0.19080981984E+02  0.16992127737E+02 -0.30224215751E+02  0.39576754494E+02  0.00000000000E+00 0. -1.
</event>
<event>
 7    1  0.2651429E-009  0.7076326E+02  0.7561462E-02  0.1357517E+00
         -4   -1    0    0    0  501 -0.00000000000E+00  0.00000000000E+00  0.22135098046E+03  0.22135098046E+03  0.00000000000E+00 0.  1.
          4   -1    0    0  501    0  0.00000000000E+00 -0.00000000000E+00 -0.73740037174E+02  0.73740037174E+02  0.00000000000E+00 0. -1.
         25    2    1    2    0    0  0.28252964125E+02  0.42756668257E+02  0.40536534717E+02  0.14112661308E+03  0.12508855907E+03 0.  0.
          5    1    3    3  502    0 -0.19019149683E+02  0.33009272552E+02 -0.34660897360E+02  0.51673884457E+02  0.41800000000E+01 0. -1.
         -5    1    3    3    0  502  0.47272113808E+02  0.97473957052E+01  0.75197432077E+02  0.89452728622E+02  0.41800000000E+01 0. -1.
        -11    1    1    2    0    0 -0.16603410167E+02 -0.39203972221E+02  0.12513587697E+03  0.13218022686E+03  0.00000000000E+00 0.  1.
         11    1    1    2    0    0 -0.11649553958E+02 -0.35526960366E+01 -0.18061468408E+02  0.21784177690E+02  0.00000000000E+00 0. -1.
</event>
<event>
 7    1  0.2651429E-009  0.7963369E+02  0.7561462E-02  0.1330094E+00
          2   -1    0    0  501    0  0.00000000000E+00  0.00000000000E+00  0.68585316185E+03  0.68585316185E+03  0.00000000000E+00 0. -1.
         -2   -1    0    0    0  501 -0.00000000000E+00 -0.00000000000E+00 -0.19393129234E+02  0.19393129234E+02  0.00000000000E+00 0.  1.
         25    2    1    2    0    0 -0.53155893443E+01  0.69493335265E+01  0.43651401453E+03  0.45416726378E+03  0.12508744893E+03 0.  0.
          5    1    3    3  502    0  0.15816497858E+02  0.26737028531E+02  0.21237871130E+02  0.37862248603E+02  0.41800000000E+01 0. -1.
         -5    1    3    3    0  502 -0.21132087202E+02 -0.19787695005E+02  0.41527614340E+03  0.41630501517E+03  0.41800000000E+01 0. -1.
        -11    1    1    2    0    0  0.47946148691E+02 -0.22926746502E+02  0.14920229940E+03  0.15838495833E+03  0.00000000000E+00 0.  1.
         11    1    1    2    0    0 -0.42630559347E+02  0.15977412976E+02  0.80743718681E+02  0.92694068969E+02  0.00000000000E+00 0. -1.
</event>
<event>
 7    1  0.2651429E-009  0.1643801E+03  0.7561462E-02  0.1183839E+00
         -2   -1    0    0    0  501 -0.00000000000E+00  0.00000000000E+00  0.53223661137E+02  0.53223661137E+02  0.00000000000E+00 0.  1.
          2   -1    0    0  501    0  0.00000000000E+00 -0.00000000000E+00 -0.61020750317E+03  0.61020750317E+03  0.00000000000E+00 0. -1.
         25    2    1    2    0    0  0.46668457797E+01 -0.14281503308E+03 -0.29283894861E+03  0.34902814286E+03  0.12509229218E+03 0.  0.
          5    1    3    3  502    0 -0.56225923082E+02 -0.55544577464E+02 -0.89398535243E+02  0.11939901597E+03  0.41800000000E+01 0.  1.
         -5    1    3    3    0  502  0.60892768862E+02 -0.87270455618E+02 -0.20344041336E+03  0.22962912688E+03  0.41800000000E+01 0.  1.
        -11    1    1    2    0    0 -0.67797105559E+01  0.87353347383E+02 -0.23688317310E+03  0.25256723753E+03  0.00000000000E+00 0.  1.
         11    1    1    2    0    0  0.21128647762E+01  0.55461685699E+02 -0.27261720324E+02  0.61835783921E+02  0.00000000000E+00 0. -1.
</event>
<event>
 7    1  0.2651429E-009  0.1043288E+03  0.7561462E-02  0.1271448E+00
         -1   -1    0    0    0  501 -0.00000000000E+00  0.00000000000E+00  0.14921919045E+03  0.14921919045E+03  0.00000000000E+00 0.  1.
          1   -1    0    0  501    0  0.00000000000E+00 -0.00000000000E+00 -0.12142748908E+03  0.12142748908E+03  0.00000000000E+00 0. -1.
         25    2    1    2    0    0 -0.26830450801E+02  0.44234651795E+02  0.75946669058E+02  0.15521464432E+03  0.12508841577E+03 0.  0.
          5    1    3    3  502    0  0.91474331431E-01  0.67850896376E+02  0.93107817539E+02  0.11528352264E+03  0.41800000000E+01 0. -1.
         -5    1    3    3    0  502 -0.26921925133E+02 -0.23616244581E+02 -0.17161148480E+02  0.39931121673E+02  0.41800000000E+01 0. -1.
        -11    1    1    2    0    0  0.55643785966E+02 -0.48935667933E+01 -0.21457657047E+02  0.59838189800E+02  0.00000000000E+00 0.  1.
         11    1    1    2    0    0 -0.28813335165E+02 -0.39341085002E+02 -0.26697310646E+02  0.55593845416E+02  0.00000000000E+00 0. -1.
</event>
<event>
 7    1  0.2651429E-009  0.1059022E+03  0.7561462E-02  0.1268352E+00
         -2   -1    0    0    0  501 -0.00000000000E+00  0.00000000000E+00  0.13974655073E+02  0.13974655073E+02  0.00000000000E+00 0.  1.
          2   -1    0    0  501    0  0.00000000000E+00 -0.00000000000E+00 -0.98447956065E+03  0.98447956065E+03  0.00000000000E+00 0. -1.
         25    2    1    2    0    0 -0.36370021641E+02  0.23610315392E+02 -0.61037736475E+03  0.62457047202E+03  0.12509005413E+03 0.  0.
          5    1    3    3  502    0 -0.14195475329E+02  0.74778009821E+02 -0.33326902684E+03  0.34187567758E+03  0.41800000000E+01 0.  1.
         -5    1    3    3    0  502 -0.22174546312E+02 -0.51167694429E+02 -0.27710833791E+03  0.28269479443E+03  0.41800000000E+01 0.  1.
        -11    1    1    2    0    0  0.51922481832E+02 -0.32966617747E+02 -0.34445729182E+03  0.34990508412E+03  0.00000000000E+00 0. -1.
         11    1    1    2    0    0 -0.15552460192E+02  0.93563023544E+01 -0.15670249000E+02  0.23978659585E+02  0.00000000000E+00 0.  1.
</event>
<event>
 7    1  0.2651429E-009  0.1004503E+03  0.7561462E-02  0.1279352E+00
         -2   -1    0    0    0  501 -0.00000000000E+00  0.00000000000E+00  0.32730782490E+02  0.32730782490E+02  0.00000000000E+00 0.  1.
          2   -1    0    0  501    0  0.00000000000E+00 -0.00000000000E+00 -0.36645357386E+03  0.36645357386E+03  0.00000000000E+00 0. -1.
         25    2    1    2    0    0 -0.44304182236E+02  0.22411666108E+02 -0.16128899983E+03  0.21007176945E+03  0.12510341127E+03 0.  0.
          5    1    3    3  502    0 -0.49430068572E+02  0.66001982420E+02 -0.68276764968E+02  0.10713907969E+03  0.41800000000E+01 0.  1.
         -5    1    3    3    0  502  0.51258863364E+01 -0.43590316312E+02 -0.93012234863E+02  0.10293268976E+03  0.41800000000E+01 0.  1.
        -11    1    1    2    0    0 -0.13203606809E+02 -0.54954765111E+01 -0.15350510494E+02  0.20980316186E+02  0.00000000000E+00 0.  1.
         11    1    1    2    0    0  0.57507789045E+02 -0.16916189597E+02 -0.15708328104E+03  0.16813227071E+03  0.00000000000E+00 0. -1.
</event>
<event>
 7    1  0.2651429E-009  0.1068207E+03  0.7561462E-02  0.1266573E+00
         -1   -1    0    0    0  501 -0.00000000000E+00  0.00000000000E+00  0.82963736011E+02  0.82963736011E+02  0.00000000000E+00 0.  1.
          1   -1    0    0  501    0  0.00000000000E+00 -0.00000000000E+00 -0.14322758994E+03  0.14322758994E+03  0.00000000000E+00 0. -1.
         25    2    1    2    0    0 -0.97483564182E+01 -0.85414397955E+01 -0.19610845052E+02  0.12727321910E+03  0.12508357370E+03 0.  0.
          5    1    3    3  502    0 -0.67223291221E+02 -0.75298653766E+00 -0.65599393047E+01  0.67676015508E+02  0.41800000000E+01 0. -1.
         -5    1    3    3    0  502  0.57474934803E+02 -0.77884532578E+01 -0.13050905747E+02  0.59597203588E+02  0.41800000000E+01 0. -1.
        -11    1    1    2    0    0 -0.38979433122E+02  0.44987647832E+01 -0.28611903774E+02  0.48562085299E+02  0.00000000000E+00 0. -1.
         11    1    1    2    0    0  0.48727789540E+02  0.40426750123E+01 -0.12041105101E+02  0.50356021554E+02  0.00000000000E+00 0.  1.
</event>
<event>
 7    1  0.2651429E-009  0.1538562E+03  0.7561462E-02  0.1195813E+00
         -2   -1    0    0    0  501 -0.00000000000E+00  0.00000000000E+00  0.57305412801E+02  0.57305412801E+02  0.00000000000E+00 0.  1.
          2   -1    0    0  501    0  0.00000000000E+00 -0.00000000000E+00 -0.46557985759E+03  0.46557985759E+03  0.00000000000E+00 0. -1.
         25    2    1    2    0    0  0.10781221889E+03  0.25498862952E+02 -0.13298717670E+03  0.21355533999E+03  0.12508648015E+03 0.  0.
          5    1    3    3  502    0 -0.26633561410E+02  0.17774557879E+02 -0.23310215687E+02  0.39826122791E+02  0.41800000000E+01 0. -1.
         -5    1    3    3    0  502  0.13444578030E+03  0.77243050731E+01 -0.10967696102E+03  0.17372921720E+03  0.41800000000E+01 0. -1.
        -11    1    1    2    0    0 -0.49239017774E+02 -0.56066520482E+02 -0.15737306668E+03  0.17416721191E+03  0.00000000000E+00 0.  1.
         11    1    1    2    0    0 -0.58573201118E+02  0.30567657529E+02 -0.11791420141E+03  0.13516271849E+03  0.00000000000E+00 0. -1.
</event>
<event>
 7    1  0.2651429E-009  0.1014094E+03  0.7561462E-02  0.1277360E+00
          1   -1    0    0  501    0  0.00000000000E+00  0.00000000000E+00  0.74519899912E+02  0.74519899912E+02  0.00000000000E+00 0. -1.
         -1   -1    0    0    0  501 -0.00000000000E+00 -0.00000000000E+00 -0.18818070391E+03  0.18818070391E+03  0.00000000000E+00 0.  1.
         25    2    1    2    0    0 -0.25061772337E+02 -0.39555673574E+02 -0.68181881030E+02  0.14996488560E+03  0.12509178338E+03 0.  0.
          5    1    3    3  502    0 -0.55116943724E+02 -0.58437873458E+02 -0.91501591359E+01  0.80957151333E+02  0.41800000000E+01 0. -1.
         -5    1    3    3    0  502  0.30055171387E+02  0.18882199883E+02 -0.59031721894E+02  0.69007734272E+02  0.41800000000E+01 0. -1.
        -11    1    1    2    0    0 -0.18951095132E+02 -0.91080056750E+01 -0.42070954308E+02  0.47032594766E+02  0.00000000000E+00 0.  1.
         11    1    1    2    0    0  0.44012867469E+02  0.48663679249E+02 -0.34079686598E+01  0.65703123451E+02  0.00000000000E+00 0. -1.
</event>
<event>
 7    1  0.2651429E-009  0.1372944E+03  0.7561462E-02  0.1217017E+00
          2   -1    0    0  501    0  0.00000000000E+00  0.00000000000E+00  0.15748028500E+03  0.15748028500E+03  0.00000000000E+00 0.  1.
         -2   -1    0    0    0  501 -0.00000000000E+00 -0.00000000000E+00 -0.21296278303E+03  0.21296278303E+03  0.00000000000E+00 0. -1.
         25    2    1    2    0    0 -0.35572201251E+02  0.11482858765E+03  0.57283199635E+02  0.18270104858E+03  0.12508925673E+03 0.  0.
          5    1    3    3  502    0 -0.45743483909E+02  0.90890390110E+02 -0.17574452126E+02  0.10334342312E+03  0.41800000000E+01 0. -1.
         -5    1    3    3    0  502  0.10171282658E+02  0.23938197536E+02  0.74857651761E+02  0.79357625465E+02  0.41800000000E+01 0. -1.
        -11    1    1    2    0    0  0.59910920953E+02 -0.53106973875E+02 -0.82022502592E+02  0.11461832338E+03  0.00000000000E+00 0.  1.
         11    1    1    2    0    0 -0.24338719702E+02 -0.61721613771E+02 -0.30743195072E+02  0.73123696067E+02  0.00000000000E+00 0. -1.
</event>
<event>
 7    1  0.2651429E-009  0.1027101E+03  0.7561462E-02  0.1274698E+00
          2   -1    0    0  501    0  0.00000000000E+00  0.00000000000E+00  0.30837780715E+02  0.30837780715E+02  0.00000000000E+00 0. -1.
         -2   -1    0    0    0  501 -0.00000000000E+00 -0.00000000000E+00 -0.46258894538E+03  0.46258894538E+03  0.00000000000E+00 0.  1.
         25    2    1    2    0    0  0.49095476869E+02 -0.15304357521E+02 -0.23506244402E+03  0.27119641245E+03  0.12509417385E+03 0.  0.
          5    1    3    3  502    0  0.86605239337E+02  0.13480255139E+02 -0.15561693699E+03  0.17865130349E+03  0.41800000000E+01 0. -1.
         -5    1    3    3    0  502 -0.37509762467E+02 -0.28784612661E+02 -0.79445507031E+02  0.92545108967E+02  0.41800000000E+01 0. -1.
        -11    1    1    2    0    0 -0.32076951194E+02 -0.15030646828E+02 -0.18035933620E+03  0.18380517212E+03  0.00000000000E+00 0.  1.
         11    1    1    2    0    0 -0.17018525675E+02  0.30335004349E+02 -0.16329384443E+02  0.38425141526E+02  0.00000000000E+00 0. -1.
</event>
<event>
 7    1  0.2651429E-009  0.8289759E+02  0.7561462E-02  0.1321024E+00
         -2   -1    0    0    0  501 -0.00000000000E+00  0.00000000000E+00  0.47523942611E+02  0.47523942611E+02  0.00000000000E+00 0.  1.
          2   -1    0    0  501    0  0.00000000000E+00 -0.00000000000E+00 -0.31548537218E+03  0.31548537218E+03  0.00000000000E+00 0. -1.
         25    2    1    2    0    0  0.48686083744E+02  0.26634017711E+02 -0.17060781911E+03  0.21871217016E+03  0.12509308448E+03 0.  0.
          5    1    3    3  502    0  0.45885246482E+02  0.17240631807E+02 -0.14474413729E+01  0.49216488257E+02  0.41800000000E+01 0. -1.
         -5    1    3    3    0  502  0.28008372618E+01  0.93933859039E+01 -0.16916037774E+03  0.16949568190E+03  0.41800000000E+01 0. -1.
        -11    1    1    2    0    0  0.57492822382E+00 -0.50988175741E+02 -0.39465731636E+02  0.64479985898E+02  0.00000000000E+00 0. -1.
         11    1    1    2    0    0 -0.49261011968E+02  0.24354158030E+02 -0.57887878825E+02  0.79817158734E+02  0.00000000000E+00 0.  1.
</event>
<event>
 7    1  0.2651429E-009  0.1593201E+03  0.7561462E-02  0.1189466E+00
         -1   -1    0    0    0  501 -0.00000000000E+00  0.00000000000E+00  0.23633743638E+03  0.23633743638E+03  0.00000000000E+00 0.  1.
          1   -1    0    0  501    0  0.00000000000E+00 -0.00000000000E+00 -0.15986468770E+03  0.15986468770E+03  0.00000000000E+00 0. -1.
         25    2    1    2    0    0  0.13348193120E+03  0.58372683950E+02  0.11004507693E+03  0.22131601757E+03  0.12508422957E+03 0.  0.
          5    1    3    3  502    0  0.10081360062E+03  0.35719293196E+02  0.13643994621E+03  0.17341447834E+03  0.41800000000E+01 0. -1.
         -5    1    3    3    0  502  0.32668330580E+02  0.22653390754E+02 -0.26394869285E+02  0.47901539225E+02  0.41800000000E+01 0. -1.
        -11    1    1    2    0    0  0.12433135450E+02 -0.14840807167E+02 -0.40936120307E+01  0.19788634969E+02  0.00000000000E+00 0.  1.
         11    1    1    2    0    0 -0.14591506665E+03 -0.43531876782E+02 -0.29478716214E+02  0.15509747155E+03  0.00000000000E+00 0. -1.
</event>
<event>
 7    1  0.2651429E-009  0.1567434E+03  0.7561462E-02  0.1192423E+00
         -1   -1    0    0    0  501 -0.00000000000E+00  0.00000000000E+00  0.42915809340E+03  0.42915809340E+03  0.00000000000E+00 0.  1.
          1   -1    0    0  501    0  0.00000000000E+00 -0.00000000000E+00 -0.63000869677E+02  0.63000869677E+02  0.00000000000E+00 0. -1.
         25    2    1    2    0    0 -0.43258139209E+02 -0.11046282365E+03  0.24306077805E+03  0.29799422433E+03  0.12509481959E+03 0.  0.
          5    1    3    3  502    0 -0.82113132272E+02 -0.40823880645E+02  0.11606780190E+03  0.14798095405E+03  0.41800000000E+01 0.  1.
         -5    1    3    3    0  502  0.38854993063E+02 -0.69638943006E+02  0.12699297615E+03  0.15001327028E+03  0.41800000000E+01 0.  1.
        -11    1    1    2    0    0  0.61596716545E+02  0.52153034125E+02  0.10072901854E+03  0.12907528669E+03  0.00000000000E+00 0.  1.
         11    1    1    2    0    0 -0.18338577336E+02  0.58309789526E+02  0.22367427135E+02  0.65089452063E+02  0.00000000000E+00 0. -1.
</event>
<event>
 7    1  0.2651429E-009  0.1181605E+03  0.7561462E-02  0.1246163E+00
          2   -1    0    0  501    0  0.00000000000E+00  0.00000000000E+00  0.24106683489E+03  0.24106683489E+03  0.00000000000E+00 0. -1.
         -2   -1    0    0    0  501 -0.00000000000E+00 -0.00000000000E+00 -0.79386917297E+02  0.79386917297E+02  0.00000000000E+00 0.  1.
         25    2    1    2    0    0  0.29027704823E+02  0.73032835317E+02  0.12935336129E+03  0.19635602603E+03  0.12508794585E+03 0.  0.
          5    1    3    3  502    0 -0.94642223954E+01  0.99944675988E+02  0.91313473934E+02  0.13577235612E+03  0.41800000000E+01 0. -1.
         -5    1    3    3    0  502  0.38491927218E+02 -0.26911840671E+02  0.38039887359E+02  0.60583669908E+02  0.41800000000E+01 0. -1.
        -11    1    1    2    0    0  0.11575571652E+01 -0.51733577638E+02 -0.23757379284E+02  0.56939582578E+02  0.00000000000E+00 0.  1.
         11    1    1    2    0    0 -0.30185261988E+02 -0.21299257679E+02  0.56083935587E+02  0.67158143586E+02  0.00000000000E+00 0. -1.
</event>
<event>
 7    1  0.2651429E-009  0.7679476E+02  0.7561462E-02  0.1338402E+00
         -1   -1    0    0    0  501 -0.00000000000E+00  0.00000000000E+00  0.87805238261E+03  0.87805238261E+03  0.00000000000E+00 0.  1.
          1   -1    0    0  501    0  0.00000000000E+00 -0.00000000000E+00 -0.16784964405E+02  0.16784964405E+02  0.00000000000E+00 0. -1.
         25    2    1    2    0    0 -0.21209175357E+02  0.37583020576E+02  0.60032425364E+03  0.61473365320E+03  0.12508374118E+03 0.  0.
          5    1    3    3  502    0 -0.35283050277E+02  0.30383445791E+02  0.59598527815E+03  0.59781600145E+03  0.41800000000E+01 0. -1.
         -5    1    3    3    0  502  0.14073874920E+02  0.71995747858E+01  0.43389754895E+01  0.16917651748E+02  0.41800000000E+01 0. -1.
        -11    1    1    2    0    0  0.25882819005E+02 -0.61181625625E+02  0.12035028094E+03  0.13746745708E+03  0.00000000000E+00 0. -1.
         11    1    1    2    0    0 -0.46736436474E+01  0.23598605048E+02  0.14059288362E+03  0.14263623674E+03  0.00000000000E+00 0.  1.
</event>
<event>
 7    1  0.2651429E-009  0.9826665E+02  0.7561462E-02  0.1283984E+00
          2   -1    0    0  501    0  0.00000000000E+00  0.00000000000E+00  0.13979424657E+04  0.13979424657E+04  0.00000000000E+00 0. -1.
         -2   -1    0    0    0  501 -0.00000000000E+00 -0.00000000000E+00 -0.11140341900E+02  0.11140341900E+02  0.00000000000E+00 0.  1.
         25    2    1    2    0    0 -0.30155285766E+01 -0.23189646014E+02  0.10766899794E+04  0.10841845912E+04  0.12509221718E+03 0.  0.
          5    1    3    3  502    0  0.31847062101E+00  0.46544860464E+02  0.66118546250E+03  0.66283498224E+03  0.41800000000E+01 0.  1.
         -5    1    3    3    0  502 -0.33339991976E+01 -0.69734506477E+02  0.41550451694E+03  0.42134960892E+03  0.41800000000E+01 0.  1.
        -11    1    1    2    0    0 -0.10623450989E+02 -0.26385461307E+02  0.35379666314E+02  0.45395716404E+02  0.00000000000E+00 0.  1.
         11    1    1    2    0    0  0.13638979566E+02  0.49575107321E+02  0.27473247802E+03  0.27950250001E+03  0.00000000000E+00 0. -1.
</event>
<event>
 7    1  0.3413419E-009  0.1272133E+03  0.7561462E-02  0.1231650E+00
          1   -1    0    0  501    0  0.00000000000E+00  0.00000000000E+00  0.80607760659E+02  0.80607760659E+02  0.00000000000E+00 0. -1.
         -1   -1    0    0    0  501 -0.00000000000E+00 -0.00000000000E+00 -0.37604180802E+03  0.37604180802E+03  0.00000000000E+00 0.  1.
         25    2    1    2    0    0  0.11694143432E+03 -0.34332278018E+02 -0.23517003349E+03  0.29292738920E+03  0.12508999287E+03 0.  0.
          5    1    3    3  502    0  0.31695384619E+02 -0.34721985455E+02 -0.50238229641E+01  0.47464985803E+02  0.41800000000E+01 0. -1.
         -5    1    3    3    0  502  0.85246049705E+02  0.38970743752E+00 -0.23014621052E+03  0.24546240339E+03  0.41800000000E+01 0. -1.
        -11    1    1    2    0    0 -0.62689478511E+02  0.18760489045E+02 -0.80518732198E+02  0.10375544757E+03  0.00000000000E+00 0.  1.
         11    1    1    2    0    0 -0.54251955813E+02  0.15571788973E+02  0.20254718328E+02  0.59966731909E+02  0.00000000000E+00 0. -1.
</event>
<event>
 7    1  0.2651429E-009  0.9495196E+02  0.7561462E-02  0.1291284E+00
         -2   -1    0    0    0  501 -0.00000000000E+00  0.00000000000E+00  0.82815650297E+02  0.82815650297E+02  0.00000000000E+00 0.  1.
          2   -1    0    0  501    0  0.00000000000E+00 -0.00000000000E+00 -0.19088344085E+03  0.19088344085E+03  0.00000000000E+00 0. -1.
         25    2    1    2    0    0  0.10236504452E+02  0.36424450133E+02 -0.11619323237E+03  0.17487412888E+03  0.12509423293E+03 0.  0.
          5    1    3    3  502    0  0.42698636511E+02 -0.17966170400E+02 -0.49262468449E+01  0.46772824874E+02  0.41800000000E+01 0.  1.
         -5    1    3    3    0  502 -0.32462132059E+02  0.54390620533E+02 -0.11126698553E+03  0.12810130401E+03  0.41800000000E+01 0.  1.
        -11    1    1    2    0    0 -0.20857457022E+02 -0.54829338428E+02  0.32033118896E+02  0.66838690682E+02  0.00000000000E+00 0.  1.
         11    1    1    2    0    0  0.10620952570E+02  0.18404888295E+02 -0.23907677076E+02  0.31986271583E+02  0.00000000000E+00 0. -1.
</event>
<event>
 7    1  0.2651429E-009  0.1103513E+03  0.7561462E-02  0.1259921E+00
         -1   -1    0    0    0  501 -0.00000000000E+00  0.00000000000E+00  0.36303552885E+02  0.36303552885E+02  0.00000000000E+00 0.  1.
          1   -1    0    0  501    0  0.00000000000E+00 -0.00000000000E+00 -0.43416707875E+03  0.43416707875E+03  0.00000000000E+00 0. -1.
         25    2    1    2    0    0  0.24919850568E+02 -0.36013513371E+02 -0.32645676703E+03  0.35233212948E+03  0.12508371846E+03 0.  0.
          5    1    3    3  502    0  0.42233799487E+02 -0.74760389570E+02 -0.25518894781E+03  0.26927993084E+03  0.41800000000E+01 0. -1.
         -5    1    3    3    0  502 -0.17313948919E+02  0.38746876199E+02 -0.71267819220E+02  0.83052198639E+02  0.41800000000E+01 0. -1.
        -11    1    1    2    0    0 -0.39203610348E+02 -0.12792473020E+02 -0.20011891004E+02  0.45837170635E+02  0.00000000000E+00 0.  1.
         11    1    1    2    0    0  0.14283759779E+02  0.48805986390E+02 -0.51394867837E+02  0.72301331530E+02  0.00000000000E+00 0. -1.
</event>
<event>
 7    1  0.2651429E-009  0.1325115E+03  0.7561462E-02  0.1223776E+00
          2   -1    0    0  501    0  0.00000000000E+00  0.00000000000E+00  0.63978483963E+03  0.63978483963E+03  0.00000000000E+00 0.  1.
         -2   -1    0    0    0  501 -0.00000000000E+00 -0.00000000000E+00 -0.29013471159E+02  0.29013471159E+02  0.00000000000E+00 0. -1.
         25    2    1    2    0    0  0.85067611782E+01  0.75267125423E+02  0.26754201148E+03  0.30489622864E+03  0.12508188189E+03 0.  0.
          5    1    3    3  502    0 -0.48685668348E+02  0.72709302368E+02  0.18042364200E+03  0.20056694630E+03  0.41800000000E+01 0. -1.
         -5    1    3    3    0  502  0.57192429526E+02  0.25578230555E+01  0.87118369482E+02  0.10432928235E+03  0.41800000000E+01 0. -1.
        -11    1    1    2    0    0 -0.41005494280E+02 -0.34031642906E+01  0.97537120406E+02  0.10586086125E+03  0.00000000000E+00 0. -1.
         11    1    1    2    0    0  0.32498733102E+02 -0.71863961133E+02  0.24569223659E+03  0.25804122090E+03  0.00000000000E+00 0.  1.
</event>
<event>
 7    1  0.2651429E-009  0.9634931E+02  0.7561462E-02  0.1288166E+00
         -1   -1    0    0    0  501 -0.00000000000E+00  0.00000000000E+00  0.20214099156E+02  0.20214099156E+02  0.00000000000E+00 0.  1.
          1   -1    0    0  501    0  0.00000000000E+00 -0.00000000000E+00 -0.79810354680E+03  0.79810354680E+03  0.00000000000E+00 0. -1.
         25    2    1    2    0    0  0.41354904451E+02 -0.33200853525E+02 -0.55457868155E+03  0.57097900045E+03  0.12508788962E+03 0.  0.
          5    1    3    3  502    0  0.21029846596E+02 -0.53372740984E+02 -0.99105733567E+02  0.11458762042E+03  0.41800000000E+01 0.  1.
         -5    1    3    3    0  502  0.20325057855E+02  0.20171887459E+02 -0.45547294798E+03  0.45639138003E+03  0.41800000000E+01 0.  1.
        -11    1    1    2    0    0 -0.37282675574E+02  0.64595742209E+02 -0.16162721927E+03  0.17800552187E+03  0.00000000000E+00 0. -1.
         11    1    1    2    0    0 -0.40722288767E+01 -0.31394888684E+02 -0.61683546826E+02  0.69333123631E+02  0.00000000000E+00 0.  1.
</event>
<event>
 7    1  0.2651429E-009  0.7638931E+02  0.7561462E-02  0.1339622E+00
          2   -1    0    0  501    0  0.00000000000E+00  0.00000000000E+00  0.11322280852E+03  0.11322280852E+03  0.00000000000E+00 0. -1.
         -2   -1    0    0    0  501 -0.00000000000E+00 -0.00000000000E+00 -0.11978736394E+03  0.11978736394E+03  0.00000000000E+00 0.  1.
         25    2    1    2    0    0  0.11897940880E+02 -0.30308568217E+02  0.28292954396E+02  0.13231835715E+03  0.12508991192E+03 0.  0.
          5    1    3    3  502    0  0.28737537782E+02  0.71389909397E+01  0.68472773543E+02  0.74718166372E+02  0.41800000000E+01 0.  1.
         -5    1    3    3    0  502 -0.16839596902E+02 -0.37447559156E+02 -0.40179819147E+02  0.57600190775E+02  0.41800000000E+01 0.  1.
        -11    1    1    2    0    0  0.31844517949E+02  0.15539505182E+02  0.94814296154E+01  0.36680336044E+02  0.00000000000E+00 0. -1.
         11    1    1    2    0    0 -0.43742458829E+02  0.14769063035E+02 -0.44338939432E+02  0.64011479262E+02  0.00000000000E+00 0.  1.
</event>
<event>
 7    1  0.2651429E-009  0.1200868E+03  0.7561462E-02  0.1242954E+00
         -2   -1    0    0    0  501 -0.00000000000E+00  0.00000000000E+00  0.10685997906E+03  0.10685997906E+03  0.00000000000E+00 0.  1.
          2   -1    0    0  501    0  0.00000000000E+00 -0.00000000000E+00 -0.14454155015E+03  0.14454155015E+03  0.00000000000E+00 0. -1.
         25    2    1    2    0    0  0.34138544119E+02 -0.51106765045E+02 -0.16072360648E+02  0.14028971572E+03  0.12508214074E+03 0.  0.
          5    1    3    3  502    0 -0.15286249112E+02  0.31252678362E+02  0.16564342157E+02  0.38758858959E+02  0.41800000000E+01 0.  1.
         -5    1    3    3    0  502  0.49424793231E+02 -0.82359443407E+02 -0.32636702805E+02  0.10153085676E+03  0.41800000000E+01 0.  1.
        -11    1    1    2    0    0 -0.20420038506E+01 -0.25682197618E+02 -0.51340704902E+01  0.26269825542E+02  0.00000000000E+00 0. -1.
         11    1    1    2    0    0 -0.32096540268E+02  0.76788962663E+02 -0.16475139950E+02  0.84841987956E+02  0.00000000000E+00 0.  1.
</event>
<event>
 7    1  0.2651429E-009  0.1312650E+03  0.7561462E-02  0.1225591E+00
          4   -1    0    0  501    0  0.00000000000E+00  0.00000000000E+00  0.62207532778E+02  0.62207532778E+02  0.00000000000E+00 0. -1.
         -4   -1    0    0    0  501 -0.00000000000E+00 -0.00000000000E+00 -0.99690575963E+03  0.99690575963E+03  0.00000000000E+00 0.  1.
         25    2    1    2    0    0 -0.52387497757E+02 -0.99230007150E+02 -0.89462731424E+03  0.91027267282E+03  0.12508902134E+03 0.  0.
          5    1    3    3  502    0 -0.25188286548E+02  0.12001435583E+01 -0.54172405285E+03  0.54232675755E+03  0.41800000000E+01 0. -1.
         -5    1    3    3    0  502 -0.27199211209E+02 -0.10043015071E+03 -0.35290326139E+03  0.36794591527E+03  0.41800000000E+01 0. -1.
        -11    1    1    2    0    0 -0.49701319176E+00  0.74420529782E+02  0.56849413776E+01  0.74639003434E+02  0.00000000000E+00 0. -1.
         11    1    1    2    0    0  0.52884510949E+02  0.24809477367E+02 -0.45755853993E+02  0.74201616156E+02  0.00000000000E+00 0.  1.
</event>
<event>
 7    1  0.2651429E-009  0.8944515E+02  0.7561462E-02  0.1304201E+00
         -2   -1    0    0    0  501 -0.00000000000E+00  0.00000000000E+00  0.65303419221E+02  0.65303419221E+02  0.00000000000E+00 0.  1.
          2   -1    0    0  501    0  0.00000000000E+00 -0.00000000000E+00 -0.21895471406E+03  0.21895471406E+03  0.00000000000E+00 0. -1.
         25    2    1    2    0    0  0.16323301601E+00 -0.25535535855E+02 -0.38313678828E+02  0.13330388428E+03  0.12509954973E+03 0.  0.
          5    1    3    3  502    0  0.31146531593E+01  0.32719702971E+02  0.29073758573E+02  0.44079880494E+02  0.41800000000E+01 0.  1.
         -5    1    3    3    0  502 -0.29514201433E+01 -0.58255238827E+02 -0.67387437401E+02  0.89224003783E+02  0.41800000000E+01 0.  1.
        -11    1    1    2    0    0  0.26222498529E+02  0.46629713633E+02 -0.35338651671E+02  0.64115286200E+02  0.00000000000E+00 0.  1.
         11    1    1    2    0    0 -0.26385731545E+02 -0.21094177778E+02 -0.79998964342E+02  0.86838962805E+02  0.00000000000E+00 0. -1.
</event>
<event>
 7    1  0.2651429E-009  0.1440117E+03  0.7561462E-02  0.1208031E+00
          2   -1    0    0  501    0  0.00000000000E+00  0.00000000000E+00  0.21058561999E+04  0.21058561999E+04  0.00000000000E+00 0. -1.
         -2   -1    0    0    0  501 -0.00000000000E+00 -0.00000000000E+00 -0.13453681899E+02  0.13453681899E+02  0.00000000000E+00 0.  1.
         25    2    1    2    0    0 -0.10788337600E+03  0.79073733524E+01  0.15476309321E+04  0.15564416452E+04  0.12509094152E+03 0.  0.
          5    1    3    3  502    0 -0.10857230241E+03  0.38908961332E+02  0.81365995059E+03  0.82180401539E+03  0.41800000000E+01 0. -1.
         -5    1    3    3    0  502  0.68892641496E+00 -0.31001587979E+02  0.73397098147E+03  0.73463762980E+03  0.41800000000E+01 0. -1.
        -11    1    1    2    0    0  0.87461134251E+02 -0.45465771571E+02  0.39508809075E+03  0.40719919676E+03  0.00000000000E+00 0.  1.
         11    1    1    2    0    0  0.20422241744E+02  0.37558398219E+02  0.14968349519E+03  0.15566903985E+03  0.00000000000E+00 0. -1.
</event>
<event>
 7    1  0.2651429E-009  0.1003742E+03  0.7561462E-02  0.1279511E+00
         -3   -1    0    0    0  501 -0.00000000000E+00  0.00000000000E+00  0.51942975887E+02  0.51942975887E+02  0.00000000000E+00 0.  1.
          3   -1    0    0  501    0  0.00000000000E+00 -0.00000000000E+00 -0.32719032687E+03  0.32719032687E+03  0.00000000000E+00 0. -1.
         25    2    1    2    0    0  0.33114369854E+02 -0.24753157640E+02 -0.65648403150E+02  0.14719882993E+03  0.12509397424E+03 0.  0.
          5    1    3    3  502    0  0.20150026508E+02  0.42740625889E+02 -0.62244615847E+02  0.78260138459E+02  0.41800000000E+01 0. -1.
         -5    1    3    3    0  502  0.12964343345E+02 -0.67493783530E+02 -0.34037873032E+01  0.68938691469E+02  0.41800000000E+01 0. -1.
        -11    1    1    2    0    0 -0.48325388121E+02 -0.73986079700E+01 -0.56302548884E+02  0.74565806827E+02  0.00000000000E+00 0.  1.
         11    1    1    2    0    0  0.15211018268E+02  0.32151765610E+02 -0.15329639895E+03  0.15736866601E+03  0.00000000000E+00 0. -1.
</event>
<event>
 7    1  0.2651429E-009  0.1009688E+03  0.7561462E-02  0.1278272E+00
          1   -1    0    0  501    0  0.00000000000E+00  0.00000000000E+00  0.68562404801E+02  0.68562404801E+02  0.00000000000E+00 0. -1.
         -1   -1    0    0    0  501 -0.00000000000E+00 -0.00000000000E+00 -0.21694017447E+03  0.21694017447E+03  0.00000000000E+00 0.  1.
         25    2    1    2    0    0  0.39141852307E+02 -0.11171096289E+02 -0.12455856989E+03  0.18116411345E+03  0.12509484671E+03 0.  0.
          5    1    3    3  502    0  0.24499361329E+02 -0.68165685651E+02 -0.68219251414E+02  0.99589748816E+02  0.41800000000E+01 0. -1.
         -5    1    3    3    0  502  0.14642490977E+02  0.56994589362E+02 -0.56339318478E+02  0.81574364633E+02  0.41800000000E+01 0. -1.
        -11    1    1    2    0    0  0.59224953097E+01 -0.16483772146E+02 -0.44300065107E+02  0.47637028280E+02  0.00000000000E+00 0.  1.
         11    1    1    2    0    0 -0.45064347616E+02  0.27654868435E+02  0.20480865333E+02  0.56701437539E+02  0.00000000000E+00 0. -1.
</event>
<event>
 7    1  0.2651429E-009  0.1631895E+03  0.7561462E-02  0.1185142E+00
         -4   -1    0    0    0  501 -0.00000000000E+00  0.00000000000E+00  0.23987979832E+03  0.23987979832E+03  0.00000000000E+00 0.  1.
          4   -1    0    0  501    0  0.00000000000E+00 -0.00000000000E+00 -0.19774668895E+03  0.19774668895E+03  0.00000000000E+00 0. -1.
         25    2    1    2    0    0  0.12887919069E+03 -0.89157011372E+02  0.12625640194E+03  0.23695079211E+03  0.12508469283E+03 0.  0.
          5    1    3    3  502    0  0.48953031587E+02 -0.69928521274E+02 -0.91189539520E+00  0.85467545550E+02  0.41800000000E+01 0.  1.
         -5    1    3    3    0  502  0.79926159101E+02 -0.19228490098E+02  0.12716829733E+03  0.15148324656E+03  0.41800000000E+01 0.  1.
        -11    1    1    2    0    0 -0.29539106027E+02  0.87725869177E+01  0.19230065897E+02  0.36322341617E+02  0.00000000000E+00 0. -1.
         11    1    1    2    0    0 -0.99340084661E+02  0.80384424454E+02 -0.10335335846E+03  0.16435335354E+03  0.00000000000E+00 0.  1.
</event>
<event>
 7    1  0.2651429E-009  0.8841403E+02  0.7561462E-02  0.1306738E+00
         -1   -1    0    0    0  501 -0.00000000000E+00  0.00000000000E+00  0.70079031554E+02  0.70079031554E+02  0.00000000000E+00 0.  1.
          1   -1    0    0  501    0  0.00000000000E+00 -0.00000000000E+00 -0.18427267685E+03  0.18427267685E+03  0.00000000000E+00 0. -1.
         25    2    1    2    0    0  0.81492917000E+01  0.12813040925E+02 -0.32962649040E+02  0.13025442704E+03  0.12509634111E+03 0.  0.
          5    1    3    3  502    0 -0.44954271728E+02 -0.13009206161E+02  0.19771467070E+02  0.50975575540E+02  0.41800000000E+01 0.  1.
         -5    1    3    3    0  502  0.53103563428E+02  0.25822247085E+02 -0.52734116110E+02  0.79278851500E+02  0.41800000000E+01 0.  1.
        -11    1    1    2    0    0 -0.27627831113E+02 -0.32700295331E+02 -0.85800813538E+02  0.95887360848E+02  0.00000000000E+00 0. -1.
         11    1    1    2    0    0  0.19478539413E+02  0.19887254406E+02  0.45698172815E+01  0.28209920515E+02  0.00000000000E+00 0.  1.
</event>
<event>
 7    1  0.2651429E-009  0.1551571E+03  0.7561462E-02  0.1194275E+00
         -1   -1    0    0    0  501 -0.00000000000E+00  0.00000000000E+00  0.16427309463E+03  0.16427309463E+03  0.00000000000E+00 0.  1.
          1   -1    0    0  501    0  0.00000000000E+00 -0.00000000000E+00 -0.17214755421E+03  0.17214755421E+03  0.00000000000E+00 0. -1.
         25    2    1    2    0    0 -0.72323755148E+02  0.10627357597E+03 -0.60784419765E+01  0.17946952164E+03  0.12509022037E+03 0.  0.
          5    1    3    3  502    0  0.24925538161E+02 -0.25745166267E+01 -0.20626070810E+02  0.32723352297E+02  0.41800000000E+01 0. -1.
         -5    1    3    3    0  502 -0.97249293310E+02  0.10884809260E+03  0.14547628833E+02  0.14674616934E+03  0.41800000000E+01 0. -1.
        -11    1    1    2    0    0  0.54794885033E+02 -0.10816847446E+03  0.26022126443E+02  0.12401632698E+03  0.00000000000E+00 0.  1.
         11    1    1    2    0    0  0.17528870116E+02  0.18948984874E+01 -0.27818144047E+02  0.32934800227E+02  0.00000000000E+00 0. -1.
</event>
<event>
 7    1  0.2651429E-009  0.1231944E+03  0.7561462E-02  0.1237918E+00
         -1   -1    0    0    0  501 -0.00000000000E+00  0.00000000000E+00  0.64300197997E+02  0.64300197997E+02  0.00000000000E+00 0.  1.
          1   -1    0    0  501    0  0.00000000000E+00 -0.00000000000E+00 -0.29423347149E+03  0.29423347149E+03  0.00000000000E+00 0. -1.
         25    2    1    2    0    0 -0.67349089679E+02  0.41671671856E+02 -0.91999842551E+02  0.17431098053E+03  0.12509164156E+03 0.  0.
          5    1    3    3  502    0 -0.59337879343E+02 -0.33426619642E+02 -0.64306069194E+02  0.93760683449E+02  0.41800000000E+01 0.  1.
         -5    1    3    3    0  502 -0.80112103357E+01  0.75098291498E+02 -0.27693773357E+02  0.80550297081E+02  0.41800000000E+01 0.  1.
        -11    1    1    2    0    0  0.74170499801E+02 -0.15899086533E+02 -0.46481197759E+02  0.88963732714E+02  0.00000000000E+00 0.  1.
         11    1    1    2    0    0 -0.68214101219E+01 -0.25772585323E+02 -0.91452233179E+02  0.95258956238E+02  0.00000000000E+00 0. -1.
</event>
<event>
 7    1  0.2651429E-009  0.8886506E+02  0.7561462E-02  0.1305624E+00
          4   -1    0    0  501    0  0.00000000000E+00  0.00000000000E+00  0.31456589598E+02  0.31456589598E+02  0.00000000000E+00 0. -1.
         -4   -1    0    0    0  501 -0.00000000000E+00 -0.00000000000E+00 -0.42488657724E+03  0.42488657724E+03  0.00000000000E+00 0.  1.
         25    2    1    2    0    0 -0.10150142157E+02 -0.37007213935E+02 -0.20553500695E+03  0.24364969935E+03  0.12509187680E+03 0.  0.
          5    1    3    3  502    0 -0.41519575570E+02 -0.16451978611E+02 -0.11948730518E+02  0.46419686737E+02  0.41800000000E+01 0. -1.
         -5    1    3    3    0  502  0.31369433413E+02 -0.20555235324E+02 -0.19358627643E+03  0.19723001261E+03  0.41800000000E+01 0. -1.
        -11    1    1    2    0    0  0.13860148146E+02 -0.27356745808E+02 -0.93355027085E+02  0.98263199265E+02  0.00000000000E+00 0.  1.
         11    1    1    2    0    0 -0.37100059894E+01  0.64363959743E+02 -0.94539953608E+02  0.11443026823E+03  0.00000000000E+00 0. -1.
</event>
<event>
 7    1  0.2651429E-009  0.9146225E+02  0.7561462E-02  0.1299349E+00
         -3   -1    0    0    0  501 -0.00000000000E+00  0.00000000000E+00  0.17125492553E+03  0.17125492553E+03  0.00000000000E+00 0.  1.
          3   -1    0    0  501    0  0.00000000000E+00 -0.00000000000E+00 -0.70123967057E+02  0.70123967057E+02  0.00000000000E+00 0. -1.
         25    2    1    2    0    0 -0.12759682308E+02 -0.50731937379E+01  0.41824540297E+02  0.13260855055E+03  0.12508872340E+03 0.  0.
          5    1    3    3  502    0 -0.61114856856E+02  0.23031553248E+02  0.39571735962E+02  0.76477924008E+02  0.41800000000E+01 0.  1.
         -5    1    3    3    0  502  0.48355174547E+02 -0.28104746986E+02  0.22528043348E+01  0.56130626542E+02  0.41800000000E+01 0.  1.
        -11    1    1    2    0    0  0.35964533218E+02  0.10690460525E+02  0.72397179267E+02  0.81541922725E+02  0.00000000000E+00 0.  1.
         11    1    1    2    0    0 -0.23204850910E+02 -0.56172667874E+01 -0.13090761096E+02  0.27228419308E+02  0.00000000000E+00 0. -1.
</event>
<event>
 7    1  0.2651429E-009  0.1243740E+03  0.7561462E-02  0.1236051E+00
         -1   -1    0    0    0  501 -0.00000000000E+00  0.00000000000E+00  0.14208840619E+03  0.14208840619E+03  0.00000000000E+00 0.  1.
          1   -1    0    0  501    0  0.00000000000E+00 -0.00000000000E+00 -0.12206915708E+03  0.12206915708E+03  0.00000000000E+00 0. -1.
         25    2    1    2    0    0  0.73010679452E+02  0.33851593873E+00  0.18427162647E+02  0.14600436587E+03  0.12508813142E+03 0.  0.
          5    1    3    3  502    0 -0.76060004500E+01  0.40018097664E+02 -0.23008160059E+02  0.46969641395E+02  0.41800000000E+01 0. -1.
         -5    1    3    3    0  502  0.80616679902E+02 -0.39679581725E+02  0.41435322706E+02  0.99034724476E+02  0.41800000000E+01 0. -1.
        -11    1    1    2    0    0  0.19232499909E+02 -0.15075235625E+02  0.37073999146E+01  0.24716322461E+02  0.00000000000E+00 0. -1.
         11    1    1    2    0    0 -0.92243179361E+02  0.14736719686E+02 -0.21153134502E+01  0.93436874930E+02  0.00000000000E+00 0.  1.
</event>
<event>
 7    1  0.2651429E-009  0.1002389E+03  0.7561462E-02  0.1279794E+00
         -1   -1    0    0    0  501 -0.00000000000E+00  0.00000000000E+00  0.27364982187E+03  0.27364982187E+03  0.00000000000E+00 0.  1.
          1   -1    0    0  501    0  0.00000000000E+00 -0.00000000000E+00 -0.72555547232E+02  0.72555547232E+02  0.00000000000E+00 0. -1.
         25    2    1    2    0    0  0.42402578950E+02  0.79063090963E+02  0.10121341097E+03  0.18422741186E+03  0.12508650473E+03 0.  0.
          5    1    3    3  502    0 -0.12733979147E+01  0.35355752469E+02  0.11533130323E+03  0.12070804729E+03  0.41800000000E+01 0.  1.
         -5    1    3    3    0  502  0.43675976865E+02  0.43707338494E+02 -0.14117892266E+02  0.63519364570E+02  0.41800000000E+01 0.  1.
        -11    1    1    2    0    0 -0.84633758194E+01 -0.66024811524E+02  0.10594232185E+03  0.12511866378E+03  0.00000000000E+00 0.  1.
         11    1    1    2    0    0 -0.33939203131E+02 -0.13038279439E+02 -0.60614581735E+01  0.36859293470E+02  0.00000000000E+00 0. -1.
</event>
<event>
 7    1  0.2651429E-009  0.1110819E+03  0.7561462E-02  0.1258579E+00
         -2   -1    0    0    0  501 -0.00000000000E+00  0.00000000000E+00  0.19494902856E+03  0.19494902856E+03  0.00000000000E+00 0.  1.
          2   -1    0    0  501    0  0.00000000000E+00 -0.00000000000E+00 -0.99510270459E+02  0.99510270459E+02  0.00000000000E+00 0. -1.
         25    2    1    2    0    0 -0.82335047500E+02  0.91122743141E+01  0.23065468381E+02  0.15179490731E+03  0.12509030523E+03 0.  0.
          5    1    3    3  502    0 -0.79009289013E+02 -0.22311472139E+02 -0.31963623966E+02  0.88200993171E+02  0.41800000000E+01 0. -1.
         -5    1    3    3    0  502 -0.33257584875E+01  0.31423746453E+02  0.55029092347E+02  0.63593914137E+02  0.41800000000E+01 0. -1.
        -11    1    1    2    0    0  0.91498149210E+02 -0.20198261457E+02  0.30736478088E+02  0.98613448170E+02  0.00000000000E+00 0. -1.
         11    1    1    2    0    0 -0.91631017099E+01  0.11085987143E+02  0.41636811636E+02  0.44050943544E+02  0.00000000000E+00 0.  1.
</event>
<event>
 7    1  0.2651429E-009  0.9512266E+02  0.7561462E-02  0.1290900E+00
          3   -1    0    0  501    0  0.00000000000E+00  0.00000000000E+00  0.57366919004E+02  0.57366919004E+02  0.00000000000E+00 0. -1.
         -3   -1    0    0    0  501 -0.00000000000E+00 -0.00000000000E+00 -0.26539823811E+03  0.26539823811E+03  0.00000000000E+00 0.  1.
         25    2    1    2    0    0  0.45913940371E+02 -0.33234059224E+02 -0.10057931815E+03  0.17022741359E+03  0.12509428637E+03 0.  0.
          5    1    3    3  502    0  0.61249719009E+02 -0.66964456452E+02 -0.40384332081E+02  0.99418977988E+02  0.41800000000E+01 0.  1.
         -5    1    3    3    0  502 -0.15335778637E+02  0.33730397229E+02 -0.60194986072E+02  0.70808435598E+02  0.41800000000E+01 0.  1.
        -11    1    1    2    0    0 -0.14567554389E+02  0.26209901692E+02 -0.11557603368E+03  0.11940264716E+03  0.00000000000E+00 0.  1.
         11    1    1    2    0    0 -0.31346385983E+02  0.70241575313E+01  0.81240327313E+01  0.33135096364E+02  0.00000000000E+00 0. -1.
</event>
<event>
 7    1  0.2651429E-009  0.1567372E+03  0.7561462E-02  0.1192430E+00
          1   -1    0    0  501    0  0.00000000000E+00  0.00000000000E+00  0.97066977768E+03  0.97066977768E+03  0.00000000000E+00 0. -1.
         -1   -1    0    0    0  501 -0.00000000000E+00 -0.00000000000E+00 -0.25914278323E+02  0.25914278323E+02  0.00000000000E+00 0.  1.
         25    2    1    2    0    0  0.76287940660E+02 -0.90394193061E+02  0.51163996999E+03  0.53982774269E+03  0.12509025883E+03 0.  0.
          5    1    3    3  502    0 -0.33844517973E+02 -0.31279629415E+02  0.11591438439E+03  0.12480978937E+03  0.41800000000E+01 0. -1.
         -5    1    3    3    0  502  0.11013245863E+03 -0.59114563646E+02  0.39572558560E+03  0.41501795332E+03  0.41800000000E+01 0. -1.
        -11    1    1    2    0    0 -0.12667206855E+02 -0.14625131504E+02  0.97103987052E+02  0.99012811809E+02  0.00000000000E+00 0. -1.
         11    1    1    2    0    0 -0.63620733805E+02  0.10501932456E+03  0.33601154231E+03  0.35774350151E+03  0.00000000000E+00 0.  1.
</event>
<event>
 7    1  0.2651429E-009  0.2177158E+03  0.7561462E-02  0.1135598E+00
          2   -1    0    0  501    0  0.00000000000E+00  0.00000000000E+00  0.65072539876E+03  0.65072539876E+03  0.00000000000E+00 0.  1.
         -2   -1    0    0    0  501 -0.00000000000E+00 -0.00000000000E+00 -0.80794956269E+02  0.80794956269E+02  0.00000000000E+00 0. -1.
         25    2    1    2    0    0 -0.19783033645E+03 -0.13367822745E+02  0.23427272815E+03  0.33143038116E+03  0.12508735227E+03 0.  0.
          5    1    3    3  502    0 -0.50392075994E+02  0.50491237982E+02  0.51760850613E+02  0.88234825846E+02  0.41800000000E+01 0. -1.
         -5    1    3    3    0  502 -0.14743826045E+03 -0.63859060728E+02  0.18251187754E+03  0.24319555532E+03  0.41800000000E+01 0. -1.
        -11    1    1    2    0    0  0.76772057958E+02 -0.16571894247E+02  0.64500867016E+02  0.10163138495E+03  0.00000000000E+00 0. -1.
         11    1    1    2    0    0  0.12105827849E+03  0.29939716993E+02  0.27115684733E+03  0.29845858891E+03  0.00000000000E+00 0.  1.
</event>
<event>
 7    1  0.2651429E-009  0.1267446E+03  0.7561462E-02  0.1232368E+00
         -2   -1    0    0    0  501 -0.00000000000E+00  0.00000000000E+00  0.13497214991E+02  0.13497214991E+02  0.00000000000E+00 0.  1.
          2   -1    0    0  501    0  0.00000000000E+00 -0.00000000000E+00 -0.12303642482E+04  0.12303642482E+04  0.00000000000E+00 0. -1.
         25    2    1    2    0    0  0.38046451495E+02  0.57571789879E+02 -0.66621313044E+03  0.68135861175E+03  0.12509028411E+03 0.  0.
          5    1    3    3  502    0  0.78025240618E+02  0.60040219051E+02 -0.53865032724E+03  0.54758963971E+03  0.41800000000E+01 0.  1.
         -5    1    3    3    0  502 -0.39978789123E+02 -0.24684291716E+01 -0.12756280320E+03  0.13376897204E+03  0.41800000000E+01 0.  1.
        -11    1    1    2    0    0 -0.46566902495E+02  0.91122411635E+01 -0.24307087503E+03  0.24765895832E+03  0.00000000000E+00 0. -1.
         11    1    1    2    0    0  0.85204510003E+01 -0.66684031043E+02 -0.30758302770E+03  0.31484389308E+03  0.00000000000E+00 0.  1.
</event>
<event>
 7    1  0.3315013E-009  0.1543302E+03  0.7561462E-02  0.1195251E+00
          4   -1    0    0  501    0  0.00000000000E+00  0.00000000000E+00  0.76723427849E+03  0.76723427849E+03  0.00000000000E+00 0.  1.
         -4   -1    0    0    0  501 -0.00000000000E+00 -0.00000000000E+00 -0.32405135883E+02  0.32405135883E+02  0.00000000000E+00 0. -1.
         25    2    1    2    0    0 -0.19744134876E+02 -0.11077562928E+03  0.35404450786E+03  0.39198850812E+03  0.12508559490E+03 0.  0.
          5    1    3    3  502    0  0.23064898975E+02 -0.12065018880E+03  0.23857115156E+03  0.26836938048E+03  0.41800000000E+01 0.  1.
         -5    1    3    3    0  502 -0.42809033851E+02  0.98745595144E+01  0.11547335630E+03  0.12361912764E+03  0.41800000000E+01 0.  1.
        -11    1    1    2    0    0  0.44455159141E+02  0.22249239805E+02  0.18163816869E+03  0.18831811960E+03  0.00000000000E+00 0.  1.
         11    1    1    2    0    0 -0.24711024265E+02  0.88526389477E+02  0.19914646606E+03  0.21933278664E+03  0.00000000000E+00 0. -1.
</event>
<event>
 7    1  0.2651429E-009  0.1594108E+03  0.7561462E-02  0.1189364E+00
         -2   -1    0    0    0  501 -0.00000000000E+00  0.00000000000E+00  0.30302218773E+02  0.30302218773E+02  0.00000000000E+00 0.  1.
          2   -1    0    0  501    0  0.00000000000E+00 -0.00000000000E+00 -0.17349523376E+04  0.17349523376E+04  0.00000000000E+00 0. -1.
         25    2    1    2    0    0  0.11790014370E+03  0.39949485480E+01 -0.15100131083E+04  0.15197707584E+04  0.12508863789E+03 0.  0.
          5    1    3    3  502    0 -0.70914613593E+01  0.39775219873E+02 -0.28711777664E+03  0.28997663182E+03  0.41800000000E+01 0.  1.
         -5    1    3    3    0  502  0.12499160506E+03 -0.35780271325E+02 -0.12228953316E+04  0.12297941266E+04  0.41800000000E+01 0.  1.
        -11    1    1    2    0    0 -0.12425697173E+02  0.33855648900E+02 -0.63155191950E+02  0.72726756994E+02  0.00000000000E+00 0.  1.
         11    1    1    2    0    0 -0.10547444653E+03 -0.37850597448E+02 -0.13148181862E+03  0.17275704103E+03  0.00000000000E+00 0. -1.
</event>
<event>
 7    1  0.2651429E-009  0.1389171E+03  0.7561462E-02  0.1214794E+00
          2   -1    0    0  501    0  0.00000000000E+00  0.00000000000E+00  0.40762931691E+03  0.40762931691E+03  0.00000000000E+00 0. -1.
         -2   -1    0    0    0  501 -0.00000000000E+00 -0.00000000000E+00 -0.66974376737E+02  0.66974376737E+02  0.00000000000E+00 0.  1.
         25    2    1    2    0    0 -0.41395769800E+02 -0.11509799916E+03  0.15938482620E+03  0.23666755958E+03  0.12508737654E+03 0.  0.
          5    1    3    3  502    0 -0.27948686494E+02 -0.53295289146E+02  0.16236681558E+03  0.17321077370E+03  0.41800000000E+01 0. -1.
         -5    1    3    3    0  502 -0.13447083306E+02 -0.61802710011E+02 -0.29819893870E+01  0.63456785885E+02  0.41800000000E+01 0. -1.
        -11    1    1    2    0    0  0.68212887461E+02  0.10551825101E+03  0.14827078214E+03  0.19434846063E+03  0.00000000000E+00 0.  1.
         11    1    1    2    0    0 -0.26817117661E+02  0.95797481467E+01  0.32999331843E+02  0.43587673444E+02  0.00000000000E+00 0. -1.
</event>
<event>
 6    1  0.2651429E-009  0.1145517E+03  0.7561462E-02  0.1252366E+00
         -2   -1    0    0    0  501 -0.00000000000E+00  0.00000000000E+00  0.17376385429E+02  0.17376385429E+02  0.00000000000E+00 0.  1.
          2   -1    0    0  501    0  0.00000000000E+00 -0.00000000000E+00 -0.89240215959E+03  0.89240215959E+03  0.00000000000E+00 0. -1.
          5    1    1    2  502    0 -0.66982048526E+02 -0.19897875618E+02 -0.12706405928E+03  0.14506987227E+03  0.41800000000E+01 0. -1.
         -5    1    1    2    0  502  0.43474047708E+02 -0.31776955832E+02 -0.25614965115E+03  0.26178213066E+03  0.41800000000E+01 0. -1.
        -11    1    1    2    0    0  0.46394208670E+02 -0.23147782921E+01 -0.22553409965E+03  0.23026812828E+03  0.00000000000E+00 0.  1.
         11    1    1    2    0    0 -0.22886207852E+02  0.53989609742E+02 -0.26627796408E+03  0.27265841381E+03  0.00000000000E+00 0. -1.
</event>
<event>
 7    1  0.2651429E-009  0.7624139E+02  0.7561462E-02  0.1340069E+00
          1   -1    0    0  501    0  0.00000000000E+00  0.00000000000E+00  0.34840084368E+02  0.34840084368E+02  0.00000000000E+00 0. -1.
         -1   -1    0    0    0  501 -0.00000000000E+00 -0.00000000000E+00 -0.42385799492E+03  0.42385799492E+03  0.00000000000E+00 0.  1.
         25    2    1    2    0    0  0.14769143930E+02  0.20864332574E+02 -0.31077581628E+03  0.33597926296E+03  0.12508800568E+03 0.  0.
          5    1    3    3  502    0  0.56780613008E+02 -0.63332462148E+01 -0.25310427756E+03  0.25950606108E+03  0.41800000000E+01 0. -1.
         -5    1    3    3    0  502 -0.42011469078E+02  0.27197578789E+02 -0.57671538723E+02  0.76473201873E+02  0.41800000000E+01 0. -1.
        -11    1    1    2    0    0 -0.26164858356E+02 -0.71081949200E+01  0.12770204622E+02  0.29970057956E+02  0.00000000000E+00 0. -1.
         11    1    1    2    0    0  0.11395714426E+02 -0.13756137654E+02 -0.91012298893E+02  0.92748758376E+02  0.00000000000E+00 0.  1.
</event>
<event>
 7    1  0.2651429E-009  0.8769221E+02  0.7561462E-02  0.1308539E+00
          3   -1    0    0  501    0  0.00000000000E+00  0.00000000000E+00  0.21295150714E+03  0.21295150714E+03  0.00000000000E+00 0. -1.
         -3   -1    0    0    0  501 -0.00000000000E+00 -0.00000000000E+00 -0.87730415898E+02  0.87730415898E+02  0.00000000000E+00 0.  1.
         25    2    1    2    0    0  0.16039508199E+02 -0.54096019179E+02  0.13330681693E+03  0.19131471842E+03  0.12508784486E+03 0.  0.
          5    1    3    3  502    0  0.18931995752E+02  0.28418145239E+02 -0.61921052349E-01  0.34401855709E+02  0.41800000000E+01 0. -1.
         -5    1    3    3    0  502 -0.28924875538E+01 -0.82514164418E+02  0.13336873798E+03  0.15691286271E+03  0.41800000000E+01 0. -1.
        -11    1    1    2    0    0 -0.17448714030E+02  0.34462450868E+02 -0.49927918268E+02  0.63126184454E+02  0.00000000000E+00 0.  1.
         11    1    1    2    0    0  0.14092058317E+01  0.19633568311E+02  0.41842192584E+02  0.46241020165E+02  0.00000000000E+00 0. -1.
</event>
<event>
 7    1  0.2651429E-009  0.9798016E+02  0.7561462E-02  0.1284602E+00
         -1   -1    0    0    0  501 -0.00000000000E+00  0.00000000000E+00  0.82250428403E+03  0.82250428403E+03  0.00000000000E+00 0.  1.
          1   -1    0    0  501    0  0.00000000000E+00 -0.00000000000E+00 -0.25684436004E+02  0.25684436004E+02  0.00000000000E+00 0. -1.
         25    2    1    2    0    0  0.36806246398E+02  0.42522197905E+01  0.69299759086E+03  0.70517098755E+03  0.12509068551E+03 0.  0.
          5    1    3    3  502    0 -0.30841297946E+02  0.42469975760E+02  0.27909622371E+03  0.28401946938E+03  0.41800000000E+01 0. -1.
         -5    1    3    3    0  502  0.67647544344E+02 -0.38217755970E+02  0.41390136715E+03  0.42115151817E+03  0.41800000000E+01 0. -1.
        -11    1    1    2    0    0 -0.32922038742E+02  0.21587161455E+02  0.36998026216E+01  0.39541809696E+02  0.00000000000E+00 0. -1.
         11    1    1    2    0    0 -0.38842076558E+01 -0.25839381245E+02  0.10012245455E+03  0.10347592279E+03  0.00000000000E+00 0.  1.
</event>
<event>
 7    1  0.2651429E-009  0.1075106E+03  0.7561462E-02  0.1265250E+00
         -2   -1    0    0    0  501 -0.00000000000E+00  0.00000000000E+00  0.87562637209E+02  0.87562637209E+02  0.00000000000E+00 0.  1.
          2   -1    0    0  501    0  0.00000000000E+00 -0.00000000000E+00 -0.15349884008E+03  0.15349884008E+03  0.00000000000E+00 0. -1.
         25    2    1    2    0    0  0.32332594473E+02  0.42966082660E+01 -0.12269749318E+02  0.12985569254E+03  0.12509235240E+03 0.  0.
          5    1    3    3  502    0  0.77941463749E+02  0.19750269756E+02 -0.12747893596E+02  0.81516416248E+02  0.41800000000E+01 0.  1.
         -5    1    3    3    0  502 -0.45608869276E+02 -0.15453661490E+02  0.47814427850E+00  0.48339276288E+02  0.41800000000E+01 0.  1.
        -11    1    1    2    0    0  0.85131675503E+01 -0.34395355413E+02  0.24931375616E+01  0.35520842200E+02  0.00000000000E+00 0.  1.
         11    1    1    2    0    0 -0.40845762023E+02  0.30098747147E+02 -0.56159591116E+02  0.75684942554E+02  0.00000000000E+00 0. -1.
</event>
<event>
 7    1  0.2651429E-009  0.9887035E+02  0.7561462E-02  0.1282690E+00
          1   -1    0    0  501    0  0.00000000000E+00  0.00000000000E+00  0.32217086167E+02  0.32217086167E+02  0.00000000000E+00 0. -1.
         -1   -1    0    0    0  501 -0.00000000000E+00 -0.00000000000E+00 -0.46960897080E+03  0.46960897080E+03  0.00000000000E+00 0.  1.
         25    2    1    2    0    0 -0.20377500088E+02 -0.51453085666E+02 -0.23592930492E+03  0.27271581957E+03  0.12509443950E+03 0.  0.
          5    1    3    3  502    0 -0.34980679332E+02  0.32393712051E+01 -0.20508535476E+03  0.20811443148E+03  0.41800000000E+01 0.  1.
         -5    1    3    3    0  502  0.14603179245E+02 -0.54692456872E+02 -0.30843950158E+02  0.64601388097E+02  0.41800000000E+01 0.  1.
        -11    1    1    2    0    0 -0.18054306099E+02 -0.18459310379E+02 -0.77556677227E+02  0.81741924928E+02  0.00000000000E+00 0.  1.
         11    1    1    2    0    0  0.38431806186E+02  0.69912396045E+02 -0.12390590249E+03  0.14736831247E+03  0.00000000000E+00 0. -1.
</event>
<event>
 7    1  0.2651429E-009  0.7531298E+02  0.7561462E-02  0.1342905E+00
          2   -1    0    0  501    0  0.00000000000E+00  0.00000000000E+00  0.35883408924E+03  0.35883408924E+03  0.00000000000E+00 0. -1.
         -2   -1    0    0    0  501 -0.00000000000E+00 -0.00000000000E+00 -0.42739085081E+02  0.42739085081E+02  0.00000000000E+00 0.  1.
         25    2    1    2    0    0  0.55068297831E+02 -0.22412317650E+01  0.21787200203E+03  0.25720178291E+03  0.12508799831E+03 0.  0.
          5    1    3    3  502    0 -0.98773029081E+01  0.20004712920E+02 -0.56054175532E+01  0.23380392591E+02  0.41800000000E+01 0.  1.
         -5    1    3    3    0  502  0.64945600739E+02 -0.22245944685E+02  0.22347741958E+03  0.23382139032E+03  0.41800000000E+01 0.  1.
        -11    1    1    2    0    0 -0.25138809252E+02 -0.96744715137E+01  0.10751976433E+03  0.11084247764E+03  0.00000000000E+00 0. -1.
         11    1    1    2    0    0 -0.29929488579E+02  0.11915703279E+02 -0.92967621898E+01  0.33528913768E+02  0.00000000000E+00 0.  1.
</event>
<event>
 7    1  0.2651429E-009  0.2298875E+03  0.7561462E-02  0.1126719E+00
         -1   -1    0    0    0  501 -0.00000000000E+00  0.00000000000E+00  0.73455303021E+03  0.73455303021E+03  0.00000000000E+00 0.  1.
          1   -1    0    0  501    0  0.00000000000E+00 -0.00000000000E+00 -0.10520138733E+03  0.10520138733E+03  0.00000000000E+00 0. -1.
         25    2    1    2    0    0 -0.12353554769E+02 -0.20334231226E+03  0.55491723282E+03  0.60421869563E+03  0.12508553313E+03 0.  0.
          5    1    3    3  502    0  0.53833750005E+02 -0.95923792100E+02  0.30438396569E+03  0.32367656310E+03  0.41800000000E+01 0. -1.
         -5    1    3    3    0  502 -0.66187304774E+02 -0.10741852016E+03  0.25053326713E+03  0.28054213253E+03  0.41800000000E+01 0. -1.
        -11    1    1    2    0    0 -0.39615112610E+02  0.10505017856E+03  0.38426759354E+02  0.11866555101E+03  0.00000000000E+00 0.  1.
         11    1    1    2    0    0  0.51968667379E+02  0.98292133699E+02  0.36007650712E+02  0.11687017090E+03  0.00000000000E+00 0. -1.
</event>
<event>
 7    1  0.2651429E-009  0.1058504E+03  0.7561462E-02  0.1268453E+00
         -1   -1    0    0    0  501 -0.00000000000E+00  0.00000000000E+00  0.57876962486E+02  0.57876962486E+02  0.00000000000E+00 0.  1.
          1   -1    0    0  501    0  0.00000000000E+00 -0.00000000000E+00 -0.21527188431E+03  0.21527188431E+03  0.00000000000E+00 0. -1.
         25    2    1    2    0    0 -0.19694548346E+02  0.79899449324E+01 -0.74767626971E+02  0.14727422226E+03  0.12509110297E+03 0.  0.
          5    1    3    3  502    0  0.15273816672E+02 -0.52548264907E+02 -0.20172149310E+02  0.58472195343E+02  0.41800000000E+01 0. -1.
         -5    1    3    3    0  502 -0.34968365019E+02  0.60538209840E+02 -0.54595477660E+02  0.88802026912E+02  0.41800000000E+01 0. -1.
        -11    1    1    2    0    0  0.42543327631E+02 -0.32302907901E+02 -0.74260732621E+02  0.91477150120E+02  0.00000000000E+00 0.  1.
         11    1    1    2    0    0 -0.22848779285E+02  0.24312962968E+02 -0.83665622352E+01  0.34397474424E+02  0.00000000000E+00 0. -1.
</event>
<event>
 7    1  0.2651429E-009  0.1329099E+03  0.7561462E-02  0.1223201E+00
          2   -1    0    0  501    0  0.00000000000E+00  0.00000000000E+00  0.11095343209E+03  0.11095343209E+03  0.00000000000E+00 0.  1.
         -2   -1    0    0    0  501 -0.00000000000E+00 -0.00000000000E+00 -0.27707372687E+03  0.27707372687E+03  0.00000000000E+00 0. -1.
         25    2    1    2    0    0  0.12193213272E+03 -0.22303896612E+02 -0.15410854775E+03  0.23401202249E+03  0.12508906182E+03 0.  0.
          5    1    3    3  502    0  0.27198647346E+02 -0.85067468207E+00 -0.13129321218E+03  0.13414868628E+03  0.41800000000E+01 0. -1.
         -5    1    3    3    0  502  0.94733485375E+02 -0.21453221930E+02 -0.22815335567E+02  0.99863336213E+02  0.41800000000E+01 0. -1.
        -11    1    1    2    0    0 -0.71655029116E+01 -0.18043505264E+02  0.20356742576E+02  0.28130223649E+02  0.00000000000E+00 0.  1.
         11    1    1    2    0    0 -0.11476662981E+03  0.40347401876E+02 -0.32368489604E+02  0.12588491282E+03  0.00000000000E+00 0. -1.
</event>
<event>
 7    1  0.2651429E-009  0.9632071E+02  0.7561462E-02  0.1288229E+00
         -1   -1    0    0    0  501 -0.00000000000E+00  0.00000000000E+00  0.48885057929E+02  0.48885057929E+02  0.00000000000E+00 0.  1.
          1   -1    0    0  501    0  0.00000000000E+00 -0.00000000000E+00 -0.36740002666E+03  0.36740002666E+03  0.00000000000E+00 0. -1.
         25    2    1    2    0    0  0.39899812601E+02 -0.69509837507E+02 -0.11813192308E+03  0.18981122892E+03  0.12509811677E+03 0.  0.
          5    1    3    3  502    0  0.28776642291E+02 -0.69394709194E+02 -0.43031418284E+01  0.75363852311E+02  0.41800000000E+01 0.  1.
         -5    1    3    3    0  502  0.11123170310E+02 -0.11512831362E+00 -0.11382878125E+03  0.11444737661E+03  0.41800000000E+01 0.  1.
        -11    1    1    2    0    0 -0.12869714906E+02 -0.13240271378E+02 -0.36528527910E+02  0.40930034195E+02  0.00000000000E+00 0.  1.
         11    1    1    2    0    0 -0.27030097695E+02  0.82750108885E+02 -0.16385451775E+03  0.18554382148E+03  0.00000000000E+00 0. -1.
</event>
<event>
 7    1  0.2651429E-009  0.8966323E+02  0.7561462E-02  0.1303669E+00
          3   -1    0    0  501    0  0.00000000000E+00  0.00000000000E+00  0.28006628285E+03  0.28006628285E+03  0.00000000000E+00 0. -1.
         -3   -1    0    0    0  501 -0.00000000000E+00 -0.00000000000E+00 -0.57209878092E+02  0.57209878092E+02  0.00000000000E+00 0.  1.
         25    2    1    2    0    0 -0.37099205081E+02 -0.15572335748E+01  0.21531337878E+03  0.25176537405E+03  0.12508867452E+03 0.  0.
          5    1    3    3  502    0 -0.16287543641E+02  0.53822841655E+02  0.16371122788E+03  0.17315028413E+03  0.41800000000E+01 0.  1.
         -5    1    3    3    0  502 -0.20811661440E+02 -0.55380075230E+02  0.51602150900E+02  0.78615089912E+02  0.41800000000E+01 0.  1.
        -11    1    1    2    0    0 -0.13007916687E+02  0.35458095529E+01 -0.23097167149E+02  0.26744303921E+02  0.00000000000E+00 0.  1.
         11    1    1    2    0    0  0.50107121768E+02 -0.19885759781E+01  0.30640193126E+02  0.58766482974E+02  0.00000000000E+00 0. -1.
</event>
<event>
 7    1  0.2651429E-009  0.8498780E+02  0.7561462E-02  0.1315464E+00
         -2   -1    0    0    0  501 -0.00000000000E+00  0.00000000000E+00  0.13282145134E+03  0.13282145134E+03  0.00000000000E+00 0.  1.
          2   -1    0    0  501    0  0.00000000000E+00 -0.00000000000E+00 -0.11823595138E+03  0.11823595138E+03  0.00000000000E+00 0. -1.
         25    2    1    2    0    0 -0.40672292899E+02  0.32761576705E+02 -0.30471132794E+02  0.13893741638E+03  0.12509020513E+03 0.  0.
          5    1    3    3  502    0  0.28736380296E+02  0.37496094609E+02 -0.47573039376E+02  0.67174423249E+02  0.41800000000E+01 0. -1.
         -5    1    3    3    0  502 -0.69408673195E+02 -0.47345179040E+01  0.17101906582E+02  0.71762993132E+02  0.41800000000E+01 0. -1.
        -11    1    1    2    0    0  0.24260709281E+02 -0.14336819097E+02  0.70956930718E+02  0.76347969283E+02  0.00000000000E+00 0.  1.
         11    1    1    2    0    0  0.16411583618E+02 -0.18424757607E+02 -0.25900297968E+02  0.35772017060E+02  0.00000000000E+00 0. -1.
</event>
<event>
 7    1  0.2651429E-009  0.5603168E+02  0.7561462E-02  0.1415282E+00
         -2   -1    0    0    0  501 -0.00000000000E+00  0.00000000000E+00  0.17580731713E+02  0.17580731713E+02  0.00000000000E+00 0. -1.
          2   -1    0    0  501    0  0.00000000000E+00 -0.00000000000E+00 -0.10467223607E+04  0.10467223607E+04  0.00000000000E+00 0.  1.
         25    2    1    2    0    0  0.13386083169E+02 -0.24376049578E+02 -0.86344150390E+03  0.87289894084E+03  0.12509177130E+03 0.  0.
          5    1    3    3  502    0  0.23756793668E+02 -0.91468189500E+01 -0.31380056745E+02  0.40623021842E+02  0.41800000000E+01 0. -1.
         -5    1    3    3    0  502 -0.10370710499E+02 -0.15229230628E+02 -0.83206144716E+03  0.83227591900E+03  0.41800000000E+01 0. -1.
        -11    1    1    2    0    0 -0.37279147339E+02  0.22180572243E+02 -0.16127344806E+03  0.16700550189E+03  0.00000000000E+00 0.  1.
         11    1    1    2    0    0  0.23893064169E+02  0.21954773353E+01 -0.44266770047E+01  0.24398649664E+02  0.00000000000E+00 0. -1.
</event>
<event>
 7    1  0.2651429E-009  0.1012297E+03  0.7561462E-02  0.1277731E+00
          1   -1    0    0  501    0  0.00000000000E+00  0.00000000000E+00  0.88321554016E+03  0.88321554016E+03  0.00000000000E+00 0. -1.
         -1   -1    0    0    0  501 -0.00000000000E+00 -0.00000000000E+00 -0.17131393743E+02  0.17131393743E+02  0.00000000000E+00 0.  1.
         25    2    1    2    0    0 -0.20684171540E+02 -0.38983053394E+02  0.62315408486E+03  0.63711817680E+03  0.12510413391E+03 0.  0.
          5    1    3    3  502    0 -0.83575718292E+01  0.34621219258E+02  0.67269794953E+02  0.76231066782E+02  0.41800000000E+01 0. -1.
         -5    1    3    3    0  502 -0.12326599711E+02 -0.73604272652E+02  0.55588428991E+03  0.56088711001E+03  0.41800000000E+01 0. -1.
        -11    1    1    2    0    0  0.11021772155E+02  0.64048335440E+02  0.11129598275E+03  0.12888159105E+03  0.00000000000E+00 0. -1.
         11    1    1    2    0    0  0.96623993851E+01 -0.25065282046E+02  0.13163407880E+03  0.13434716606E+03  0.00000000000E+00 0.  1.
</event>
<event>
 7    1  0.2651429E-009  0.8733796E+02  0.7561462E-02  0.1309429E+00
         -2   -1    0    0    0  501 -0.00000000000E+00  0.00000000000E+00  0.33123660202E+02  0.33123660202E+02  0.00000000000E+00 0.  1.
          2   -1    0    0  501    0  0.00000000000E+00 -0.00000000000E+00 -0.43560832020E+03  0.43560832020E+03  0.00000000000E+00 0. -1.
         25    2    1    2    0    0  0.49243043205E+02 -0.99730375515E+01 -0.24548038194E+03  0.28006383871E+03  0.12510314567E+03 0.  0.
          5    1    3    3  502    0  0.15791114618E+02 -0.34300184619E+02 -0.78110151013E+01  0.38785903660E+02  0.41800000000E+01 0.  1.
         -5    1    3    3    0  502  0.33451928587E+02  0.24327147068E+02 -0.23766936684E+03  0.24127793505E+03  0.41800000000E+01 0.  1.
        -11    1    1    2    0    0 -0.71487787882E+02  0.21126147523E+01 -0.76267030651E+02  0.10455442086E+03  0.00000000000E+00 0.  1.
         11    1    1    2    0    0  0.22244744677E+02  0.78604227992E+01 -0.80737247405E+02  0.84113720824E+02  0.00000000000E+00 0. -1.
</event>
<event>
 7    1  0.2651429E-009  0.6893798E+02  0.7561462E-02  0.1363742E+00
         -2   -1    0    0    0  501 -0.00000000000E+00  0.00000000000E+00  0.39264113695E+03  0.39264113695E+03  0.00000000000E+00 0. -1.
          2   -1    0    0  501    0  0.00000000000E+00 -0.00000000000E+00 -0.35901818318E+02  0.35901818318E+02  0.00000000000E+00 0.  1.
         25    2    1    2    0    0 -0.23942661093E+01  0.44538894318E+02  0.23505169415E+03  0.26996410670E+03  0.12506747926E+03 0.  0.
          5    1    3    3  502    0  0.16151272915E+02  0.11820378245E+02  0.23100460298E+03  0.23190770568E+03  0.41800000000E+01 0. -1.
         -5    1    3    3    0  502 -0.18545539024E+02  0.32718516073E+02  0.40470911732E+01  0.38056401021E+02  0.41800000000E+01 0. -1.
        -11    1    1    2    0    0  0.23684204482E+01 -0.62041299477E+02  0.37373613505E+02  0.72467366743E+02  0.00000000000E+00 0.  1.
         11    1    1    2    0    0  0.25845661140E-01  0.17502405160E+02  0.84314010976E+02  0.86111481820E+02  0.00000000000E+00 0. -1.
</event>
<event>
 7    1  0.2651429E-009  0.2139455E+03  0.7561462E-02  0.1138479E+00
         -2   -1    0    0    0  501 -0.00000000000E+00  0.00000000000E+00  0.64184010275E+02  0.64184010275E+02  0.00000000000E+00 0.  1.
          2   -1    0    0  501    0  0.00000000000E+00 -0.00000000000E+00 -0.10558803089E+04  0.10558803089E+04  0.00000000000E+00 0. -1.
         25    2    1    2    0    0  0.18742950848E+03  0.89152856514E+02 -0.26608444308E+03  0.35989761650E+03  0.12508921232E+03 0.  0.
          5    1    3    3  502    0  0.13991549372E+02  0.59109819492E+01 -0.11276612663E+03  0.11386120883E+03  0.41800000000E+01 0.  1.
         -5    1    3    3    0  502  0.17343795911E+03  0.83241874565E+02 -0.15331831646E+03  0.24603640768E+03  0.41800000000E+01 0.  1.
        -11    1    1    2    0    0 -0.55164256795E+02  0.78076658273E+01 -0.11307419359E+03  0.12605486158E+03  0.00000000000E+00 0.  1.
         11    1    1    2    0    0 -0.13226525169E+03 -0.96960522342E+02 -0.61253766199E+03  0.63411184113E+03  0.00000000000E+00 0. -1.
</event>
<event>
 7    1  0.2651429E-009  0.3652075E+03  0.7561462E-02  0.1056541E+00
         -2   -1    0    0    0  501 -0.00000000000E+00  0.00000000000E+00  0.55693204600E+03  0.55693204600E+03  0.00000000000E+00 0.  1.
          2   -1    0    0  501    0  0.00000000000E+00 -0.00000000000E+00 -0.25157923568E+03  0.25157923568E+03  0.00000000000E+00 0. -1.
         25    2    1    2    0    0  0.34878151544E+03  0.11392940673E+02  0.68301440320E+02  0.37694945412E+03  0.12508980617E+03 0.  0.
          5    1    3    3  502    0  0.12052073730E+03 -0.55464676958E+02  0.28352945637E+02  0.13573113289E+03  0.41800000000E+01 0.  1.
         -5    1    3    3    0  502  0.22826077814E+03  0.66857617631E+02  0.39948494683E+02  0.24121832123E+03  0.41800000000E+01 0. -1.
        -11    1    1    2    0    0 -0.40602639235E+02  0.27686724412E+02  0.22661662327E+02  0.54117279689E+02  0.00000000000E+00 0. -1.
         11    1    1    2    0    0 -0.30817887620E+03 -0.39079665085E+02  0.21438970767E+03  0.37744454787E+03  0.00000000000E+00 0.  1.
</event>
<event>
 7    1  0.2651429E-009  0.1162750E+03  0.7561462E-02  0.1249372E+00
         -2   -1    0    0    0  501 -0.00000000000E+00  0.00000000000E+00  0.39096632988E+02  0.39096632988E+02  0.00000000000E+00 0.  1.
          2   -1    0    0  501    0  0.00000000000E+00 -0.00000000000E+00 -0.57858684389E+03  0.57858684389E+03  0.00000000000E+00 0. -1.
         25    2    1    2    0    0  0.84710090116E+02 -0.51360246494E+02 -0.35473193745E+03  0.38896654825E+03  0.12508618600E+03 0.  0.
          5    1    3    3  502    0  0.73465990755E+02 -0.40332798622E+02 -0.36165499892E+03  0.37126243695E+03  0.41800000000E+01 0. -1.
         -5    1    3    3    0  502  0.11244099362E+02 -0.11027447872E+02  0.69230614750E+01  0.17704111308E+02  0.41800000000E+01 0. -1.
        -11    1    1    2    0    0  0.53627199726E+01  0.41371145427E+02 -0.79809980343E+02  0.90055335221E+02  0.00000000000E+00 0. -1.
         11    1    1    2    0    0 -0.90072810089E+02  0.99891010673E+01 -0.10494829311E+03  0.13866159340E+03  0.00000000000E+00 0.  1.
</event>
<event>
 7    1  0.2651429E-009  0.1161678E+03  0.7561462E-02  0.1249556E+00
         -3   -1    0    0    0  501 -0.00000000000E+00  0.00000000000E+00  0.20194304190E+02  0.20194304190E+02  0.00000000000E+00 0.  1.
          3   -1    0    0  501    0  0.00000000000E+00 -0.00000000000E+00 -0.10338396676E+04  0.10338396676E+04  0.00000000000E+00 0. -1.
         25    2    1    2    0    0  0.55865892287E+02  0.61453620264E+02 -0.72890969054E+03  0.74421418199E+03  0.12509143197E+03 0.  0.
          5    1    3    3  502    0  0.28539124928E+02  0.83812822858E+02 -0.66665542086E+03  0.67252211376E+03  0.41800000000E+01 0.  1.
         -5    1    3    3    0  502  0.27326767359E+02 -0.22359202594E+02 -0.62254269674E+02  0.71692068233E+02  0.41800000000E+01 0.  1.
        -11    1    1    2    0    0 -0.59879447288E+02 -0.15283500019E+02 -0.86933355585E+02  0.10666087330E+03  0.00000000000E+00 0. -1.
         11    1    1    2    0    0  0.40135550009E+01 -0.46170120245E+02 -0.19780231725E+03  0.20315891646E+03  0.00000000000E+00 0.  1.
</event>
<event>
 7    1  0.2651429E-009  0.1416951E+03  0.7561462E-02  0.1211066E+00
         -2   -1    0    0    0  501 -0.00000000000E+00  0.00000000000E+00  0.49891514431E+02  0.49891514431E+02  0.00000000000E+00 0.  1.
          2   -1    0    0  501    0  0.00000000000E+00 -0.00000000000E+00 -0.60371429561E+03  0.60371429561E+03  0.00000000000E+00 0. -1.
         25    2    1    2    0    0 -0.95463130033E+02  0.76982105644E+02 -0.39995455257E+03  0.43663524577E+03  0.12508892812E+03 0.  0.
          5    1    3    3  502    0 -0.35115936476E+02  0.27023695464E+01 -0.12643305472E+02  0.37653118981E+02  0.41800000000E+01 0. -1.
         -5    1    3    3    0  502 -0.60347193558E+02  0.74279736098E+02 -0.38731124710E+03  0.39898212679E+03  0.41800000000E+01 0. -1.
        -11    1    1    2    0    0  0.11307769732E+03 -0.61742372090E+02 -0.12147812014E+03  0.17707518125E+03  0.00000000000E+00 0.  1.
         11    1    1    2    0    0 -0.17614567291E+02 -0.15239733555E+02 -0.32390108469E+02  0.39895383019E+02  0.00000000000E+00 0. -1.
</event>
<event>
 7    1  0.2651429E-009  0.1281812E+03  0.7561462E-02  0.1230180E+00
          3   -1    0    0  501    0  0.00000000000E+00  0.00000000000E+00  0.28494368555E+03  0.28494368555E+03  0.00000000000E+00 0. -1.
         -3   -1    0    0    0  501 -0.00000000000E+00 -0.00000000000E+00 -0.85657975773E+02  0.85657975773E+02  0.00000000000E+00 0.  1.
         25    2    1    2    0    0  0.73838439042E+02 -0.37145637869E+02  0.19314928286E+03  0.24451149421E+03  0.12508921552E+03 0.  0.
          5    1    3    3  502    0  0.23445515250E+02 -0.67541323772E+02  0.43843578265E+02  0.83971747375E+02  0.41800000000E+01 0.  1.
         -5    1    3    3    0  502  0.50392923793E+02  0.30395685903E+02  0.14930570459E+03  0.16053974683E+03  0.41800000000E+01 0.  1.
        -11    1    1    2    0    0 -0.94341683138E+02  0.14929811216E+02  0.76462534743E+01  0.95821279643E+02  0.00000000000E+00 0.  1.
         11    1    1    2    0    0  0.20503244096E+02  0.22215826653E+02 -0.15098265571E+01  0.30268887468E+02  0.00000000000E+00 0. -1.
</event>
<event>
 7    1  0.2651429E-009  0.1312106E+03  0.7561462E-02  0.1225670E+00
          2   -1    0    0  501    0  0.00000000000E+00  0.00000000000E+00  0.74047468556E+03  0.74047468556E+03  0.00000000000E+00 0. -1.
         -2   -1    0    0    0  501 -0.00000000000E+00 -0.00000000000E+00 -0.34897204115E+02  0.34897204115E+02  0.00000000000E+00 0.  1.
         25    2    1    2    0    0  0.52146375035E+02  0.96869723957E+02  0.48274243903E+03  0.51067693675E+03  0.12509070083E+03 0.  0.
          5    1    3    3  502    0 -0.10949692082E+01  0.44775659003E+02  0.35635361792E+02  0.57388239272E+02  0.41800000000E+01 0. -1.
         -5    1    3    3    0  502  0.53241344243E+02  0.52094064954E+02  0.44710707724E+03  0.45328869748E+03  0.41800000000E+01 0. -1.
        -11    1    1    2    0    0  0.15504021331E+02 -0.67193999225E+02  0.11000730479E+03  0.12983456903E+03  0.00000000000E+00 0. -1.
         11    1    1    2    0    0 -0.67650396366E+02 -0.29675724732E+02  0.11282773762E+03  0.13486038389E+03  0.00000000000E+00 0.  1.
</event>
<event>
 7    1  0.2651429E-009  0.8821212E+02  0.7561462E-02  0.1307240E+00
          1   -1    0    0  501    0  0.00000000000E+00  0.00000000000E+00  0.23543822170E+03  0.23543822170E+03  0.00000000000E+00 0. -1.
         -1   -1    0    0    0  501 -0.00000000000E+00 -0.00000000000E+00 -0.59630468967E+02  0.59630468967E+02  0.00000000000E+00 0.  1.
         25    2    1    2    0    0 -0.26818281838E+02 -0.37234311310E+02  0.64053846448E+02  0.14783909548E+03  0.12509152140E+03 0.  0.
          5    1    3    3  502    0 -0.34839112634E+02 -0.59168977631E+02 -0.10511938331E+02  0.69589546129E+02  0.41800000000E+01 0.  1.
         -5    1    3    3    0  502  0.80208307962E+01  0.21934666320E+02  0.74565784779E+02  0.78249549347E+02  0.41800000000E+01 0.  1.
        -11    1    1    2    0    0  0.41283820790E+02 -0.27610302635E+01  0.19702177063E+02  0.45827425503E+02  0.00000000000E+00 0.  1.
         11    1    1    2    0    0 -0.14465538953E+02  0.39995341574E+02  0.92051729223E+02  0.10140216969E+03  0.00000000000E+00 0. -1.
</event>
<event>
 7    1  0.2651429E-009  0.1241696E+03  0.7561462E-02  0.1236373E+00
         -1   -1    0    0    0  501 -0.00000000000E+00  0.00000000000E+00  0.40021046014E+02  0.40021046014E+02  0.00000000000E+00 0.  1.
          1   -1    0    0  501    0  0.00000000000E+00 -0.00000000000E+00 -0.47080588589E+03  0.47080588589E+03  0.00000000000E+00 0. -1.
         25    2    1    2    0    0  0.49327652216E+02 -0.53989440460E+02 -0.32401073569E+03  0.35493464974E+03  0.12509025456E+03 0.  0.
          5    1    3    3  502    0  0.15754392336E+02 -0.86398349543E+02 -0.26722073983E+03  0.28131347617E+03  0.41800000000E+01 0. -1.
         -5    1    3    3    0  502  0.33573259880E+02  0.32408909083E+02 -0.56789995858E+02  0.73621173561E+02  0.41800000000E+01 0. -1.
        -11    1    1    2    0    0 -0.60698516299E+02  0.24078819305E+01 -0.55676479788E+02  0.82401323885E+02  0.00000000000E+00 0. -1.
         11    1    1    2    0    0  0.11370864084E+02  0.51581558529E+02 -0.51097624397E+02  0.73490958283E+02  0.00000000000E+00 0.  1.
</event>
<event>
 7    1  0.2651429E-009  0.1948577E+03  0.7561462E-02  0.1154152E+00
          1   -1    0    0  501    0  0.00000000000E+00  0.00000000000E+00  0.46737348643E+02  0.46737348643E+02  0.00000000000E+00 0. -1.
         -1   -1    0    0    0  501 -0.00000000000E+00 -0.00000000000E+00 -0.99283290294E+03  0.99283290294E+03  0.00000000000E+00 0.  1.
         25    2    1    2    0    0 -0.86061770138E+02 -0.15020501681E+03 -0.32946941018E+03  0.39264055942E+03  0.12509333035E+03 0.  0.
          5    1    3    3  502    0  0.10595711890E+02 -0.10469124033E+03 -0.14144442363E+03  0.17634206046E+03  0.41800000000E+01 0. -1.
         -5    1    3    3    0  502 -0.96657482028E+02 -0.45513776483E+02 -0.18802498655E+03  0.21629849895E+03  0.41800000000E+01 0. -1.
        -11    1    1    2    0    0  0.43356380208E+02  0.38818453558E+02 -0.91608760803E+02  0.10853024047E+03  0.00000000000E+00 0. -1.
         11    1    1    2    0    0  0.42705389931E+02  0.11138656326E+03 -0.52501738331E+03  0.53839945169E+03  0.00000000000E+00 0.  1.
</event>
<event>
 7    1  0.2651429E-009  0.7769726E+02  0.7561462E-02  0.1335716E+00
          2   -1    0    0  501    0  0.00000000000E+00  0.00000000000E+00  0.23302724087E+03  0.23302724087E+03  0.00000000000E+00 0. -1.
         -2   -1    0    0    0  501 -0.00000000000E+00 -0.00000000000E+00 -0.66588453822E+02  0.66588453822E+02  0.00000000000E+00 0.  1.
         25    2    1    2    0    0  0.70350062759E+01  0.33189191102E+02  0.15368717411E+03  0.20104246355E+03  0.12508921194E+03 0.  0.
          5    1    3    3  502    0  0.48639987055E+02  0.42442083695E+02  0.14292822990E+03  0.15688572309E+03  0.41800000000E+01 0.  1.
         -5    1    3    3    0  502 -0.41604980779E+02 -0.92528925933E+01  0.10758944214E+02  0.44156740455E+02  0.41800000000E+01 0.  1.
        -11    1    1    2    0    0 -0.16700179733E+02 -0.40568239753E+01 -0.36612111350E+02  0.40445030862E+02  0.00000000000E+00 0.  1.
         11    1    1    2    0    0  0.96651734575E+01 -0.29132367126E+02  0.49363724284E+02  0.58128200278E+02  0.00000000000E+00 0. -1.
</event>
<event>
 7    1  0.2651429E-009  0.1182126E+03  0.7561462E-02  0.1246075E+00
         -1   -1    0    0    0  501 -0.00000000000E+00  0.00000000000E+00  0.58951054458E+02  0.58951054458E+02  0.00000000000E+00 0.  1.
          1   -1    0    0  501    0  0.00000000000E+00 -0.00000000000E+00 -0.32408655533E+03  0.32408655533E+03  0.00000000000E+00 0. -1.
         25    2    1    2    0    0 -0.83184810548E+02 -0.10852575817E+02 -0.16783596238E+03  0.22550585474E+03  0.12508592706E+03 0.  0.
          5    1    3    3  502    0  0.21312568545E+02 -0.36916279262E+02 -0.48103628883E+02  0.64408607843E+02  0.41800000000E+01 0. -1.
         -5    1    3    3    0  502 -0.10449737909E+03  0.26063703445E+02 -0.11973233349E+03  0.16109724690E+03  0.41800000000E+01 0. -1.
        -11    1    1    2    0    0  0.47980454440E+02 -0.27835082858E+01 -0.10806778579E+03  0.11827306647E+03  0.00000000000E+00 0. -1.
         11    1    1    2    0    0  0.35204356108E+02  0.13636084103E+02  0.10768247299E+02  0.39258688574E+02  0.00000000000E+00 0.  1.
</event>
<event>
 7    1  0.2651429E-009  0.9336087E+02  0.7561462E-02  0.1294911E+00
          2   -1    0    0  501    0  0.00000000000E+00  0.00000000000E+00  0.55580151600E+03  0.55580151600E+03  0.00000000000E+00 0. -1.
         -2   -1    0    0    0  501 -0.00000000000E+00 -0.00000000000E+00 -0.25746873694E+02  0.25746873694E+02  0.00000000000E+00 0.  1.
         25    2    1    2    0    0 -0.84926496977E+01 -0.47220281807E+02  0.33952320189E+03  0.36500439265E+03  0.12510124666E+03 0.  0.
          5    1    3    3  502    0 -0.25985016857E+02  0.34180707907E+02  0.17900265020E+03  0.18412757282E+03  0.41800000000E+01 0. -1.
         -5    1    3    3    0  502  0.17492367159E+02 -0.81400989715E+02  0.16052055169E+03  0.18087681983E+03  0.41800000000E+01 0. -1.
        -11    1    1    2    0    0 -0.11256198831E+02  0.27905021093E+01 -0.67099794837E+01  0.13398236407E+02  0.00000000000E+00 0.  1.
         11    1    1    2    0    0  0.19748848529E+02  0.44429779698E+02  0.19724141989E+03  0.20314576064E+03  0.00000000000E+00 0. -1.
</event>
<event>
 7    1  0.2651429E-009  0.1155396E+03  0.7561462E-02  0.1250642E+00
          1   -1    0    0  501    0  0.00000000000E+00  0.00000000000E+00  0.13105511022E+04  0.13105511022E+04  0.00000000000E+00 0. -1.
         -1   -1    0    0    0  501 -0.00000000000E+00 -0.00000000000E+00 -0.48384580908E+02  0.48384580908E+02  0.00000000000E+00 0.  1.
         25    2    1    2    0    0  0.83764057333E+01 -0.60226830598E+02  0.12393010010E+04  0.12470813876E+04  0.12509029097E+03 0.  0.
          5    1    3    3  502    0  0.57877299617E+02 -0.32259821289E+02  0.94374982639E+03  0.94608228241E+03  0.41800000000E+01 0. -1.
         -5    1    3    3    0  502 -0.49500893884E+02 -0.27967009309E+02  0.29555117465E+03  0.30099910522E+03  0.41800000000E+01 0. -1.
        -11    1    1    2    0    0 -0.34556857009E+02 -0.72424567135E+01 -0.19124639544E+01  0.35359398524E+02  0.00000000000E+00 0.  1.
         11    1    1    2    0    0  0.26180451276E+02  0.67469287312E+02  0.24777984213E+02  0.76494896961E+02  0.00000000000E+00 0. -1.
</event>
<event>
 7    1  0.2651429E-009  0.1265538E+03  0.7561462E-02  0.1232661E+00
         -1   -1    0    0    0  501 -0.00000000000E+00  0.00000000000E+00  0.15946360530E+03  0.15946360530E+03  0.00000000000E+00 0.  1.
          1   -1    0    0  501    0  0.00000000000E+00 -0.00000000000E+00 -0.17428501921E+03  0.17428501921E+03  0.00000000000E+00 0. -1.
         25    2    1    2    0    0  0.11397745239E+03 -0.47599780507E+02  0.22975338507E+01  0.17581110670E+03  0.12509063842E+03 0.  0.
          5    1    3    3  502    0  0.48572155969E+02 -0.70015788659E+01 -0.59332231327E+02  0.77110715963E+02  0.41800000000E+01 0. -1.
         -5    1    3    3    0  502  0.65405296420E+02 -0.40598201641E+02  0.61629765178E+02  0.98700390739E+02  0.41800000000E+01 0. -1.
        -11    1    1    2    0    0 -0.24333405550E+02  0.23741720039E+02  0.37236085543E+02  0.50421324484E+02  0.00000000000E+00 0.  1.
         11    1    1    2    0    0 -0.89644046838E+02  0.23858060468E+02 -0.54355033300E+02  0.10751619333E+03  0.00000000000E+00 0. -1.
</event>
<event>
 7    1  0.2651429E-009  0.1425364E+03  0.7561462E-02  0.1209956E+00
          1   -1    0    0  501    0  0.00000000000E+00  0.00000000000E+00  0.18254573092E+02  0.18254573092E+02  0.00000000000E+00 0. -1.
         -1   -1    0    0    0  501 -0.00000000000E+00 -0.00000000000E+00 -0.12505445936E+04  0.12505445936E+04  0.00000000000E+00 0.  1.
         25    2    1    2    0    0  0.66106446582E+02 -0.81699113189E+02 -0.62345642139E+03  0.64450873161E+03  0.12509511727E+03 0.  0.
          5    1    3    3  502    0  0.56728001063E+02  0.12025410344E+02 -0.13423543508E+03  0.14628499933E+03  0.41800000000E+01 0. -1.
         -5    1    3    3    0  502  0.93784455188E+01 -0.93724523533E+02 -0.48922098631E+03  0.49822373227E+03  0.41800000000E+01 0. -1.
        -11    1    1    2    0    0 -0.49435534824E+02  0.97729125121E+02 -0.55493876507E+03  0.56564289704E+03  0.00000000000E+00 0. -1.
         11    1    1    2    0    0 -0.16670911758E+02 -0.16030011932E+02 -0.53894834034E+02  0.58647538030E+02  0.00000000000E+00 0.  1.
</event>
<event>
 7    1  0.2651429E-009  0.1448887E+03  0.7561462E-02  0.1206898E+00
         -1   -1    0    0    0  501 -0.00000000000E+00  0.00000000000E+00  0.24687123269E+03  0.24687123269E+03  0.00000000000E+00 0.  1.
          1   -1    0    0  501    0  0.00000000000E+00 -0.00000000000E+00 -0.12891067302E+03  0.12891067302E+03  0.00000000000E+00 0. -1.
         25    2    1    2    0    0  0.17871127454E+02 -0.12120962688E+03  0.14260946238E+03  0.22582200831E+03  0.12508784846E+03 0.  0.
          5    1    3    3  502    0  0.40639563413E+02 -0.10793400828E+03  0.15750524108E+03  0.19526058902E+03  0.41800000000E+01 0.  1.
         -5    1    3    3    0  502 -0.22768435959E+02 -0.13275618609E+02 -0.14895778707E+02  0.30561419286E+02  0.41800000000E+01 0.  1.
        -11    1    1    2    0    0  0.74107751456E+00 -0.12582494537E+02 -0.45074610090E+01  0.13386021418E+02  0.00000000000E+00 0. -1.
         11    1    1    2    0    0 -0.18612204968E+02  0.13379212142E+03 -0.20141441699E+02  0.13657387599E+03  0.00000000000E+00 0.  1.
</event>
<event>
 7    1  0.2651429E-009  0.1641896E+03  0.7561462E-02  0.1184046E+00
         -3   -1    0    0    0  501 -0.00000000000E+00  0.00000000000E+00  0.11736130734E+03  0.11736130734E+03  0.00000000000E+00 0.  1.
          3   -1    0    0  501    0  0.00000000000E+00 -0.00000000000E+00 -0.43326093074E+03  0.43326093074E+03  0.00000000000E+00 0. -1.
         25    2    1    2    0    0  0.73506933585E+02 -0.11324059712E+03  0.12073853044E+02  0.18444474250E+03  0.12508949991E+03 0.  0.
          5    1    3    3  502    0  0.93986975026E+02 -0.11207811937E+03  0.37939742447E+02  0.15116862364E+03  0.41800000000E+01 0.  1.
         -5    1    3    3    0  502 -0.20480041440E+02 -0.11624777457E+01 -0.25865889403E+02  0.33276118862E+02  0.41800000000E+01 0.  1.
        -11    1    1    2    0    0 -0.94044448952E+02  0.91673286727E+02 -0.28598649299E+03  0.31470084851E+03  0.00000000000E+00 0.  1.
         11    1    1    2    0    0  0.20537515367E+02  0.21567310389E+02 -0.41986983455E+02  0.51476647080E+02  0.00000000000E+00 0. -1.
</event>
<event>
 7    1  0.2651429E-009  0.1310930E+03  0.7561462E-02  0.1225843E+00
          2   -1    0    0  501    0  0.00000000000E+00  0.00000000000E+00  0.65538773511E+03  0.65538773511E+03  0.00000000000E+00 0. -1.
         -2   -1    0    0    0  501 -0.00000000000E+00 -0.00000000000E+00 -0.35601853977E+02  0.35601853977E+02  0.00000000000E+00 0.  1.
         25    2    1    2    0    0 -0.92022850536E+02 -0.26872746239E+01  0.20973381678E+03  0.26098092293E+03  0.12508933515E+03 0.  0.
          5    1    3    3  502    0  0.30424124418E+02 -0.48760383620E+01  0.59278040469E+02  0.66938491009E+02  0.41800000000E+01 0. -1.
         -5    1    3    3    0  502 -0.12244697495E+03  0.21887637381E+01  0.15045577631E+03  0.19404243192E+03  0.41800000000E+01 0. -1.
        -11    1    1    2    0    0  0.85555849019E+02 -0.17524651525E+02  0.39355782125E+03  0.40313108958E+03  0.00000000000E+00 0. -1.
         11    1    1    2    0    0  0.64670015169E+01  0.20211926149E+02  0.16494243102E+02  0.26877576580E+02  0.00000000000E+00 0.  1.
</event>
<event>
 7    1  0.2651429E-009  0.8856645E+02  0.7561462E-02  0.1306361E+00
          3   -1    0    0  501    0  0.00000000000E+00  0.00000000000E+00  0.64934748661E+02  0.64934748661E+02  0.00000000000E+00 0. -1.
         -3   -1    0    0    0  501 -0.00000000000E+00 -0.00000000000E+00 -0.23489675257E+03  0.23489675257E+03  0.00000000000E+00 0.  1.
         25    2    1    2    0    0 -0.21719482415E+02 -0.42634920656E+02 -0.60656582020E+02  0.14702023094E+03  0.12508499106E+03 0.  0.
          5    1    3    3  502    0  0.17120432844E+02 -0.75206389032E+01  0.33850396371E+02  0.38897184535E+02  0.41800000000E+01 0.  1.
         -5    1    3    3    0  502 -0.38839915259E+02 -0.35114281753E+02 -0.94506978391E+02  0.10812304641E+03  0.41800000000E+01 0.  1.
        -11    1    1    2    0    0  0.56778369854E+02  0.10206228747E+02 -0.71694815501E+02  0.92022263383E+02  0.00000000000E+00 0.  1.
         11    1    1    2    0    0 -0.35058887439E+02  0.32428691909E+02 -0.37610606387E+02  0.60789006902E+02  0.00000000000E+00 0. -1.
</event>
<event>
 7    1  0.2683010E-009  0.9362758E+02  0.7561462E-02  0.1294297E+00
          2   -1    0    0  501    0  0.00000000000E+00  0.00000000000E+00  0.53966199801E+02  0.53966199801E+02  0.00000000000E+00 0. -1.
         -2   -1    0    0    0  501 -0.00000000000E+00 -0.00000000000E+00 -0.26792182679E+03  0.26792182679E+03  0.00000000000E+00 0.  1.
         25    2    1    2    0    0  0.27083834473E+02  0.17098218464E+02 -0.17169090757E+03  0.21482800583E+03  0.12508965257E+03 0.  0.
          5    1    3    3  502    0  0.40104575294E+02 -0.47288244699E+02 -0.97765116389E+02  0.11584491974E+03  0.41800000000E+01 0.  1.
         -5    1    3    3    0  502 -0.13020740821E+02  0.64386463163E+02 -0.73925791185E+02  0.98983086093E+02  0.41800000000E+01 0.  1.
        -11    1    1    2    0    0 -0.40965971232E+02 -0.19208301917E+02 -0.65680694147E+02  0.79756650163E+02  0.00000000000E+00 0.  1.
         11    1    1    2    0    0  0.13882136759E+02  0.21100834529E+01  0.23415974734E+02  0.27303370596E+02  0.00000000000E+00 0. -1.
</event>
<event>
 7    1  0.2651429E-009  0.1633123E+03  0.7561462E-02  0.1185007E+00
          1   -1    0    0  501    0  0.00000000000E+00  0.00000000000E+00  0.40671820087E+03  0.40671820087E+03  0.00000000000E+00 0. -1.
         -1   -1    0    0    0  501 -0.00000000000E+00 -0.00000000000E+00 -0.96040617084E+02  0.96040617084E+02  0.00000000000E+00 0.  1.
         25    2    1    2    0    0 -0.13792850290E+03  0.83204074783E+02  0.20738260015E+03  0.29086381067E+03  0.12508806313E+03 0.  0.
          5    1    3    3  502    0 -0.12395467144E+03  0.60207849446E+02  0.22095384446E+03  0.26043774590E+03  0.41800000000E+01 0. -1.
         -5    1    3    3    0  502 -0.13973831460E+02  0.22996225338E+02 -0.13571244305E+02  0.30426064771E+02  0.41800000000E+01 0. -1.
        -11    1    1    2    0    0  0.39796577386E+02 -0.17800594008E+02  0.80839920941E+02  0.91846184115E+02  0.00000000000E+00 0.  1.
         11    1    1    2    0    0  0.98131925518E+02 -0.65403480775E+02  0.22455062689E+02  0.12004882317E+03  0.00000000000E+00 0. -1.
</event>
<event>
 7    1  0.2651429E-009  0.1411512E+03  0.7561462E-02  0.1211788E+00
         -3   -1    0    0    0  501 -0.00000000000E+00  0.00000000000E+00  0.69520627921E+02  0.69520627921E+02  0.00000000000E+00 0.  1.
          3   -1    0    0  501    0  0.00000000000E+00 -0.00000000000E+00 -0.49600235740E+03  0.49600235740E+03  0.00000000000E+00 0. -1.
         25    2    1    2    0    0 -0.13228801745E+03  0.17596776758E+02 -0.32726138008E+03  0.37491054228E+03  0.12509251658E+03 0.  0.
          5    1    3    3  502    0 -0.28609738765E+02  0.47360679498E+01  0.20781748035E+01  0.29372413968E+02  0.41800000000E+01 0.  1.
         -5    1    3    3    0  502 -0.10367827869E+03  0.12860708808E+02 -0.32933955489E+03  0.34553812831E+03  0.41800000000E+01 0.  1.
        -11    1    1    2    0    0  0.69670791365E+02  0.23523962705E+02 -0.88297758778E+02  0.11490818159E+03  0.00000000000E+00 0. -1.
         11    1    1    2    0    0  0.62617226086E+02 -0.41120739463E+02 -0.10922590618E+02  0.75704261456E+02  0.00000000000E+00 0.  1.
</event>
<event>
 7    1  0.2651429E-009  0.1144045E+03  0.7561462E-02  0.1252624E+00
          1   -1    0    0  501    0  0.00000000000E+00  0.00000000000E+00  0.61367880055E+03  0.61367880055E+03  0.00000000000E+00 0. -1.
         -1   -1    0    0    0  501 -0.00000000000E+00 -0.00000000000E+00 -0.25377620942E+02  0.25377620942E+02  0.00000000000E+00 0.  1.
         25    2    1    2    0    0  0.47972518447E+02  0.70386558220E+01  0.39920537247E+03  0.42115126696E+03  0.12511017165E+03 0.  0.
          5    1    3    3  502    0 -0.15728527404E+02  0.44306812247E+02  0.25251267414E+03  0.25688636240E+03  0.41800000000E+01 0.  1.
         -5    1    3    3    0  502  0.63701045851E+02 -0.37268156425E+02  0.14669269833E+03  0.16426490456E+03  0.41800000000E+01 0.  1.
        -11    1    1    2    0    0 -0.73818717370E+02  0.13036091368E+02  0.12070470799E+03  0.14208718888E+03  0.00000000000E+00 0.  1.
         11    1    1    2    0    0  0.25846198923E+02 -0.20074747190E+02  0.68391099148E+02  0.75817965655E+02  0.00000000000E+00 0. -1.
</event>
<event>
 7    1  0.2651429E-009  0.2469088E+03  0.7561462E-02  0.1115274E+00
          3   -1    0    0  501    0  0.00000000000E+00  0.00000000000E+00  0.12615671131E+03  0.12615671131E+03  0.00000000000E+00 0. -1.
         -3   -1    0    0    0  501 -0.00000000000E+00 -0.00000000000E+00 -0.49928177311E+03  0.49928177311E+03  0.00000000000E+00 0.  1.
         25    2    1    2    0    0 -0.99463652300E+02 -0.20347157707E+03 -0.18590065763E+03  0.31859079658E+03  0.12508932949E+03 0.  0.
          5    1    3    3  502    0  0.21436085367E+02 -0.63738061234E+02 -0.20133208686E+02  0.70319731923E+02  0.41800000000E+01 0. -1.
         -5    1    3    3    0  502 -0.12089973767E+03 -0.13973351584E+03 -0.16576744895E+03  0.24827106466E+03  0.41800000000E+01 0. -1.
        -11    1    1    2    0    0  0.72260758720E+02  0.55360214271E+02 -0.87272611279E+02  0.12610661860E+03  0.00000000000E+00 0. -1.
         11    1    1    2    0    0  0.27202893580E+02  0.14811136280E+03 -0.99951792891E+02  0.18074106924E+03  0.00000000000E+00 0.  1.
</event>
<event>
 7    1  0.2651429E-009  0.1393326E+03  0.7561462E-02  0.1214230E+00
         -1   -1    0    0    0  501 -0.00000000000E+00  0.00000000000E+00  0.12875015769E+03  0.12875015769E+03  0.00000000000E+00 0.  1.
          1   -1    0    0  501    0  0.00000000000E+00 -0.00000000000E+00 -0.21578374591E+03  0.21578374591E+03  0.00000000000E+00 0. -1.
         25    2    1    2    0    0 -0.81226599309E+02  0.81514697426E+02  0.10988997978E+02  0.17032604768E+03  0.12509115920E+03 0.  0.
          5    1    3    3  502    0 -0.34274664147E+02  0.83226167351E+02 -0.41976062209E+02  0.99402262212E+02  0.41800000000E+01 0. -1.
         -5    1    3    3    0  502 -0.46951935162E+02 -0.17114699252E+01  0.52965060187E+02  0.70923785470E+02  0.41800000000E+01 0. -1.
        -11    1    1    2    0    0  0.98230584830E+02 -0.72929303783E+02 -0.71996580804E+02  0.14195576351E+03  0.00000000000E+00 0.  1.
         11    1    1    2    0    0 -0.17003985521E+02 -0.85853936429E+01 -0.26026005393E+02  0.32252092402E+02  0.00000000000E+00 0. -1.
</event>
<event>
 7    1  0.2651429E-009  0.1112770E+03  0.7561462E-02  0.1258223E+00
          1   -1    0    0  501    0  0.00000000000E+00  0.00000000000E+00  0.65070111894E+02  0.65070111894E+02  0.00000000000E+00 0. -1.
         -1   -1    0    0    0  501 -0.00000000000E+00 -0.00000000000E+00 -0.39978047232E+03  0.39978047232E+03  0.00000000000E+00 0.  1.
         25    2    1    2    0    0  0.54084382845E+02  0.12376904438E+02 -0.27058789725E+02  0.13949015581E+03  0.12508803794E+03 0.  0.
          5    1    3    3  502    0  0.86558473271E+02 -0.21256473208E+02 -0.24263133905E+02  0.92468259501E+02  0.41800000000E+01 0. -1.
         -5    1    3    3    0  502 -0.32474090425E+02  0.33633377646E+02 -0.27956558205E+01  0.47021896307E+02  0.41800000000E+01 0. -1.
        -11    1    1    2    0    0 -0.54959656469E+02  0.16588435501E+02 -0.27812918567E+03  0.28399222516E+03  0.00000000000E+00 0.  1.
         11    1    1    2    0    0  0.87527362350E+00 -0.28965339939E+02 -0.29522385032E+02  0.41368203244E+02  0.00000000000E+00 0. -1.
</event>
<event>
 7    1  0.2651429E-009  0.1501011E+03  0.7561462E-02  0.1200349E+00
         -1   -1    0    0    0  501 -0.00000000000E+00  0.00000000000E+00  0.16608602044E+03  0.16608602044E+03  0.00000000000E+00 0.  1.
          1   -1    0    0  501    0  0.00000000000E+00 -0.00000000000E+00 -0.31205708861E+03  0.31205708861E+03  0.00000000000E+00 0. -1.
         25    2    1    2    0    0  0.73563891470E+02  0.80798144618E+02  0.10003457608E+03  0.19389277679E+03  0.12508999232E+03 0.  0.
          5    1    3    3  502    0  0.12462454032E+02 -0.33739719832E+02  0.21497962888E+02  0.42110761845E+02  0.41800000000E+01 0. -1.
         -5    1    3    3    0  502  0.61101437438E+02  0.11453786445E+03  0.78536613192E+02  0.15178201495E+03  0.41800000000E+01 0. -1.
        -11    1    1    2    0    0  0.63438738771E+01  0.10817842394E+02 -0.35646245550E+01  0.13037522696E+02  0.00000000000E+00 0.  1.
         11    1    1    2    0    0 -0.79907765347E+02 -0.91615987012E+02 -0.24244101969E+03  0.27121280956E+03  0.00000000000E+00 0. -1.
</event>
<event>
 7    1  0.2651429E-009  0.9201718E+02  0.7561462E-02  0.1298039E+00
          1   -1    0    0  501    0  0.00000000000E+00  0.00000000000E+00  0.10733392297E+03  0.10733392297E+03  0.00000000000E+00 0. -1.
         -1   -1    0    0    0  501 -0.00000000000E+00 -0.00000000000E+00 -0.15750715363E+03  0.15750715363E+03  0.00000000000E+00 0.  1.
         25    2    1    2    0    0  0.20050782995E+02  0.69049723050E+02 -0.34442460538E+02  0.14833573089E+03  0.12508919945E+03 0.  0.
          5    1    3    3  502    0 -0.13132159939E+01  0.67903545175E+01 -0.71989536072E+02  0.72441694863E+02  0.41800000000E+01 0. -1.
         -5    1    3    3    0  502  0.21363998989E+02  0.62259368533E+02  0.37547075534E+02  0.75894036024E+02  0.41800000000E+01 0. -1.
        -11    1    1    2    0    0  0.27006444927E+02 -0.54363384130E+02  0.89804789344E+01  0.61362648277E+02  0.00000000000E+00 0.  1.
         11    1    1    2    0    0 -0.47057227922E+02 -0.14686338920E+02 -0.24711249053E+02  0.55142697435E+02  0.00000000000E+00 0. -1.
</event>
<event>
 7    1  0.2651429E-009  0.1100111E+03  0.7561462E-02  0.1260549E+00
         -2   -1    0    0    0  501 -0.00000000000E+00  0.00000000000E+00  0.17170840200E+02  0.17170840200E+02  0.00000000000E+00 0.  1.
          2   -1    0    0  501    0  0.00000000000E+00 -0.00000000000E+00 -0.12664794258E+04  0.12664794258E+04  0.00000000000E+00 0. -1.
         25    2    1    2    0    0 -0.10120953845E+02  0.26997956801E+02 -0.11003819113E+04  0.11078445799E+04  0.12509172242E+03 0.  0.
          5    1    3    3  502    0 -0.51971940485E+02  0.55779938046E+02 -0.72751856586E+03  0.73151433353E+03  0.41800000000E+01 0. -1.
         -5    1    3    3    0  502  0.41850986640E+02 -0.28781981245E+02 -0.37286334545E+03  0.37633024633E+03  0.41800000000E+01 0. -1.
        -11    1    1    2    0    0  0.48379635682E+02 -0.51675857826E+01 -0.67206365792E+02  0.82969805920E+02  0.00000000000E+00 0.  1.
         11    1    1    2    0    0 -0.38258681837E+02 -0.21830371018E+02 -0.81720308509E+02  0.92835880227E+02  0.00000000000E+00 0. -1.
</event>
<event>
 7    1  0.2651429E-009  0.1200030E+03  0.7561462E-02  0.1243092E+00
          3   -1    0    0  501    0  0.00000000000E+00  0.00000000000E+00  0.16714236969E+03  0.16714236969E+03  0.00000000000E+00 0. -1.
         -3   -1    0    0    0  501 -0.00000000000E+00 -0.00000000000E+00 -0.12504142413E+03  0.12504142413E+03  0.00000000000E+00 0.  1.
         25    2    1    2    0    0 -0.27559956547E+02 -0.88006666275E+02 -0.44327995202E+01  0.15547686874E+03  0.12509469409E+03 0.  0.
          5    1    3    3  502    0 -0.16543219049E+02  0.15260058425E+02 -0.39609654566E+02  0.45748711616E+02  0.41800000000E+01 0. -1.
         -5    1    3    3    0  502 -0.11016737498E+02 -0.10326672470E+03  0.35176855046E+02  0.10972815713E+03  0.41800000000E+01 0. -1.
        -11    1    1    2    0    0  0.49319841694E+02  0.58518361693E+02 -0.11852403254E+01  0.76539207172E+02  0.00000000000E+00 0.  1.
         11    1    1    2    0    0 -0.21759885147E+02  0.29488304582E+02  0.47718985408E+02  0.60167717898E+02  0.00000000000E+00 0. -1.
</event>
<event>
 7    1  0.2651429E-009  0.1024598E+03  0.7561462E-02  0.1275207E+00
         -1   -1    0    0    0  501 -0.00000000000E+00  0.00000000000E+00  0.25116568267E+02  0.25116568267E+02  0.00000000000E+00 0.  1.
          1   -1    0    0  501    0  0.00000000000E+00 -0.00000000000E+00 -0.64072558136E+03  0.64072558136E+03  0.00000000000E+00 0. -1.
         25    2    1    2    0    0 -0.12753948857E+02  0.49347582406E+02 -0.46038977473E+03  0.47979665744E+03  0.12509292832E+03 0.  0.
          5    1    3    3  502    0  0.22573431532E+02  0.80967821892E+02 -0.34188325444E+03  0.35208944895E+03  0.41800000000E+01 0. -1.
         -5    1    3    3    0  502 -0.35327380389E+02 -0.31620239486E+02 -0.11850652029E+03  0.12770720849E+03  0.41800000000E+01 0. -1.
        -11    1    1    2    0    0  0.33384654549E+02 -0.30801580038E+02 -0.15136995560E+03  0.15803840024E+03  0.00000000000E+00 0. -1.
         11    1    1    2    0    0 -0.20630705692E+02 -0.18546002368E+02 -0.38492827572E+01  0.28007091940E+02  0.00000000000E+00 0.  1.
</event>
<event>
 7    1  0.2651429E-009  0.1286281E+03  0.7561462E-02  0.1229506E+00
         -2   -1    0    0    0  501 -0.00000000000E+00  0.00000000000E+00  0.42040128743E+02  0.42040128743E+02  0.00000000000E+00 0.  1.
          2   -1    0    0  501    0  0.00000000000E+00 -0.00000000000E+00 -0.55198098823E+03  0.55198098823E+03  0.00000000000E+00 0. -1.
         25    2    1    2    0    0  0.45614548912E+02  0.51576056654E+02 -0.12839795046E+03  0.19202639359E+03  0.12508926996E+03 0.  0.
          5    1    3    3  502    0  0.73249314441E+02  0.67722075636E+02 -0.12438254448E+03  0.15949994159E+03  0.41800000000E+01 0. -1.
         -5    1    3    3    0  502 -0.27634765529E+02 -0.16146018982E+02 -0.40154059852E+01  0.32526452005E+02  0.41800000000E+01 0. -1.
        -11    1    1    2    0    0  0.26168876498E+02  0.12417732749E+02 -0.64899137681E+02  0.71069742194E+02  0.00000000000E+00 0.  1.
         11    1    1    2    0    0 -0.71783425410E+02 -0.63993789403E+02 -0.31664377134E+03  0.33092498119E+03  0.00000000000E+00 0. -1.
</event>
<event>
 7    1  0.2651429E-009  0.2059627E+03  0.7561462E-02  0.1144804E+00
         -4   -1    0    0    0  501 -0.00000000000E+00  0.00000000000E+00  0.35559636932E+02  0.35559636932E+02  0.00000000000E+00 0.  1.
          4   -1    0    0  501    0  0.00000000000E+00 -0.00000000000E+00 -0.12378515137E+04  0.12378515137E+04  0.00000000000E+00 0. -1.
         25    2    1    2    0    0 -0.58573982961E+02  0.16826580390E+03 -0.69266939157E+03  0.72607004792E+03  0.12507012523E+03 0.  0.
          5    1    3    3  502    0  0.83707394771E+01  0.14657639592E+03 -0.44937398611E+03  0.47276755484E+03  0.41800000000E+01 0. -1.
         -5    1    3    3    0  502 -0.66944722439E+02  0.21689407983E+02 -0.24329540546E+03  0.25330249308E+03  0.41800000000E+01 0. -1.
        -11    1    1    2    0    0  0.66484133203E+02 -0.72133489909E+02 -0.19532646398E+03  0.21857677796E+03  0.00000000000E+00 0.  1.
         11    1    1    2    0    0 -0.79101502419E+01 -0.96132313996E+02 -0.31429602118E+03  0.32876432471E+03  0.00000000000E+00 0. -1.
</event>
<event>
 7    1  0.2651429E-009  0.1581550E+03  0.7561462E-02  0.1190796E+00
          2   -1    0    0  501    0  0.00000000000E+00  0.00000000000E+00  0.34380485262E+03  0.34380485262E+03  0.00000000000E+00 0. -1.
         -2   -1    0    0    0  501 -0.00000000000E+00 -0.00000000000E+00 -0.81160982784E+02  0.81160982784E+02  0.00000000000E+00 0.  1.
         25    2    1    2    0    0  0.38235808748E+02  0.11265694482E+03  0.84424202516E+02  0.19216846472E+03  0.12509080132E+03 0.  0.
          5    1    3    3  502    0  0.76588377542E+02  0.10032119456E+03  0.40967516103E+02  0.13276268839E+03  0.41800000000E+01 0. -1.
         -5    1    3    3    0  502 -0.38352568794E+02  0.12335750256E+02  0.43456686412E+02  0.59405776330E+02  0.41800000000E+01 0. -1.
        -11    1    1    2    0    0  0.28646131530E+02 -0.18765568173E+02  0.46656529820E+02  0.57875549028E+02  0.00000000000E+00 0. -1.
         11    1    1    2    0    0 -0.66881940278E+02 -0.93891376643E+02  0.13156313750E+03  0.17492182166E+03  0.00000000000E+00 0.  1.
</event>
<event>
 7    1  0.2651429E-009  0.1520351E+03  0.7561462E-02  0.1197994E+00
          2   -1    0    0  501    0  0.00000000000E+00  0.00000000000E+00  0.45729406075E+03  0.45729406075E+03  0.00000000000E+00 0.  1.
         -2   -1    0    0    0  501 -0.00000000000E+00 -0.00000000000E+00 -0.68758377884E+02  0.68758377884E+02  0.00000000000E+00 0. -1.
         25    2    1    2    0    0 -0.37322672376E+02  0.99778589758E+02  0.33979791097E+03  0.37743754143E+03  0.12509088110E+03 0.  0.
          5    1    3    3  502    0 -0.34752808372E+02  0.12919553693E+03  0.28983086843E+03  0.31924700335E+03  0.41800000000E+01 0.  1.
         -5    1    3    3    0  502 -0.25698640046E+01 -0.29416947173E+02  0.49967042549E+02  0.58190538088E+02  0.41800000000E+01 0.  1.
        -11    1    1    2    0    0  0.20711781884E+02  0.14263438944E+02  0.90694695091E+01  0.26733478571E+02  0.00000000000E+00 0. -1.
         11    1    1    2    0    0  0.16610890492E+02 -0.11404202870E+03  0.39668302383E+02  0.12188141863E+03  0.00000000000E+00 0.  1.
</event>
<event>
 7    1  0.2651429E-009  0.1157994E+03  0.7561462E-02  0.1250192E+00
          4   -1    0    0  501    0  0.00000000000E+00  0.00000000000E+00  0.57508156500E+03  0.57508156500E+03  0.00000000000E+00 0. -1.
         -4   -1    0    0    0  501 -0.00000000000E+00 -0.00000000000E+00 -0.36408198239E+02  0.36408198239E+02  0.00000000000E+00 0.  1.
         25    2    1    2    0    0 -0.36965231532E+02 -0.90275875339E+02  0.28363682258E+03  0.32498378651E+03  0.12509377426E+03 0.  0.
          5    1    3    3  502    0  0.14962914852E+02 -0.26322754854E+02  0.21644966113E+03  0.21859712818E+03  0.41800000000E+01 0. -1.
         -5    1    3    3    0  502 -0.51928146384E+02 -0.63953120484E+02  0.67187161450E+02  0.10638665833E+03  0.41800000000E+01 0. -1.
        -11    1    1    2    0    0  0.34229663122E+02  0.66417242141E+01  0.13986046440E+03  0.14414136062E+03  0.00000000000E+00 0. -1.
         11    1    1    2    0    0  0.27355684101E+01  0.83634151124E+02  0.11517607978E+03  0.14236461612E+03  0.00000000000E+00 0.  1.
</event>
<event>
 7    1  0.2651429E-009  0.1251371E+03  0.7561462E-02  0.1234855E+00
         -2   -1    0    0    0  501 -0.00000000000E+00  0.00000000000E+00  0.41179659276E+03  0.41179659276E+03  0.00000000000E+00 0.  1.
          2   -1    0    0  501    0  0.00000000000E+00 -0.00000000000E+00 -0.43804145713E+02  0.43804145713E+02  0.00000000000E+00 0. -1.
         25    2    1    2    0    0 -0.62904407671E+02  0.12557378962E+02  0.13218388557E+03  0.19296428280E+03  0.12509189647E+03 0.  0.
          5    1    3    3  502    0 -0.85333846548E+02 -0.27936067418E+02  0.63589677125E+02  0.11010635162E+03  0.41800000000E+01 0. -1.
         -5    1    3    3    0  502  0.22429438877E+02  0.40493446380E+02  0.68594208446E+02  0.82857931186E+02  0.41800000000E+01 0. -1.
        -11    1    1    2    0    0 -0.16439416401E+02 -0.28572187110E+02  0.49123495026E+02  0.59158617727E+02  0.00000000000E+00 0. -1.
         11    1    1    2    0    0  0.79343824072E+02  0.16014808148E+02  0.18668506645E+03  0.20347783795E+03  0.00000000000E+00 0.  1.
</event>
<event>
 7    1  0.2651429E-009  0.1305629E+03  0.7561462E-02  0.1226623E+00
         -3   -1    0    0    0  501 -0.00000000000E+00  0.00000000000E+00  0.15560827437E+03  0.15560827437E+03  0.00000000000E+00 0.  1.
          3   -1    0    0  501    0  0.00000000000E+00 -0.00000000000E+00 -0.15723463432E+03  0.15723463432E+03  0.00000000000E+00 0. -1.
         25    2    1    2    0    0 -0.20123475660E+02  0.99061794423E+02  0.51266841946E+02  0.16879727191E+03  0.12508411784E+03 0.  0.
          5    1    3    3  502    0  0.24343648793E+02  0.57697413561E+01 -0.28519902527E+02  0.38167530599E+02  0.41800000000E+01 0.  1.
         -5    1    3    3    0  502 -0.44467124454E+02  0.93292053067E+02  0.79786744473E+02  0.13062974132E+03  0.41800000000E+01 0.  1.
        -11    1    1    2    0    0 -0.30340757159E+02 -0.13979383351E+02 -0.38324512120E+01  0.33625472282E+02  0.00000000000E+00 0.  1.
         11    1    1    2    0    0  0.50464232820E+02 -0.85082411072E+02 -0.49060750681E+02  0.11042016449E+03  0.00000000000E+00 0. -1.
</event>
<event>
 7    1  0.2651429E-009  0.1403650E+03  0.7561462E-02  0.1212839E+00
          1   -1    0    0  501    0  0.00000000000E+00  0.00000000000E+00  0.87827572876E+03  0.87827572876E+03  0.00000000000E+00 0. -1.
         -1   -1    0    0    0  501 -0.00000000000E+00 -0.00000000000E+00 -0.22512257123E+02  0.22512257123E+02  0.00000000000E+00 0.  1.
         25    2    1    2    0    0  0.63995577952E+02 -0.62601525119E+02  0.48053196923E+03  0.50454537352E+03  0.12506268643E+03 0.  0.
          5    1    3    3  502    0  0.23169110374E+00 -0.85471270946E+02  0.28495395091E+03  0.29752582808E+03  0.41800000000E+01 0.  1.
         -5    1    3    3    0  502  0.63763886848E+02  0.22869745827E+02  0.19557801833E+03  0.20701954544E+03  0.41800000000E+01 0.  1.
        -11    1    1    2    0    0 -0.93248737946E+01  0.71318080360E+02  0.21630513051E+03  0.22794984392E+03  0.00000000000E+00 0. -1.
         11    1    1    2    0    0 -0.54670704158E+02 -0.87165552408E+01  0.15892637190E+03  0.16829276845E+03  0.00000000000E+00 0.  1.
</event>
<event>
 7    1  0.2651429E-009  0.1099811E+03  0.7561462E-02  0.1260605E+00
         -1   -1    0    0    0  501 -0.00000000000E+00  0.00000000000E+00  0.39988625745E+02  0.39988625745E+02  0.00000000000E+00 0.  1.
          1   -1    0    0  501    0  0.00000000000E+00 -0.00000000000E+00 -0.54182772594E+03  0.54182772594E+03  0.00000000000E+00 0. -1.
         25    2    1    2    0    0 -0.86479994142E+02  0.48408323940E+02 -0.24038284267E+03  0.28853694597E+03  0.12508997932E+03 0.  0.
          5    1    3    3  502    0 -0.82085529502E+02  0.49721173425E+02 -0.25508813342E+03  0.27257596638E+03  0.41800000000E+01 0.  1.
         -5    1    3    3    0  502 -0.43944646406E+01 -0.13128494845E+01  0.14705290750E+02  0.15960979584E+02  0.41800000000E+01 0.  1.
        -11    1    1    2    0    0  0.83345996918E+02 -0.15668027435E+02 -0.23861142086E+03  0.25323398755E+03  0.00000000000E+00 0. -1.
         11    1    1    2    0    0  0.31339972242E+01 -0.32740296505E+02 -0.22844836673E+02  0.40045418171E+02  0.00000000000E+00 0.  1.
</event>
<event>
 7    1  0.2651429E-009  0.1174412E+03  0.7561462E-02  0.1247379E+00
         -2   -1    0    0    0  501 -0.00000000000E+00  0.00000000000E+00  0.21535561462E+02  0.21535561462E+02  0.00000000000E+00 0.  1.
          2   -1    0    0  501    0  0.00000000000E+00 -0.00000000000E+00 -0.13060464751E+04  0.13060464751E+04  0.00000000000E+00 0. -1.
         25    2    1    2    0    0 -0.54257489338E+01  0.12889315974E+02 -0.10687088546E+04  0.10760954984E+04  0.12508929849E+03 0.  0.
          5    1    3    3  502    0 -0.23165864486E+02  0.61123168010E+02 -0.39287681738E+03  0.39829934092E+03  0.41800000000E+01 0. -1.
         -5    1    3    3    0  502  0.17740115552E+02 -0.48233852036E+02 -0.67583203725E+03  0.67779615752E+03  0.41800000000E+01 0. -1.
        -11    1    1    2    0    0 -0.19940955428E+02  0.47935702913E+02 -0.46077211833E+02  0.69416012328E+02  0.00000000000E+00 0.  1.
         11    1    1    2    0    0  0.25366704361E+02 -0.60825018887E+02 -0.16972484721E+03  0.18207052582E+03  0.00000000000E+00 0. -1.
</event>
<event>
 7    1  0.2651429E-009  0.8579355E+02  0.7561462E-02  0.1313370E+00
         -3   -1    0    0    0  501 -0.00000000000E+00  0.00000000000E+00  0.35409891218E+03  0.35409891218E+03  0.00000000000E+00 0.  1.
          3   -1    0    0  501    0  0.00000000000E+00 -0.00000000000E+00 -0.95219462312E+02  0.95219462312E+02  0.00000000000E+00 0. -1.
         25    2    1    2    0    0 -0.73688519325E+02 -0.42162846263E+02 -0.12316147168E+02  0.15168489526E+03  0.12509562935E+03 0.  0.
          5    1    3    3  502    0 -0.18772333687E+02 -0.39767213806E+01 -0.64068275764E+02  0.67010679629E+02  0.41800000000E+01 0.  1.
         -5    1    3    3    0  502 -0.54916185637E+02 -0.38186124882E+02  0.51752128596E+02  0.84674215631E+02  0.41800000000E+01 0.  1.
        -11    1    1    2    0    0  0.49873465586E+02  0.29780812446E+02  0.26333338028E+03  0.26966410315E+03  0.00000000000E+00 0.  1.
         11    1    1    2    0    0  0.23815053738E+02  0.12382033817E+02  0.78622167552E+01  0.27969376080E+02  0.00000000000E+00 0. -1.
</event>
<event>
 7    1  0.2651429E-009  0.9391352E+02  0.7561462E-02  0.1293642E+00
         -1   -1    0    0    0  501 -0.00000000000E+00  0.00000000000E+00  0.22026648869E+02  0.22026648869E+02  0.00000000000E+00 0.  1.
          1   -1    0    0  501    0  0.00000000000E+00 -0.00000000000E+00 -0.81935085627E+03  0.81935085627E+03  0.00000000000E+00 0. -1.
         25    2    1    2    0    0 -0.36808270049E+01  0.77635821851E+02 -0.38684758971E+03  0.41393198766E+03  0.12509102053E+03 0.  0.
          5    1    3    3  502    0 -0.62898176508E+01  0.28523740130E+01 -0.29622052452E+03  0.29633050702E+03  0.41800000000E+01 0.  1.
         -5    1    3    3    0  502  0.26089906459E+01  0.74783447838E+02 -0.90627065189E+02  0.11760148063E+03  0.41800000000E+01 0.  1.
        -11    1    1    2    0    0 -0.33023170513E+02 -0.44077339096E+02 -0.31514310122E+03  0.31991954592E+03  0.00000000000E+00 0.  1.
         11    1    1    2    0    0  0.36703997518E+02 -0.33558482755E+02 -0.95333516464E+02  0.10752597156E+03  0.00000000000E+00 0. -1.
</event>
<event>
 7    1  0.2651429E-009  0.1358464E+03  0.7561462E-02  0.1219030E+00
          2   -1    0    0  501    0  0.00000000000E+00  0.00000000000E+00  0.25985698188E+03  0.25985698188E+03  0.00000000000E+00 0. -1.
         -2   -1    0    0    0  501 -0.00000000000E+00 -0.00000000000E+00 -0.90200959773E+02  0.90200959773E+02  0.00000000000E+00 0.  1.
         25    2    1    2    0    0  0.40237708120E+02  0.99897728473E+02  0.11913401383E+03  0.20356487044E+03  0.12508842440E+03 0.  0.
          5    1    3    3  502    0  0.80383960886E+02  0.73387703508E+02  0.51567998072E+02  0.12051583721E+03  0.41800000000E+01 0. -1.
         -5    1    3    3    0  502 -0.40146252767E+02  0.26510024965E+02  0.67566015759E+02  0.83049033230E+02  0.41800000000E+01 0. -1.
        -11    1    1    2    0    0 -0.86514088624E+01 -0.71438326173E+02 -0.98723823804E+01  0.72634325601E+02  0.00000000000E+00 0. -1.
         11    1    1    2    0    0 -0.31586299257E+02 -0.28459402300E+02  0.60394390654E+02  0.73858745606E+02  0.00000000000E+00 0.  1.
</event>
<event>
 7    1  0.2651429E-009  0.1235537E+03  0.7561462E-02  0.1237347E+00
          2   -1    0    0  501    0  0.00000000000E+00  0.00000000000E+00  0.10512559291E+04  0.10512559291E+04  0.00000000000E+00 0. -1.
         -2   -1    0    0    0  501 -0.00000000000E+00 -0.00000000000E+00 -0.17138945227E+02  0.17138945227E+02  0.00000000000E+00 0.  1.
         25    2    1    2    0    0  0.70930427506E+02 -0.28775584058E+02  0.46154274874E+03  0.48428241013E+03  0.12509430068E+03 0.  0.
          5    1    3    3  502    0  0.69629622367E+02 -0.65338637051E+02  0.40964820099E+03  0.42065014297E+03  0.41800000000E+01 0. -1.
         -5    1    3    3    0  502  0.13008051388E+01  0.36563052992E+02  0.51894547746E+02  0.63632267160E+02  0.41800000000E+01 0. -1.
        -11    1    1    2    0    0 -0.82419454707E+02 -0.13857906126E+01  0.44096723693E+03  0.44860560738E+03  0.00000000000E+00 0.  1.
         11    1    1    2    0    0  0.11489027201E+02  0.30161374671E+02  0.13160699824E+03  0.13550685685E+03  0.00000000000E+00 0. -1.
</event>
<event>
 7    1  0.2651429E-009  0.1987926E+03  0.7561462E-02  0.1150762E+00
         -1   -1    0    0    0  501 -0.00000000000E+00  0.00000000000E+00  0.49457420014E+02  0.49457420014E+02  0.00000000000E+00 0.  1.
          1   -1    0    0  501    0  0.00000000000E+00 -0.00000000000E+00 -0.88279817528E+03  0.88279817528E+03  0.00000000000E+00 0. -1.
         25    2    1    2    0    0  0.17767014355E+03 -0.36034662077E+01 -0.44714878854E+03  0.49716101330E+03  0.12508944468E+03 0.  0.
          5    1    3    3  502    0  0.12688806094E+03 -0.52084996431E+02 -0.35938172483E+03  0.38468964556E+03  0.41800000000E+01 0.  1.
         -5    1    3    3    0  502  0.50782082619E+02  0.48481530223E+02 -0.87767063712E+02  0.11247136774E+03  0.41800000000E+01 0.  1.
        -11    1    1    2    0    0 -0.69821222430E+02 -0.31514197933E+02 -0.91525739829E+02  0.11935287522E+03  0.00000000000E+00 0.  1.
         11    1    1    2    0    0 -0.10784892112E+03  0.35117664141E+02 -0.29466622690E+03  0.31574170677E+03  0.00000000000E+00 0. -1.
</event>
<event>
 6    1  0.2651429E-009  0.1072251E+03  0.7561462E-02  0.1265797E+00
          1   -1    0    0  501    0  0.00000000000E+00  0.00000000000E+00  0.43937028469E+03  0.43937028469E+03  0.00000000000E+00 0. -1.
         -1   -1    0    0    0  501 -0.00000000000E+00 -0.00000000000E+00 -0.27319557898E+02  0.27319557898E+02  0.00000000000E+00 0.  1.
          5    1    1    2  502    0 -0.48682108681E+02 -0.24399061063E+02  0.68657733003E+02  0.87730374372E+02  0.41800000000E+01 0.  1.
         -5    1    1    2    0  502  0.64699614176E+02  0.23429242130E+02  0.14142095329E+03  0.15732872558E+03  0.41800000000E+01 0.  1.
        -11    1    1    2    0    0  0.21207379770E+02  0.34697794570E+02  0.80698101841E+02  0.90365223097E+02  0.00000000000E+00 0.  1.
         11    1    1    2    0    0 -0.37224885266E+02 -0.33727975636E+02  0.12127393865E+03  0.13126551954E+03  0.00000000000E+00 0. -1.
</event>
<event>
 7    1  0.2651429E-009  0.9933957E+02  0.7561462E-02  0.1281691E+00
          4   -1    0    0  501    0  0.00000000000E+00  0.00000000000E+00  0.17273076879E+02  0.17273076879E+02  0.00000000000E+00 0. -1.
         -4   -1    0    0    0  501 -0.00000000000E+00 -0.00000000000E+00 -0.84314467107E+03  0.84314467107E+03  0.00000000000E+00 0.  1.
         25    2    1    2    0    0  0.28145591836E+02  0.46364792515E+01 -0.62302082325E+03  0.63609463915E+03  0.12509105673E+03 0.  0.
          5    1    3    3  502    0  0.92783547220E+01  0.61397035610E+02 -0.41371406923E+03  0.41836884125E+03  0.41800000000E+01 0.  1.
         -5    1    3    3    0  502  0.18867237114E+02 -0.56760556358E+02 -0.20930675402E+03  0.21772579790E+03  0.41800000000E+01 0.  1.
        -11    1    1    2    0    0 -0.52233608542E+02 -0.23167369793E+01 -0.60640858262E+02  0.80068912958E+02  0.00000000000E+00 0. -1.
         11    1    1    2    0    0  0.24088016707E+02 -0.23197422722E+01 -0.14220991268E+03  0.14425419584E+03  0.00000000000E+00 0.  1.
</event>
<event>
 7    1  0.2651429E-009  0.6522382E+02  0.7561462E-02  0.1377132E+00
         -3   -1    0    0    0  501 -0.00000000000E+00  0.00000000000E+00  0.11190672798E+03  0.11190672798E+03  0.00000000000E+00 0.  1.
          3   -1    0    0  501    0  0.00000000000E+00 -0.00000000000E+00 -0.10796461538E+03  0.10796461538E+03  0.00000000000E+00 0. -1.
         25    2    1    2    0    0 -0.74058528941E+01  0.17239279636E+02 -0.18828437420E+01  0.12650256423E+03  0.12508922510E+03 0.  0.
          5    1    3    3  502    0  0.22476316638E+02  0.26140796367E+02 -0.54837238348E+02  0.64908559944E+02  0.41800000000E+01 0.  1.
         -5    1    3    3    0  502 -0.29882169532E+02 -0.89015167315E+01  0.52954394606E+02  0.61594004288E+02  0.41800000000E+01 0.  1.
        -11    1    1    2    0    0 -0.25873008947E+02  0.17744735735E+01  0.36153535226E+02  0.44493139446E+02  0.00000000000E+00 0.  1.
         11    1    1    2    0    0  0.33278861841E+02 -0.19013753209E+02 -0.30328578884E+02  0.48875639675E+02  0.00000000000E+00 0. -1.
</event>
<event>
 7    1  0.2651429E-009  0.9653162E+02  0.7561462E-02  0.1287763E+00
         -1   -1    0    0    0  501 -0.00000000000E+00  0.00000000000E+00  0.54114391844E+02  0.54114391844E+02  0.00000000000E+00 0.  1.
          1   -1    0    0  501    0  0.00000000000E+00 -0.00000000000E+00 -0.34914560321E+03  0.34914560321E+03  0.00000000000E+00 0. -1.
         25    2    1    2    0    0  0.29468590112E+02 -0.54393855239E+02 -0.80402416199E+02  0.16105690989E+03  0.12509072869E+03 0.  0.
          5    1    3    3  502    0 -0.57859011114E+01 -0.48026762446E+02 -0.10615949772E+03  0.11673627508E+03  0.41800000000E+01 0. -1.
         -5    1    3    3    0  502  0.35254491223E+02 -0.63670927923E+01  0.25757081521E+02  0.44320634816E+02  0.41800000000E+01 0. -1.
        -11    1    1    2    0    0 -0.53198777365E+02  0.63663407539E+02 -0.18723971336E+03  0.20479709381E+03  0.00000000000E+00 0.  1.
         11    1    1    2    0    0  0.23730187253E+02 -0.92695523003E+01 -0.27389081809E+02  0.37405991355E+02  0.00000000000E+00 0. -1.
</event>
<event>
 7    1  0.2651429E-009  0.1339636E+03  0.7561462E-02  0.1221690E+00
         -1   -1    0    0    0  501 -0.00000000000E+00  0.00000000000E+00  0.24964548787E+02  0.24964548787E+02  0.00000000000E+00 0.  1.
          1   -1    0    0  501    0  0.00000000000E+00 -0.00000000000E+00 -0.14756541533E+04  0.14756541533E+04  0.00000000000E+00 0. -1.
         25    2    1    2    0    0 -0.59429453214E+02 -0.74705132477E+02 -0.12513308761E+04  0.12611854371E+04  0.12508808295E+03 0.  0.
          5    1    3    3  502    0 -0.17704851865E+02 -0.10371894698E+03 -0.90867055227E+03  0.91475172955E+03  0.41800000000E+01 0.  1.
         -5    1    3    3    0  502 -0.41724601349E+02  0.29013814506E+02 -0.34266032384E+03  0.34643370754E+03  0.41800000000E+01 0.  1.
        -11    1    1    2    0    0  0.69912550007E+00  0.46456509356E+02 -0.15180896651E+03  0.15875975041E+03  0.00000000000E+00 0. -1.
         11    1    1    2    0    0  0.58730327714E+02  0.28248623120E+02 -0.47549761929E+02  0.80673514619E+02  0.00000000000E+00 0.  1.
</event>
<event>
 7    1  0.2651429E-009  0.1176415E+03  0.7561462E-02  0.1247039E+00
         -2   -1    0    0    0  501 -0.00000000000E+00  0.00000000000E+00  0.21239051172E+03  0.21239051172E+03  0.00000000000E+00 0. -1.
          2   -1    0    0  501    0  0.00000000000E+00 -0.00000000000E+00 -0.92911576653E+02  0.92911576653E+02  0.00000000000E+00 0.  1.
         25    2    1    2    0    0  0.44925775872E+02 -0.73767358734E+02  0.45975709814E+02  0.15881163360E+03  0.12508964994E+03 0.  0.
          5    1    3    3  502    0  0.19394184092E+02 -0.95737925541E+02  0.67328694071E+02  0.11871187897E+03  0.41800000000E+01 0. -1.
         -5    1    3    3    0  502  0.25531591779E+02  0.21970566806E+02 -0.21352984257E+02  0.40099754629E+02  0.41800000000E+01 0. -1.
        -11    1    1    2    0    0 -0.30809472206E+02  0.24926891116E+01 -0.12989692281E+02  0.33528632274E+02  0.00000000000E+00 0.  1.
         11    1    1    2    0    0 -0.14116303666E+02  0.71274669623E+02  0.86492917531E+02  0.11296182250E+03  0.00000000000E+00 0. -1.
</event>
<event>
 7    1  0.2651429E-009  0.8517956E+02  0.7561462E-02  0.1314964E+00
         -1   -1    0    0    0  501 -0.00000000000E+00  0.00000000000E+00  0.73925892576E+02  0.73925892576E+02  0.00000000000E+00 0.  1.
          1   -1    0    0  501    0  0.00000000000E+00 -0.00000000000E+00 -0.19485505438E+03  0.19485505438E+03  0.00000000000E+00 0. -1.
         25    2    1    2    0    0  0.66906244391E-01  0.40388009262E+02 -0.32021270592E+02  0.13529343945E+03  0.12509099576E+03 0.  0.
          5    1    3    3  502    0 -0.23742468512E+02  0.78058155671E+02 -0.26138455961E+01  0.81737904711E+02  0.41800000000E+01 0. -1.
         -5    1    3    3    0  502  0.23809374756E+02 -0.37670146408E+02 -0.29407424996E+02  0.53555534743E+02  0.41800000000E+01 0. -1.
        -11    1    1    2    0    0 -0.84741107778E+01 -0.24569337541E+02 -0.10575162092E+03  0.10889843079E+03  0.00000000000E+00 0. -1.
         11    1    1    2    0    0  0.84072045334E+01 -0.15818671722E+02  0.16843729710E+02  0.24589076714E+02  0.00000000000E+00 0.  1.
</event>
<event>
 7    1  0.3280821E-009  0.8843991E+02  0.7561462E-02  0.1306674E+00
         -3   -1    0    0    0  501 -0.00000000000E+00  0.00000000000E+00  0.44081656122E+02  0.44081656122E+02  0.00000000000E+00 0.  1.
          3   -1    0    0  501    0  0.00000000000E+00 -0.00000000000E+00 -0.30241355567E+03  0.30241355567E+03  0.00000000000E+00 0. -1.
         25    2    1    2    0    0 -0.77803524426E+01 -0.25211300202E+02 -0.10347505379E+03  0.16446181212E+03  0.12507780517E+03 0.  0.
          5    1    3    3  502    0 -0.58448417700E+02  0.42922522202E+01 -0.19396873847E+02  0.61873678376E+02  0.41800000000E+01 0.  1.
         -5    1    3    3    0  502  0.50668065257E+02 -0.29503552422E+02 -0.84078179946E+02  0.10258813375E+03  0.41800000000E+01 0.  1.
        -11    1    1    2    0    0  0.29614450919E+02  0.59020868112E+01 -0.14934768014E+03  0.15236987857E+03  0.00000000000E+00 0. -1.
         11    1    1    2    0    0 -0.21834098476E+02  0.19309213390E+02 -0.55091656085E+01  0.29663521095E+02  0.00000000000E+00 0.  1.
</event>
<event>
 7    1  0.2651429E-009  0.1093055E+03  0.7561462E-02  0.1261861E+00
         -4   -1    0    0    0  501 -0.00000000000E+00  0.00000000000E+00  0.10051193362E+03  0.10051193362E+03  0.00000000000E+00 0.  1.
          4   -1    0    0  501    0  0.00000000000E+00 -0.00000000000E+00 -0.14910702080E+03  0.14910702080E+03  0.00000000000E+00 0. -1.
         25    2    1    2    0    0 -0.11929580246E+02 -0.47611910623E+02 -0.58142646101E+02  0.14641534490E+03  0.12509067514E+03 0.  0.
          5    1    3    3  502    0 -0.62876070414E+02 -0.54937551265E+01 -0.88894960008E+01  0.63875481331E+02  0.41800000000E+01 0. -1.
         -5    1    3    3    0  502  0.50946490168E+02 -0.42118155496E+02 -0.49253150101E+02  0.82539863567E+02  0.41800000000E+01 0. -1.
        -11    1    1    2    0    0  0.32716093451E+02  0.57460418853E+02 -0.16806088189E+02  0.68223801607E+02  0.00000000000E+00 0. -1.
         11    1    1    2    0    0 -0.20786513205E+02 -0.98485082305E+01  0.26353647106E+02  0.34979807909E+02  0.00000000000E+00 0.  1.
</event>
<event>
 7    1  0.2651429E-009  0.1059234E+03  0.7561462E-02  0.1268311E+00
          1   -1    0    0  501    0  0.00000000000E+00  0.00000000000E+00  0.50429722971E+03  0.50429722971E+03  0.00000000000E+00 0. -1.
         -1   -1    0    0    0  501 -0.00000000000E+00 -0.00000000000E+00 -0.27744264677E+02  0.27744264677E+02  0.00000000000E+00 0.  1.
         25    2    1    2    0    0 -0.11037038063E+02 -0.23995320589E+02  0.17838291248E+03  0.21946215647E+03  0.12508230505E+03 0.  0.
          5    1    3    3  502    0 -0.66620544458E+02 -0.86639271372E+01  0.11812575939E+03  0.13595781702E+03  0.41800000000E+01 0. -1.
         -5    1    3    3    0  502  0.55583506395E+02 -0.15331393452E+02  0.60257153096E+02  0.83504339454E+02  0.41800000000E+01 0. -1.
        -11    1    1    2    0    0  0.19520585560E+02 -0.27949736674E+02  0.18025630808E+03  0.18345184012E+03  0.00000000000E+00 0. -1.
         11    1    1    2    0    0 -0.84835474965E+01  0.51945057263E+02  0.11791374447E+03  0.12912749780E+03  0.00000000000E+00 0.  1.
</event>
<event>
 7    1  0.2651429E-009  0.1384422E+03  0.7561462E-02  0.1215441E+00
          2   -1    0    0  501    0  0.00000000000E+00  0.00000000000E+00  0.56947820358E+03  0.56947820358E+03  0.00000000000E+00 0. -1.
         -2   -1    0    0    0  501 -0.00000000000E+00 -0.00000000000E+00 -0.45127291105E+02  0.45127291105E+02  0.00000000000E+00 0.  1.
         25    2    1    2    0    0 -0.95919209495E+02 -0.21362897862E+02  0.40814099041E+03  0.43804536656E+03  0.12509119456E+03 0.  0.
          5    1    3    3  502    0 -0.67997493709E+02  0.46631497866E+02  0.17379543773E+03  0.19240707451E+03  0.41800000000E+01 0.  1.
         -5    1    3    3    0  502 -0.27921715786E+02 -0.67994395728E+02  0.23434555268E+03  0.24563829205E+03  0.41800000000E+01 0.  1.
        -11    1    1    2    0    0  0.11296391224E+02  0.33373810813E+02  0.72393657333E+02  0.80512491732E+02  0.00000000000E+00 0. -1.
         11    1    1    2    0    0  0.84622818272E+02 -0.12010912950E+02  0.43816264736E+02  0.96047636398E+02  0.00000000000E+00 0.  1.
</event>
<event>
 7    1  0.2651429E-009  0.1527612E+03  0.7561462E-02  0.1197121E+00
         -3   -1    0    0    0  501 -0.00000000000E+00  0.00000000000E+00  0.95729635965E+02  0.95729635965E+02  0.00000000000E+00 0.  1.
          3   -1    0    0  501    0  0.00000000000E+00 -0.00000000000E+00 -0.41550748245E+03  0.41550748245E+03  0.00000000000E+00 0. -1.
         25    2    1    2    0    0  0.10085292040E+03  0.82913471754E+02 -0.30812503511E+03  0.35725910368E+03  0.12508826702E+03 0.  0.
          5    1    3    3  502    0  0.87547377518E+01  0.77792653737E+02 -0.20148655570E+03  0.21620047857E+03  0.41800000000E+01 0.  1.
         -5    1    3    3    0  502  0.92098182647E+02  0.51208180174E+01 -0.10663847942E+03  0.14105862511E+03  0.41800000000E+01 0.  1.
        -11    1    1    2    0    0 -0.42310369575E+02 -0.14446028746E+02 -0.39531741344E+02  0.59679256813E+02  0.00000000000E+00 0. -1.
         11    1    1    2    0    0 -0.58542550823E+02 -0.68467443009E+02  0.27878929976E+02  0.94298757922E+02  0.00000000000E+00 0.  1.
</event>
<event>
 7    1  0.2651429E-009  0.1635523E+03  0.7561462E-02  0.1184744E+00
          4   -1    0    0  501    0  0.00000000000E+00  0.00000000000E+00  0.54297576910E+02  0.54297576910E+02  0.00000000000E+00 0. -1.
         -4   -1    0    0    0  501 -0.00000000000E+00 -0.00000000000E+00 -0.60071346525E+03  0.60071346525E+03  0.00000000000E+00 0.  1.
         25    2    1    2    0    0  0.11130201674E+03 -0.75262735889E+02 -0.19083501968E+03  0.26479586914E+03  0.12508488811E+03 0.  0.
          5    1    3    3  502    0  0.43712850025E+02  0.33137259141E+02 -0.46781373491E+02  0.72213991071E+02  0.41800000000E+01 0.  1.
         -5    1    3    3    0  502  0.67589166711E+02 -0.10839999503E+03 -0.14405364619E+03  0.19258187807E+03  0.41800000000E+01 0.  1.
        -11    1    1    2    0    0 -0.10013904565E+03  0.40937261938E+02 -0.32620757526E+03  0.34367873084E+03  0.00000000000E+00 0.  1.
         11    1    1    2    0    0 -0.11162971087E+02  0.34325473951E+02 -0.29373293401E+02  0.46536442179E+02  0.00000000000E+00 0. -1.
</event>
<event>
 7    1  0.2651429E-009  0.1171935E+03  0.7561462E-02  0.1247800E+00
          1   -1    0    0  501    0  0.00000000000E+00  0.00000000000E+00  0.95350500090E+03  0.95350500090E+03  0.00000000000E+00 0. -1.
         -1   -1    0    0    0  501 -0.00000000000E+00 -0.00000000000E+00 -0.16908671858E+02  0.16908671858E+02  0.00000000000E+00 0.  1.
         25    2    1    2    0    0 -0.42086367050E+02 -0.18653423109E+02  0.70614086214E+03  0.71861036021E+03  0.12508685033E+03 0.  0.
          5    1    3    3  502    0  0.37527550700E+02 -0.35117602256E+02  0.25007050432E+03  0.25533173046E+03  0.41800000000E+01 0. -1.
         -5    1    3    3    0  502 -0.79613917750E+02  0.16464179147E+02  0.45607035783E+03  0.46327862975E+03  0.41800000000E+01 0. -1.
        -11    1    1    2    0    0 -0.26892026661E+02 -0.70546583481E+01  0.59705869789E+02  0.65861522831E+02  0.00000000000E+00 0. -1.
         11    1    1    2    0    0  0.68978393711E+02  0.25708081457E+02  0.17074959711E+03  0.18594178972E+03  0.00000000000E+00 0.  1.
</event>
<event>
 7    1  0.2651429E-009  0.1020242E+03  0.7561462E-02  0.1276096E+00
         -2   -1    0    0    0  501 -0.00000000000E+00  0.00000000000E+00  0.66013157272E+02  0.66013157272E+02  0.00000000000E+00 0.  1.
          2   -1    0    0  501    0  0.00000000000E+00 -0.00000000000E+00 -0.22280721949E+03  0.22280721949E+03  0.00000000000E+00 0. -1.
         25    2    1    2    0    0  0.32990858752E+02 -0.43155956702E+02 -0.88511233026E+02  0.16258826387E+03  0.12509944771E+03 0.  0.
          5    1    3    3  502    0 -0.53034656534E+01  0.23619278848E+02 -0.81567275882E+02  0.85186207663E+02  0.41800000000E+01 0. -1.
         -5    1    3    3    0  502  0.38294324406E+02 -0.66775235550E+02 -0.69439571437E+01  0.77402056208E+02  0.41800000000E+01 0. -1.
        -11    1    1    2    0    0 -0.25791844647E+02  0.69999960133E+02 -0.63633750492E+02  0.98053392958E+02  0.00000000000E+00 0. -1.
         11    1    1    2    0    0 -0.71990141053E+01 -0.26844003431E+02 -0.46490787015E+01  0.28178719933E+02  0.00000000000E+00 0.  1.
</event>
<event>
 7    1  0.2651429E-009  0.1206429E+03  0.7561462E-02  0.1242040E+00
         -2   -1    0    0    0  501 -0.00000000000E+00  0.00000000000E+00  0.78463160318E+02  0.78463160318E+02  0.00000000000E+00 0.  1.
          2   -1    0    0  501    0  0.00000000000E+00 -0.00000000000E+00 -0.19120114040E+03  0.19120114040E+03  0.00000000000E+00 0. -1.
         25    2    1    2    0    0 -0.22649820321E+02 -0.49833044445E+02 -0.46124727765E+02  0.14412254572E+03  0.12508985169E+03 0.  0.
          5    1    3    3  502    0 -0.52497094036E+02 -0.78256635897E+02 -0.39073772051E+02  0.10209935360E+03  0.41800000000E+01 0. -1.
         -5    1    3    3    0  502  0.29847273715E+02  0.28423591452E+02 -0.70509557139E+01  0.42023192118E+02  0.41800000000E+01 0. -1.
        -11    1    1    2    0    0  0.51041575627E+02  0.34614834366E+01 -0.24257630026E+02  0.56618521038E+02  0.00000000000E+00 0.  1.
         11    1    1    2    0    0 -0.28391755306E+02  0.46371561009E+02 -0.42355622295E+02  0.68923233962E+02  0.00000000000E+00 0. -1.
</event>
<event>
 7    1  0.2651429E-009  0.1799477E+03  0.7561462E-02  0.1167854E+00
          2   -1    0    0  501    0  0.00000000000E+00  0.00000000000E+00  0.79731571881E+03  0.79731571881E+03  0.00000000000E+00 0. -1.
         -2   -1    0    0    0  501 -0.00000000000E+00 -0.00000000000E+00 -0.57018146170E+02  0.57018146170E+02  0.00000000000E+00 0.  1.
         25    2    1    2    0    0  0.13961356971E+03 -0.65253364628E+02  0.58272742148E+03  0.61561085600E+03  0.12512205180E+03 0.  0.
          5    1    3    3  502    0  0.13049505425E+03 -0.90689843501E+02  0.55220779312E+03  0.57463425419E+03  0.41800000000E+01 0. -1.
         -5    1    3    3    0  502  0.91185154596E+01  0.25436478873E+02  0.30519628353E+02  0.40976601817E+02  0.41800000000E+01 0. -1.
        -11    1    1    2    0    0 -0.87120203029E+02 -0.33697377144E+01  0.10910039104E+03  0.13965736727E+03  0.00000000000E+00 0. -1.
         11    1    1    2    0    0 -0.52493366680E+02  0.68623102342E+02  0.48469760124E+02  0.99065641708E+02  0.00000000000E+00 0.  1.
</event>
<event>
 7    1  0.2651429E-009  0.8424661E+02  0.7561462E-02  0.1317415E+00
          4   -1    0    0  501    0  0.00000000000E+00  0.00000000000E+00  0.28809607178E+03  0.28809607178E+03  0.00000000000E+00 0. -1.
         -4   -1    0    0    0  501 -0.00000000000E+00 -0.00000000000E+00 -0.68626992036E+02  0.68626992036E+02  0.00000000000E+00 0.  1.
         25    2    1    2    0    0 -0.26465847658E+02 -0.59274600515E+02  0.40427387343E+02  0.14661297685E+03  0.12508825675E+03 0.  0.
          5    1    3    3  502    0 -0.10380109164E+02 -0.48679135292E+02 -0.39883710425E+02  0.63918601646E+02  0.41800000000E+01 0. -1.
         -5    1    3    3    0  502 -0.16085738494E+02 -0.10595465223E+02  0.80311097769E+02  0.82694375208E+02  0.41800000000E+01 0. -1.
        -11    1    1    2    0    0 -0.22831411249E+02  0.39692074361E+02  0.38272337884E+02  0.59678354148E+02  0.00000000000E+00 0.  1.
         11    1    1    2    0    0  0.49297258907E+02  0.19582526154E+02  0.14076935451E+03  0.15043173281E+03  0.00000000000E+00 0. -1.
</event>
<event>
 7    1  0.2651429E-009  0.1084800E+03  0.7561462E-02  0.1263411E+00
         -1   -1    0    0    0  501 -0.00000000000E+00  0.00000000000E+00  0.69735278241E+02  0.69735278241E+02  0.00000000000E+00 0.  1.
          1   -1    0    0  501    0  0.00000000000E+00 -0.00000000000E+00 -0.17284570676E+03  0.17284570676E+03  0.00000000000E+00 0. -1.
         25    2    1    2    0    0  0.13911369544E+02 -0.13452377938E+02 -0.52708971807E+02  0.13711114656E+03  0.12508692229E+03 0.  0.
          5    1    3    3  502    0  0.83708541021E+01  0.54917331880E+02 -0.36192692150E+02  0.66433183758E+02  0.41800000000E+01 0.  1.
         -5    1    3    3    0  502  0.55405154423E+01 -0.68369709818E+02 -0.16516279657E+02  0.70677962800E+02  0.41800000000E+01 0.  1.
        -11    1    1    2    0    0  0.36966723075E+02 -0.71275579204E+01 -0.17912127022E+02  0.41691545801E+02  0.00000000000E+00 0.  1.
         11    1    1    2    0    0 -0.50878092620E+02  0.20579935858E+02 -0.32489329691E+02  0.63778292642E+02  0.00000000000E+00 0. -1.
</event>
<event>
 7    1  0.2651429E-009  0.9065633E+02  0.7561462E-02  0.1301270E+00
          3   -1    0    0  501    0  0.00000000000E+00  0.00000000000E+00  0.58322858350E+02  0.58322858350E+02  0.00000000000E+00 0. -1.
         -3   -1    0    0    0  501 -0.00000000000E+00 -0.00000000000E+00 -0.24222074352E+03  0.24222074352E+03  0.00000000000E+00 0.  1.
         25    2    1    2    0    0 -0.34764107610E+02 -0.11435735508E+02 -0.64501969582E+02  0.14542191149E+03  0.12509080317E+03 0.  0.
          5    1    3    3  502    0 -0.55920481358E+02 -0.22527419630E+02  0.15031380703E+02  0.62273587308E+02  0.41800000000E+01 0. -1.
         -5    1    3    3    0  502  0.21156373748E+02  0.11091684121E+02 -0.79533350285E+02  0.83148324182E+02  0.41800000000E+01 0. -1.
        -11    1    1    2    0    0 -0.11686292769E+02 -0.31362304425E+02 -0.26034805681E+02  0.42402531580E+02  0.00000000000E+00 0.  1.
         11    1    1    2    0    0  0.46450400378E+02  0.42798039933E+02 -0.93361109903E+02  0.11271915880E+03  0.00000000000E+00 0. -1.
</event>
<event>
 7    1  0.2651429E-009  0.9918454E+02  0.7561462E-02  0.1282020E+00
         -2   -1    0    0    0  501 -0.00000000000E+00  0.00000000000E+00  0.18209570351E+03  0.18209570351E+03  0.00000000000E+00 0.  1.
          2   -1    0    0  501    0  0.00000000000E+00 -0.00000000000E+00 -0.73233570583E+02  0.73233570583E+02  0.00000000000E+00 0. -1.
         25    2    1    2    0    0 -0.27346183699E+02  0.24949590130E+02  0.78483860254E+02  0.15224225653E+03  0.12509073723E+03 0.  0.
          5    1    3    3  502    0  0.21352819204E+02  0.44113905139E+02 -0.92015082281E+01  0.50041179724E+02  0.41800000000E+01 0.  1.
         -5    1    3    3    0  502 -0.48699002903E+02 -0.19164315009E+02  0.87685368482E+02  0.10220107680E+03  0.41800000000E+01 0.  1.
        -11    1    1    2    0    0  0.84621317427E+01  0.33866160952E+02  0.20635187036E+02  0.40550406598E+02  0.00000000000E+00 0.  1.
         11    1    1    2    0    0  0.18884051956E+02 -0.58815751081E+02  0.97430856331E+01  0.62536610967E+02  0.00000000000E+00 0. -1.
</event>
<event>
 7    1  0.2651429E-009  0.1682489E+03  0.7561462E-02  0.1179686E+00
          1   -1    0    0  501    0  0.00000000000E+00  0.00000000000E+00  0.21744025117E+03  0.21744025117E+03  0.00000000000E+00 0. -1.
         -1   -1    0    0    0  501 -0.00000000000E+00 -0.00000000000E+00 -0.13200549680E+03  0.13200549680E+03  0.00000000000E+00 0.  1.
         25    2    1    2    0    0  0.25687366020E+02 -0.12305077559E+03  0.55708563530E+02  0.18588298450E+03  0.12509078995E+03 0.  0.
          5    1    3    3  502    0 -0.26276941703E+02  0.14052528706E+02  0.39981906211E+01  0.30354722146E+02  0.41800000000E+01 0.  1.
         -5    1    3    3    0  502  0.51964307723E+02 -0.13710330429E+03  0.51710372909E+02  0.15552826235E+03  0.41800000000E+01 0.  1.
        -11    1    1    2    0    0  0.13468000057E+02  0.11967086664E+03  0.14020407895E+02  0.12123974260E+03  0.00000000000E+00 0.  1.
         11    1    1    2    0    0 -0.39155366077E+02  0.33799089415E+01  0.15705782946E+02  0.42323020863E+02  0.00000000000E+00 0. -1.
</event>
<event>
 7    1  0.2821585E-009  0.2315450E+03  0.7561462E-02  0.1125557E+00
         -1   -1    0    0    0  501 -0.00000000000E+00  0.00000000000E+00  0.66375483375E+02  0.66375483375E+02  0.00000000000E+00 0.  1.
          1   -1    0    0  501    0  0.00000000000E+00 -0.00000000000E+00 -0.89429023208E+03  0.89429023208E+03  0.00000000000E+00 0. -1.
         25    2    1    2    0    0  0.17443989958E+03 -0.12716638509E+03 -0.48172068952E+03  0.54249800661E+03  0.12509474970E+03 0.  0.
          5    1    3    3  502    0  0.14324001428E+03 -0.15057770972E+03 -0.42975783544E+03  0.47738937763E+03  0.41800000000E+01 0.  1.
         -5    1    3    3    0  502  0.31199885294E+02  0.23411324628E+02 -0.51962854088E+02  0.65108628984E+02  0.41800000000E+01 0.  1.
        -11    1    1    2    0    0 -0.12206912362E+03  0.93046093107E+02 -0.31005756837E+03  0.34596841198E+03  0.00000000000E+00 0. -1.
         11    1    1    2    0    0 -0.52370775955E+02  0.34120291985E+02 -0.36136490815E+02  0.72199296864E+02  0.00000000000E+00 0.  1.
</event>
<event>
 7    1  0.2651429E-009  0.9516504E+02  0.7561462E-02  0.1290805E+00
         -1   -1    0    0    0  501 -0.00000000000E+00  0.00000000000E+00  0.61184845273E+03  0.61184845273E+03  0.00000000000E+00 0.  1.
          1   -1    0    0  501    0  0.00000000000E+00 -0.00000000000E+00 -0.25809780181E+02  0.25809780181E+02  0.00000000000E+00 0. -1.
         25    2    1    2    0    0  0.35989183533E+00  0.42235297878E+02  0.45307526857E+03  0.47191779497E+03  0.12508099903E+03 0.  0.
          5    1    3    3  502    0  0.43622594462E+02 -0.73603545935E+01  0.32338850967E+03  0.32642718354E+03  0.41800000000E+01 0.  1.
         -5    1    3    3    0  502 -0.43262702627E+02  0.49595652471E+02  0.12968675889E+03  0.14549061143E+03  0.41800000000E+01 0.  1.
        -11    1    1    2    0    0  0.61856267315E+01 -0.60360738728E+02  0.13330674907E+03  0.14646627634E+03  0.00000000000E+00 0.  1.
         11    1    1    2    0    0 -0.65455185668E+01  0.18125440851E+02 -0.34334508635E+00  0.19274161595E+02  0.00000000000E+00 0. -1.
</event>
<event>
 7    1  0.2651429E-009  0.1038143E+03  0.7561462E-02  0.1272473E+00
          1   -1    0    0  501    0  0.00000000000E+00  0.00000000000E+00  0.13134894374E+03  0.13134894374E+03  0.00000000000E+00 0. -1.
         -1   -1    0    0    0  501 -0.00000000000E+00 -0.00000000000E+00 -0.12305699211E+03  0.12305699211E+03  0.00000000000E+00 0.  1.
         25    2    1    2    0    0  0.47124735065E+02 -0.44075988429E+02  0.18751774251E+02  0.14199578773E+03  0.12509093206E+03 0.  0.
          5    1    3    3  502    0  0.38783343223E+02  0.25504833706E+02 -0.30979069944E+02  0.55962661021E+02  0.41800000000E+01 0. -1.
         -5    1    3    3    0  502  0.83413918418E+01 -0.69580822135E+02  0.49730844196E+02  0.86033126708E+02  0.41800000000E+01 0. -1.
        -11    1    1    2    0    0 -0.19525803858E+02  0.57067420331E+02 -0.38021320315E+02  0.71299146405E+02  0.00000000000E+00 0.  1.
         11    1    1    2    0    0 -0.27598931207E+02 -0.12991431902E+02  0.27561497697E+02  0.41111001714E+02  0.00000000000E+00 0. -1.
</event>
<event>
 7    1  0.2651429E-009  0.1201997E+03  0.7561462E-02  0.1242768E+00
          2   -1    0    0  501    0  0.00000000000E+00  0.00000000000E+00  0.23171216427E+03  0.23171216427E+03  0.00000000000E+00 0. -1.
         -2   -1    0    0    0  501 -0.00000000000E+00 -0.00000000000E+00 -0.92603118755E+02  0.92603118755E+02  0.00000000000E+00 0.  1.
         25    2    1    2    0    0 -0.84953645722E+02 -0.11249581129E+02  0.12937271321E+03  0.19932045817E+03  0.12509065164E+03 0.  0.
          5    1    3    3  502    0 -0.94147665830E+02  0.11857701099E+02  0.34342812342E+02  0.10100143175E+03  0.41800000000E+01 0. -1.
         -5    1    3    3    0  502  0.91940201080E+01 -0.23107282228E+02  0.95029900866E+02  0.98319026421E+02  0.41800000000E+01 0. -1.
        -11    1    1    2    0    0  0.10182551641E+03  0.41990874723E+01 -0.42079570985E+01  0.10199889720E+03  0.00000000000E+00 0.  1.
         11    1    1    2    0    0 -0.16871870688E+02  0.70504936571E+01  0.13944289407E+02  0.22995927648E+02  0.00000000000E+00 0. -1.
</event>
<event>
 7    1  0.2651429E-009  0.1843660E+03  0.7561462E-02  0.1163643E+00
          2   -1    0    0  501    0  0.00000000000E+00  0.00000000000E+00  0.26370054360E+03  0.26370054360E+03  0.00000000000E+00 0. -1.
         -2   -1    0    0    0  501 -0.00000000000E+00 -0.00000000000E+00 -0.14898240662E+03  0.14898240662E+03  0.00000000000E+00 0.  1.
         25    2    1    2    0    0  0.16164283606E+03 -0.16784502079E+02  0.48145602727E+02  0.21065382535E+03  0.12508760575E+03 0.  0.
          5    1    3    3  502    0 -0.18567231858E+02 -0.15136123286E+02  0.10613702319E+01  0.24340156815E+02  0.41800000000E+01 0.  1.
         -5    1    3    3    0  502  0.18021006792E+03 -0.16483787930E+01  0.47084232495E+02  0.18631366853E+03  0.41800000000E+01 0.  1.
        -11    1    1    2    0    0 -0.71168589951E+02 -0.41319212123E+01  0.81167367394E+02  0.10802861888E+03  0.00000000000E+00 0. -1.
         11    1    1    2    0    0 -0.90474246110E+02  0.20916423291E+02 -0.14594833144E+02  0.94000505993E+02  0.00000000000E+00 0.  1.
</event>
<event>
 7    1  0.2651429E-009  0.8193240E+02  0.7561462E-02  0.1323655E+00
         -4   -1    0    0    0  501 -0.00000000000E+00  0.00000000000E+00  0.28751250640E+03  0.28751250640E+03  0.00000000000E+00 0. -1.
          4   -1    0    0  501    0  0.00000000000E+00 -0.00000000000E+00 -0.45870289114E+02  0.45870289114E+02  0.00000000000E+00 0.  1.
         25    2    1    2    0    0 -0.54194489636E+02 -0.36190420454E+01  0.10688073612E+03  0.17326610177E+03  0.12509000797E+03 0.  0.
          5    1    3    3  502    0 -0.64944882026E+02 -0.72593527200E+01  0.13090446906E+03  0.14636935582E+03  0.41800000000E+01 0. -1.
         -5    1    3    3    0  502  0.10750392390E+02  0.36403106746E+01 -0.24023732937E+02  0.26896745948E+02  0.41800000000E+01 0. -1.
        -11    1    1    2    0    0  0.11237779994E+02 -0.29808306351E+02  0.44825491667E+02  0.54992249725E+02  0.00000000000E+00 0.  1.
         11    1    1    2    0    0  0.42956709642E+02  0.33427348396E+02  0.89935989498E+02  0.10512444402E+03  0.00000000000E+00 0. -1.
</event>
<event>
 7    1  0.2880788E-009  0.1258257E+03  0.7561462E-02  0.1233784E+00
          1   -1    0    0  501    0  0.00000000000E+00  0.00000000000E+00  0.30747106913E+03  0.30747106913E+03  0.00000000000E+00 0. -1.
         -1   -1    0    0    0  501 -0.00000000000E+00 -0.00000000000E+00 -0.60001385352E+02  0.60001385352E+02  0.00000000000E+00 0.  1.
         25    2    1    2    0    0 -0.38556795081E+02 -0.65416212376E+02  0.17296400700E+03  0.22656124916E+03  0.12509014595E+03 0.  0.
          5    1    3    3  502    0  0.39751547767E+02 -0.51004784301E+02  0.60147447870E+02  0.88413016331E+02  0.41800000000E+01 0.  1.
         -5    1    3    3    0  502 -0.78308342848E+02 -0.14411428075E+02  0.11281655913E+03  0.13814823283E+03  0.41800000000E+01 0.  1.
        -11    1    1    2    0    0 -0.13590698994E+02  0.51333317902E+02  0.56573485623E+01  0.53402455175E+02  0.00000000000E+00 0.  1.
         11    1    1    2    0    0  0.52147494075E+02  0.14082894474E+02  0.68848328216E+02  0.87508750153E+02  0.00000000000E+00 0. -1.
</event>
<event>
 7    1  0.2651429E-009  0.1515002E+03  0.7561462E-02  0.1198642E+00
         -1   -1    0    0    0  501 -0.00000000000E+00  0.00000000000E+00  0.27814543024E+03  0.27814543024E+03  0.00000000000E+00 0.  1.
          1   -1    0    0  501    0  0.00000000000E+00 -0.00000000000E+00 -0.14528671518E+03  0.14528671518E+03  0.00000000000E+00 0. -1.
         25    2    1    2    0    0 -0.32098415543E+02  0.10401926795E+03  0.20582256931E+03  0.26430867835E+03  0.12508329637E+03 0.  0.
          5    1    3    3  502    0 -0.13172260472E+02 -0.28330518841E+02  0.31299750795E+02  0.44421543688E+02  0.41800000000E+01 0. -1.
         -5    1    3    3    0  502 -0.18926155071E+02  0.13234978680E+03  0.17452281851E+03  0.21988713467E+03  0.41800000000E+01 0. -1.
        -11    1    1    2    0    0  0.35547348107E+02 -0.19613707198E+01 -0.38318677163E+01  0.35807040408E+02  0.00000000000E+00 0.  1.
         11    1    1    2    0    0 -0.34489325646E+01 -0.10205789723E+03 -0.69131986527E+02  0.12331642666E+03  0.00000000000E+00 0. -1.
</event>
<event>
 7    1  0.2651429E-009  0.9836409E+02  0.7561462E-02  0.1283774E+00
          1   -1    0    0  501    0  0.00000000000E+00  0.00000000000E+00  0.33850057179E+03  0.33850057179E+03  0.00000000000E+00 0. -1.
         -1   -1    0    0    0  501 -0.00000000000E+00 -0.00000000000E+00 -0.46900919404E+02  0.46900919404E+02  0.00000000000E+00 0.  1.
         25    2    1    2    0    0 -0.62014284938E+02  0.88780237550E+01  0.18024279499E+03  0.22816623437E+03  0.12509106491E+03 0.  0.
          5    1    3    3  502    0  0.14528927633E+02 -0.37671125125E+02  0.99614846692E+02  0.10756762286E+03  0.41800000000E+01 0.  1.
         -5    1    3    3    0  502 -0.76543212571E+02  0.46549148880E+02  0.80627948295E+02  0.12059861151E+03  0.41800000000E+01 0.  1.
        -11    1    1    2    0    0  0.10647893110E+02  0.69355697087E+01 -0.15156680433E+02  0.19778895738E+02  0.00000000000E+00 0.  1.
         11    1    1    2    0    0  0.51366391828E+02 -0.15813593464E+02  0.12651353783E+03  0.13745636108E+03  0.00000000000E+00 0. -1.
</event>
<event>
 7    1  0.2651429E-009  0.1138220E+03  0.7561462E-02  0.1253652E+00
          2   -1    0    0  501    0  0.00000000000E+00  0.00000000000E+00  0.15539079821E+03  0.15539079821E+03  0.00000000000E+00 0. -1.
         -2   -1    0    0    0  501 -0.00000000000E+00 -0.00000000000E+00 -0.10268107909E+03  0.10268107909E+03  0.00000000000E+00 0.  1.
         25    2    1    2    0    0  0.41949770021E+02  0.53603736713E+02  0.44071662111E+02  0.14907480503E+03  0.12509133582E+03 0.  0.
          5    1    3    3  502    0  0.46795916925E+02  0.88079908343E+02  0.10241810971E+02  0.10035086042E+03  0.41800000000E+01 0.  1.
         -5    1    3    3    0  502 -0.48461469039E+01 -0.34476171630E+02  0.33829851140E+02  0.48723944608E+02  0.41800000000E+01 0.  1.
        -11    1    1    2    0    0  0.12487249195E+02  0.43665534496E+01  0.24559528283E+02  0.27895673696E+02  0.00000000000E+00 0. -1.
         11    1    1    2    0    0 -0.54437019217E+02 -0.57970290162E+02 -0.15921471274E+02  0.81101398571E+02  0.00000000000E+00 0.  1.
</event>
<event>
 7    1  0.2651429E-009  0.1254270E+03  0.7561462E-02  0.1234404E+00
         -2   -1    0    0    0  501 -0.00000000000E+00  0.00000000000E+00  0.35991452823E+03  0.35991452823E+03  0.00000000000E+00 0.  1.
          2   -1    0    0  501    0  0.00000000000E+00 -0.00000000000E+00 -0.60903118608E+02  0.60903118608E+02  0.00000000000E+00 0. -1.
         25    2    1    2    0    0  0.11155584496E+02 -0.98555816153E+02  0.18325705428E+03  0.24303944735E+03  0.12508928435E+03 0.  0.
          5    1    3    3  502    0 -0.18066119181E+02 -0.40160167070E+00  0.12248302675E+03  0.12387941794E+03  0.41800000000E+01 0. -1.
         -5    1    3    3    0  502  0.29221703678E+02 -0.98154214483E+02  0.60774027529E+02  0.11916002941E+03  0.41800000000E+01 0. -1.
        -11    1    1    2    0    0 -0.28638390185E+02  0.10673317087E+03  0.77640997265E+02  0.13505647564E+03  0.00000000000E+00 0. -1.
         11    1    1    2    0    0  0.17482805688E+02 -0.81773547169E+01  0.38113358078E+02  0.42721723852E+02  0.00000000000E+00 0.  1.
</event>
<event>
 7    1  0.2651429E-009  0.8843903E+02  0.7561462E-02  0.1306676E+00
         -2   -1    0    0    0  501 -0.00000000000E+00  0.00000000000E+00  0.28955370782E+02  0.28955370782E+02  0.00000000000E+00 0.  1.
          2   -1    0    0  501    0  0.00000000000E+00 -0.00000000000E+00 -0.61067344998E+03  0.61067344998E+03  0.00000000000E+00 0. -1.
         25    2    1    2    0    0 -0.59815063195E+02  0.16172631712E+02 -0.43496013495E+03  0.45681203641E+03  0.12509005478E+03 0.  0.
          5    1    3    3  502    0  0.19020049585E+02 -0.19481365688E+02 -0.23125371231E+02  0.35965832256E+02  0.41800000000E+01 0.  1.
         -5    1    3    3    0  502 -0.78835112780E+02  0.35653997400E+02 -0.41183476372E+03  0.42084620415E+03  0.41800000000E+01 0.  1.
        -11    1    1    2    0    0  0.27065738129E+02 -0.12306205787E+02  0.26151642269E+01  0.29846875302E+02  0.00000000000E+00 0.  1.
         11    1    1    2    0    0  0.32749325066E+02 -0.38664259251E+01 -0.14937310847E+03  0.15296990905E+03  0.00000000000E+00 0. -1.
</event>
<event>
 7    1  0.2651429E-009  0.9816540E+02  0.7561462E-02  0.1284202E+00
          4   -1    0    0  501    0  0.00000000000E+00  0.00000000000E+00  0.35546517931E+03  0.35546517931E+03  0.00000000000E+00 0.  1.
         -4   -1    0    0    0  501 -0.00000000000E+00 -0.00000000000E+00 -0.38331928000E+02  0.38331928000E+02  0.00000000000E+00 0. -1.
         25    2    1    2    0    0  0.10896384515E+02  0.18301288526E+02  0.24431299960E+03  0.27529900244E+03  0.12508809140E+03 0.  0.
          5    1    3    3  502    0 -0.55526133889E+01  0.58751372507E+02  0.54348344120E+02  0.80335360804E+02  0.41800000000E+01 0.  1.
         -5    1    3    3    0  502  0.16448997904E+02 -0.40450083981E+02  0.18996465549E+03  0.19496364164E+03  0.41800000000E+01 0.  1.
        -11    1    1    2    0    0 -0.41048696754E+02 -0.39086609748E+02  0.40626384492E+02  0.69737089727E+02  0.00000000000E+00 0. -1.
         11    1    1    2    0    0  0.30152312238E+02  0.20785321222E+02  0.32193867213E+02  0.48761015142E+02  0.00000000000E+00 0.  1.
</event>
<event>
 7    1  0.2651429E-009  0.1004672E+03  0.7561462E-02  0.1279317E+00
          1   -1    0    0  501    0  0.00000000000E+00  0.00000000000E+00  0.10626662037E+03  0.10626662037E+03  0.00000000000E+00 0. -1.
         -1   -1    0    0    0  501 -0.00000000000E+00 -0.00000000000E+00 -0.15958073194E+03  0.15958073194E+03  0.00000000000E+00 0.  1.
         25    2    1    2    0    0 -0.19683984618E+02  0.66442170781E+02 -0.59418805891E+01  0.14311737820E+03  0.12508100052E+03 0.  0.
          5    1    3    3  502    0 -0.49124816851E+02  0.69491670710E+02  0.35261757237E+02  0.92212818264E+02  0.41800000000E+01 0.  1.
         -5    1    3    3    0  502  0.29440832233E+02 -0.30494999283E+01 -0.41203637826E+02  0.50904559938E+02  0.41800000000E+01 0.  1.
        -11    1    1    2    0    0  0.69518757673E+01 -0.71719288189E+02 -0.67236128798E+02  0.98552939534E+02  0.00000000000E+00 0.  1.
         11    1    1    2    0    0  0.12732108851E+02  0.52771174080E+01  0.19863897824E+02  0.24177034572E+02  0.00000000000E+00 0. -1.
</event>
<event>
 7    1  0.2651429E-009  0.9325668E+02  0.7561462E-02  0.1295151E+00
          3   -1    0    0  501    0  0.00000000000E+00  0.00000000000E+00  0.47257112711E+03  0.47257112711E+03  0.00000000000E+00 0. -1.
         -3   -1    0    0    0  501 -0.00000000000E+00 -0.00000000000E+00 -0.29249831691E+02  0.29249831691E+02  0.00000000000E+00 0.  1.
         25    2    1    2    0    0 -0.13673363618E+02  0.21815692815E+02  0.33184150102E+03  0.35556864507E+03  0.12508954484E+03 0.  0.
          5    1    3    3  502    0  0.37192133969E+02  0.36725380669E+02  0.26510482809E+03  0.27024072730E+03  0.41800000000E+01 0.  1.
         -5    1    3    3    0  502 -0.50865497587E+02 -0.14909687854E+02  0.66736672929E+02  0.85327917766E+02  0.41800000000E+01 0.  1.
        -11    1    1    2    0    0 -0.19106287668E+02  0.20076558584E+02  0.63523588369E+01  0.28433622630E+02  0.00000000000E+00 0.  1.
         11    1    1    2    0    0  0.32779651286E+02 -0.41892251399E+02  0.10512743556E+03  0.11781869110E+03  0.00000000000E+00 0. -1.
</event>
<event>
 7    1  0.2651429E-009  0.9154994E+02  0.7561462E-02  0.1299141E+00
         -1   -1    0    0    0  501 -0.00000000000E+00  0.00000000000E+00  0.35862156087E+03  0.35862156087E+03  0.00000000000E+00 0.  1.
          1   -1    0    0  501    0  0.00000000000E+00 -0.00000000000E+00 -0.38035525803E+02  0.38035525803E+02  0.00000000000E+00 0. -1.
         25    2    1    2    0    0 -0.28764141272E+02 -0.23268365961E+02  0.21505565700E+03  0.25152627841E+03  0.12509092870E+03 0.  0.
          5    1    3    3  502    0 -0.52413620688E+02 -0.22458477147E+01  0.24033462602E+02  0.57855952072E+02  0.41800000000E+01 0.  1.
         -5    1    3    3    0  502  0.23649479416E+02 -0.21022518247E+02  0.19102219440E+03  0.19367032633E+03  0.41800000000E+01 0.  1.
        -11    1    1    2    0    0 -0.37869730372E+01 -0.33178849300E+02  0.46205301773E+02  0.57009710730E+02  0.00000000000E+00 0. -1.
         11    1    1    2    0    0  0.32551114309E+02  0.56447215261E+02  0.59325076292E+02  0.88121097533E+02  0.00000000000E+00 0.  1.
</event>
<event>
 7    1  0.2651429E-009  0.1129515E+03  0.7561462E-02  0.1255200E+00
         -2   -1    0    0    0  501 -0.00000000000E+00  0.00000000000E+00  0.30934749918E+02  0.30934749918E+02  0.00000000000E+00 0.  1.
          2   -1    0    0  501    0  0.00000000000E+00 -0.00000000000E+00 -0.61541050972E+03  0.61541050972E+03  0.00000000000E+00 0. -1.
         25    2    1    2    0    0 -0.57221288167E+02  0.25302406145E+02 -0.18804791007E+03  0.23435888652E+03  0.12509030192E+03 0.  0.
          5    1    3    3  502    0  0.18780689318E+02  0.45932233423E+02 -0.12099843662E+03  0.13084562822E+03  0.41800000000E+01 0. -1.
         -5    1    3    3    0  502 -0.76001977485E+02 -0.20629827279E+02 -0.67049473444E+02  0.10351325830E+03  0.41800000000E+01 0. -1.
        -11    1    1    2    0    0  0.11110104035E+02  0.25992245026E+02 -0.40205230584E+02  0.49147652838E+02  0.00000000000E+00 0.  1.
         11    1    1    2    0    0  0.46111184132E+02 -0.51294651171E+02 -0.35622261915E+03  0.36283872028E+03  0.00000000000E+00 0. -1.
</event>
<event>
 7    1  0.2651429E-009  0.1073021E+03  0.7561462E-02  0.1265649E+00
          1   -1    0    0  501    0  0.00000000000E+00  0.00000000000E+00  0.20137352068E+03  0.20137352068E+03  0.00000000000E+00 0. -1.
         -1   -1    0    0    0  501 -0.00000000000E+00 -0.00000000000E+00 -0.71493638745E+02  0.71493638745E+02  0.00000000000E+00 0.  1.
         25    2    1    2    0    0 -0.19555506591E+02 -0.40356969905E+02  0.37308331005E+02  0.13802056783E+03  0.12508662088E+03 0.  0.
          5    1    3    3  502    0 -0.57858682280E+02  0.19918550180E+02  0.16368857362E+02  0.63480608439E+02  0.41800000000E+01 0. -1.
         -5    1    3    3    0  502  0.38303175689E+02 -0.60275520085E+02  0.20939473642E+02  0.74539959389E+02  0.41800000000E+01 0. -1.
        -11    1    1    2    0    0  0.38600842638E+02  0.17002433164E+01  0.73246204008E+01  0.39326402628E+02  0.00000000000E+00 0.  1.
         11    1    1    2    0    0 -0.19045336047E+02  0.38656726588E+02  0.85246930528E+02  0.95520188966E+02  0.00000000000E+00 0. -1.
</event>
<event>
 7    1  0.2651429E-009  0.7020615E+02  0.7561462E-02  0.1359393E+00
         -2   -1    0    0    0  501 -0.00000000000E+00  0.00000000000E+00  0.27337194408E+02  0.27337194408E+02  0.00000000000E+00 0.  1.
          2   -1    0    0  501    0  0.00000000000E+00 -0.00000000000E+00 -0.50022592136E+03  0.50022592136E+03  0.00000000000E+00 0. -1.
         25    2    1    2    0    0 -0.11686386923E+02 -0.41344988592E+02 -0.34647402238E+03  0.37086048612E+03  0.12508905732E+03 0.  0.
          5    1    3    3  502    0  0.68947458213E+00 -0.30617104939E+02 -0.79501742524E+01  0.31914889326E+02  0.41800000000E+01 0.  1.
         -5    1    3    3    0  502 -0.12375861506E+02 -0.10727883653E+02 -0.33852384813E+03  0.33894559679E+03  0.41800000000E+01 0.  1.
        -11    1    1    2    0    0  0.46916728867E+02  0.29553196264E+02 -0.76107127059E+02  0.94164035842E+02  0.00000000000E+00 0. -1.
         11    1    1    2    0    0 -0.35230341944E+02  0.11791792328E+02 -0.50307577519E+02  0.62538593809E+02  0.00000000000E+00 0.  1.
</event>
<event>
 7    1  0.2651429E-009  0.9957705E+02  0.7561462E-02  0.1281188E+00
          2   -1    0    0  501    0  0.00000000000E+00  0.00000000000E+00  0.49794599854E+03  0.49794599854E+03  0.00000000000E+00 0. -1.
         -2   -1    0    0    0  501 -0.00000000000E+00 -0.00000000000E+00 -0.35767056264E+02  0.35767056264E+02  0.00000000000E+00 0.  1.
         25    2    1    2    0    0  0.31928741268E+02 -0.13882003302E+02  0.39238689533E+03  0.41331309538E+03  0.12509230450E+03 0.  0.
          5    1    3    3  502    0  0.45890513421E+02  0.39179100344E+02  0.10922300259E+03  0.12485222393E+03  0.41800000000E+01 0. -1.
         -5    1    3    3    0  502 -0.13961772153E+02 -0.53061103645E+02  0.28316389275E+03  0.28846087145E+03  0.41800000000E+01 0. -1.
        -11    1    1    2    0    0 -0.42028933852E+02 -0.21244648646E+02  0.69373360056E+02  0.83847656271E+02  0.00000000000E+00 0. -1.
         11    1    1    2    0    0  0.10100192584E+02  0.35126651948E+02  0.41868688813E+00  0.36552303156E+02  0.00000000000E+00 0.  1.
</event>
<event>
 7    1  0.2651429E-009  0.2319101E+03  0.7561462E-02  0.1125303E+00
         -2   -1    0    0    0  501 -0.00000000000E+00  0.00000000000E+00  0.60651634934E+02  0.60651634934E+02  0.00000000000E+00 0. -1.
          2   -1    0    0  501    0  0.00000000000E+00 -0.00000000000E+00 -0.12627714391E+04  0.12627714391E+04  0.00000000000E+00 0.  1.
         25    2    1    2    0    0 -0.18076362141E+03  0.12616876792E+03 -0.31455880073E+03  0.40396933244E+03  0.12509971068E+03 0.  0.
          5    1    3    3  502    0 -0.17200119967E+03  0.12741779711E+03 -0.32530324735E+03  0.38943469651E+03  0.41800000000E+01 0.  1.
         -5    1    3    3    0  502 -0.87624217411E+01 -0.12490291880E+01  0.10744446618E+02  0.14534635936E+02  0.41800000000E+01 0.  1.
        -11    1    1    2    0    0  0.15556186491E+03 -0.55927258052E+02 -0.59741685218E+03  0.61986631403E+03  0.00000000000E+00 0.  1.
         11    1    1    2    0    0  0.25201756504E+02 -0.70241509873E+02 -0.29014415129E+03  0.29958742759E+03  0.00000000000E+00 0. -1.
</event>
<event>
 7    1  0.2651429E-009  0.9171908E+02  0.7561462E-02  0.1298741E+00
          3   -1    0    0  501    0  0.00000000000E+00  0.00000000000E+00  0.23320442897E+02  0.23320442897E+02  0.00000000000E+00 0. -1.
         -3   -1    0    0    0  501 -0.00000000000E+00 -0.00000000000E+00 -0.57416391995E+03  0.57416391995E+03  0.00000000000E+00 0.  1.
         25    2    1    2    0    0 -0.48665095956E+01 -0.28817628478E+02 -0.24349969571E+03  0.27529506290E+03  0.12506450822E+03 0.  0.
          5    1    3    3  502    0  0.30299422580E+02  0.21912163490E+02 -0.18467648510E+02  0.41913295730E+02  0.41800000000E+01 0.  1.
         -5    1    3    3    0  502 -0.35165932175E+02 -0.50729791967E+02 -0.22503204720E+03  0.23338176717E+03  0.41800000000E+01 0.  1.
        -11    1    1    2    0    0 -0.30722823055E+02  0.36322142471E+02 -0.89771593003E+02  0.10159787793E+03  0.00000000000E+00 0. -1.
         11    1    1    2    0    0  0.35589332651E+02 -0.75045139928E+01 -0.21757218834E+03  0.22059142202E+03  0.00000000000E+00 0.  1.
</event>
<event>
 7    1  0.2651429E-009  0.8567828E+02  0.7561462E-02  0.1313668E+00
          1   -1    0    0  501    0  0.00000000000E+00  0.00000000000E+00  0.10611416482E+03  0.10611416482E+03  0.00000000000E+00 0. -1.
         -1   -1    0    0    0  501 -0.00000000000E+00 -0.00000000000E+00 -0.11297874091E+03  0.11297874091E+03  0.00000000000E+00 0.  1.
         25    2    1    2    0    0  0.10311986533E+02  0.80741302314E+01 -0.28069727845E+02  0.12887355538E+03  0.12509578334E+03 0.  0.
          5    1    3    3  502    0 -0.53261631878E+02 -0.16650008940E+02 -0.22476649686E+02  0.60305028058E+02  0.41800000000E+01 0. -1.
         -5    1    3    3    0  502  0.63573618411E+02  0.24724139171E+02 -0.55930781584E+01  0.68568527320E+02  0.41800000000E+01 0. -1.
        -11    1    1    2    0    0  0.16367034400E+02  0.53124430672E+01 -0.27884801800E+02  0.32766813056E+02  0.00000000000E+00 0.  1.
         11    1    1    2    0    0 -0.26679020933E+02 -0.13386573299E+02  0.49089953553E+02  0.57452537302E+02  0.00000000000E+00 0. -1.
</event>
<event>
 7    1  0.2651429E-009  0.1077702E+03  0.7561462E-02  0.1264756E+00
          2   -1    0    0  501    0  0.00000000000E+00  0.00000000000E+00  0.10591911646E+03  0.10591911646E+03  0.00000000000E+00 0. -1.
         -2   -1    0    0    0  501 -0.00000000000E+00 -0.00000000000E+00 -0.15282220420E+03  0.15282220420E+03  0.00000000000E+00 0.  1.
         25    2    1    2    0    0 -0.40357921071E+02 -0.52750874519E+02 -0.38173180268E+02  0.14667930428E+03  0.12508481146E+03 0.  0.
          5    1    3    3  502    0 -0.57598277318E+02 -0.69382845582E+02 -0.64418865416E+02  0.11089997039E+03  0.41800000000E+01 0. -1.
         -5    1    3    3    0  502  0.17240356246E+02  0.16631971063E+02  0.26245685147E+02  0.35779333893E+02  0.41800000000E+01 0. -1.
        -11    1    1    2    0    0  0.17174925934E+01  0.61343183999E+02 -0.28675794956E+02  0.67736527961E+02  0.00000000000E+00 0.  1.
         11    1    1    2    0    0  0.38640428478E+02 -0.85923094800E+01  0.19945887482E+02  0.44325488408E+02  0.00000000000E+00 0. -1.
</event>
<event>
 7    1  0.2651429E-009  0.1558378E+03  0.7561462E-02  0.1193478E+00
          2   -1    0    0  501    0  0.00000000000E+00  0.00000000000E+00  0.12922129336E+04  0.12922129336E+04  0.00000000000E+00 0. -1.
         -2   -1    0    0    0  501 -0.00000000000E+00 -0.00000000000E+00 -0.22767682681E+02  0.22767682681E+02  0.00000000000E+00 0.  1.
         25    2    1    2    0    0  0.10707398832E+03 -0.74532769708E+02  0.62085502622E+03  0.64662716643E+03  0.12508299662E+03 0.  0.
          5    1    3    3  502    0  0.57935240711E+02 -0.84199486052E+02  0.55191608690E+03  0.56131531686E+03  0.41800000000E+01 0.  1.
         -5    1    3    3    0  502  0.49138747608E+02  0.96667163439E+01  0.68938939324E+02  0.85311849566E+02  0.41800000000E+01 0.  1.
        -11    1    1    2    0    0  0.16702054721E+02  0.68023759954E+01  0.44735810260E+02  0.48234050947E+02  0.00000000000E+00 0.  1.
         11    1    1    2    0    0 -0.12377604304E+03  0.67730393713E+02  0.60385441442E+03  0.62011939889E+03  0.00000000000E+00 0. -1.
</event>
<event>
 6    1  0.2651429E-009  0.6673138E+02  0.7561462E-02  0.1371575E+00
          1   -1    0    0  501    0  0.00000000000E+00  0.00000000000E+00  0.14356674375E+03  0.14356674375E+03  0.00000000000E+00 0. -1.
         -1   -1    0    0    0  501 -0.00000000000E+00 -0.00000000000E+00 -0.11479242086E+03  0.11479242086E+03  0.00000000000E+00 0.  1.
          5    1    1    2  502    0 -0.29067792694E+02  0.89510921024E+01 -0.24541964524E+02  0.39304440521E+02  0.41800000000E+01 0. -1.
         -5    1    1    2    0  502  0.33517376250E+02 -0.23084354944E+02  0.98254221560E+02  0.10643151041E+03  0.41800000000E+01 0. -1.
        -11    1    1    2    0    0 -0.28595543592E+02  0.22404225820E+02 -0.68724124719E+02  0.77734546801E+02  0.00000000000E+00 0.  1.
         11    1    1    2    0    0  0.24145960036E+02 -0.82709629792E+01  0.23786190571E+02  0.34888666878E+02  0.00000000000E+00 0. -1.
</event>
<event>
 7    1  0.2651429E-009  0.1018791E+03  0.7561462E-02  0.1276393E+00
         -2   -1    0    0    0  501 -0.00000000000E+00  0.00000000000E+00  0.12640010226E+03  0.12640010226E+03  0.00000000000E+00 0. -1.
          2   -1    0    0  501    0  0.00000000000E+00 -0.00000000000E+00 -0.10831767798E+03  0.10831767798E+03  0.00000000000E+00 0.  1.
         25    2    1    2    0    0  0.69437563007E+01 -0.19982054229E+02 -0.31246833985E+02  0.13065717606E+03  0.12508970692E+03 0.  0.
          5    1    3    3  502    0  0.54812045226E+01 -0.70590339180E+02  0.16919852163E+00  0.70926304124E+02  0.41800000000E+01 0. -1.
         -5    1    3    3    0  502  0.14625517781E+01  0.50608284951E+02 -0.31416032506E+02  0.59730871933E+02  0.41800000000E+01 0. -1.
        -11    1    1    2    0    0  0.20748685961E+02 -0.22951964436E+02 -0.28038091552E+01  0.31067056287E+02  0.00000000000E+00 0.  1.
         11    1    1    2    0    0 -0.27692442262E+02  0.42934018665E+02  0.52133067418E+02  0.72993547903E+02  0.00000000000E+00 0. -1.
</event>
<event>
 7    1  0.2651429E-009  0.1012169E+03  0.7561462E-02  0.1277758E+00
          1   -1    0    0  501    0  0.00000000000E+00  0.00000000000E+00  0.69110303413E+02  0.69110303413E+02  0.00000000000E+00 0. -1.
         -1   -1    0    0    0  501 -0.00000000000E+00 -0.00000000000E+00 -0.21069329834E+03  0.21069329834E+03  0.00000000000E+00 0.  1.
         25    2    1    2    0    0 -0.46076190891E+00  0.95144659471E+01 -0.13772886328E+03  0.18629988320E+03  0.12509064448E+03 0.  0.
          5    1    3    3  502    0 -0.52724638351E+02 -0.13540864765E+02 -0.10969691620E+03  0.12253215223E+03  0.41800000000E+01 0.  1.
         -5    1    3    3    0  502  0.52263876442E+02  0.23055330712E+02 -0.28031947080E+02  0.63767730962E+02  0.41800000000E+01 0.  1.
        -11    1    1    2    0    0  0.11732703914E+02  0.39014789148E+02  0.96841302235E+01  0.41875917800E+02  0.00000000000E+00 0.  1.
         11    1    1    2    0    0 -0.11271942005E+02 -0.48529255095E+02 -0.13538261877E+02  0.51627800760E+02  0.00000000000E+00 0. -1.
</event>
<event>
 7    1  0.2651429E-009  0.1239977E+03  0.7561462E-02  0.1236644E+00
          4   -1    0    0  501    0  0.00000000000E+00  0.00000000000E+00  0.10813512624E+03  0.10813512624E+03  0.00000000000E+00 0.  1.
         -4   -1    0    0    0  501 -0.00000000000E+00 -0.00000000000E+00 -0.20496606196E+03  0.20496606196E+03  0.00000000000E+00 0. -1.
         25    2    1    2    0    0 -0.62615237600E+02 -0.72111246072E+01 -0.13455884982E+03  0.19423441678E+03  0.12509299060E+03 0.  0.
          5    1    3    3  502    0 -0.97548230736E+02 -0.16782250252E+02 -0.74426214401E+02  0.12391139993E+03  0.41800000000E+01 0.  1.
         -5    1    3    3    0  502  0.34932993136E+02  0.95711256450E+01 -0.60132635419E+02  0.70323016844E+02  0.41800000000E+01 0.  1.
        -11    1    1    2    0    0 -0.16985647421E+02 -0.21893719828E+02  0.12788875457E+02  0.30518887950E+02  0.00000000000E+00 0.  1.
         11    1    1    2    0    0  0.79600885021E+02  0.29104844436E+02  0.24939038638E+02  0.88347883472E+02  0.00000000000E+00 0. -1.
</event>
<event>
 7    1  0.2651429E-009  0.1454704E+03  0.7561462E-02  0.1206152E+00
          3   -1    0    0  501    0  0.00000000000E+00  0.00000000000E+00  0.25104385112E+03  0.25104385112E+03  0.00000000000E+00 0. -1.
         -3   -1    0    0    0  501 -0.00000000000E+00 -0.00000000000E+00 -0.92939899468E+02  0.92939899468E+02  0.00000000000E+00 0.  1.
         25    2    1    2    0    0 -0.44471871602E+02 -0.85198096427E+02  0.12673116958E+03  0.20234457386E+03  0.12508426850E+03 0.  0.
          5    1    3    3  502    0  0.34486793711E+02 -0.67631184609E+02  0.70985925797E+02  0.10401822020E+03  0.41800000000E+01 0.  1.
         -5    1    3    3    0  502 -0.78958665313E+02 -0.17566911818E+02  0.55745243783E+02  0.98326353656E+02  0.41800000000E+01 0.  1.
        -11    1    1    2    0    0  0.42132879722E+02 -0.61103723039E+01 -0.59153458599E+01  0.42982642078E+02  0.00000000000E+00 0.  1.
         11    1    1    2    0    0  0.23389918798E+01  0.91308468731E+02  0.37288127928E+02  0.98656534652E+02  0.00000000000E+00 0. -1.
</event>
<event>
 7    1  0.2651429E-009  0.1350517E+03  0.7561462E-02  0.1220147E+00
         -1   -1    0    0    0  501 -0.00000000000E+00  0.00000000000E+00  0.32680511033E+03  0.32680511033E+03  0.00000000000E+00 0.  1.
          1   -1    0    0  501    0  0.00000000000E+00 -0.00000000000E+00 -0.91117036654E+02  0.91117036654E+02  0.00000000000E+00 0. -1.
         25    2    1    2    0    0  0.79168157691E+02 -0.60651392565E+02  0.23459700060E+03  0.28395274163E+03  0.12508884113E+03 0.  0.
          5    1    3    3  502    0  0.97380783110E+02 -0.51880457682E+01  0.11526463541E+03  0.15104085975E+03  0.41800000000E+01 0. -1.
         -5    1    3    3    0  502 -0.18212625419E+02 -0.55463346797E+02  0.11933236520E+03  0.13291188188E+03  0.41800000000E+01 0. -1.
        -11    1    1    2    0    0  0.82881032575E+01  0.96764884750E+01 -0.26194667269E+02  0.29128811821E+02  0.00000000000E+00 0. -1.
         11    1    1    2    0    0 -0.87456260948E+02  0.50974904090E+02  0.27285740342E+02  0.10484059353E+03  0.00000000000E+00 0.  1.
</event>
<event>
 7    1  0.2651429E-009  0.1563450E+03  0.7561462E-02  0.1192886E+00
         -3   -1    0    0    0  501 -0.00000000000E+00  0.00000000000E+00  0.72506764339E+03  0.72506764339E+03  0.00000000000E+00 0.  1.
          3   -1    0    0  501    0  0.00000000000E+00 -0.00000000000E+00 -0.35550364959E+02  0.35550364959E+02  0.00000000000E+00 0. -1.
         25    2    1    2    0    0  0.10954575698E+02  0.11786774535E+03  0.34927663652E+03  0.38942885636E+03  0.12509139546E+03 0.  0.
          5    1    3    3  502    0 -0.40152941636E+02  0.36036356642E+01  0.13791469965E+03  0.14374693629E+03  0.41800000000E+01 0. -1.
         -5    1    3    3    0  502  0.51107517335E+02  0.11426410968E+03  0.21136193687E+03  0.24568192007E+03  0.41800000000E+01 0. -1.
        -11    1    1    2    0    0  0.37922693323E+02 -0.41218903815E+02  0.10520593637E+03  0.11918648308E+03  0.00000000000E+00 0. -1.
         11    1    1    2    0    0 -0.48877269021E+02 -0.76648841532E+02  0.23503470554E+03  0.25200266892E+03  0.00000000000E+00 0.  1.
</event>
<event>
 7    1  0.2651429E-009  0.1272464E+03  0.7561462E-02  0.1231600E+00
          2   -1    0    0  501    0  0.00000000000E+00  0.00000000000E+00  0.45383773683E+03  0.45383773683E+03  0.00000000000E+00 0. -1.
         -2   -1    0    0    0  501 -0.00000000000E+00 -0.00000000000E+00 -0.87546304503E+02  0.87546304503E+02  0.00000000000E+00 0.  1.
         25    2    1    2    0    0 -0.68026558302E+02  0.11603018313E+02 -0.14183281088E+02  0.14356457930E+03  0.12508948916E+03 0.  0.
          5    1    3    3  502    0 -0.93517344042E+01  0.62067668119E+02  0.67904882851E+01  0.63272691529E+02  0.41800000000E+01 0. -1.
         -5    1    3    3    0  502 -0.58674823897E+02 -0.50464649806E+02 -0.20973769373E+02  0.80291887767E+02  0.41800000000E+01 0. -1.
        -11    1    1    2    0    0  0.85190346300E+02  0.10785909576E+02  0.31565887648E+03  0.32713033679E+03  0.00000000000E+00 0.  1.
         11    1    1    2    0    0 -0.17163787999E+02 -0.22388927889E+02  0.64815836933E+02  0.70689125245E+02  0.00000000000E+00 0. -1.
</event>
<event>
 7    1  0.2651429E-009  0.1029114E+03  0.7561462E-02  0.1274290E+00
         -2   -1    0    0    0  501 -0.00000000000E+00  0.00000000000E+00  0.28866776759E+03  0.28866776759E+03  0.00000000000E+00 0.  1.
          2   -1    0    0  501    0  0.00000000000E+00 -0.00000000000E+00 -0.51017878127E+02  0.51017878127E+02  0.00000000000E+00 0. -1.
         25    2    1    2    0    0 -0.16511185269E+02 -0.40479429707E+02  0.12154396111E+03  0.17980745910E+03  0.12508630779E+03 0.  0.
          5    1    3    3  502    0  0.29842782473E+02  0.32600961658E+02  0.54262435259E+02  0.70109190889E+02  0.41800000000E+01 0.  1.
         -5    1    3    3    0  502 -0.46353967742E+02 -0.73080391365E+02  0.67281525854E+02  0.10969826821E+03  0.41800000000E+01 0.  1.
        -11    1    1    2    0    0 -0.15160927361E+02 -0.77961549118E+01  0.97848505429E+02  0.99322523953E+02  0.00000000000E+00 0.  1.
         11    1    1    2    0    0  0.31672112630E+02  0.48275584619E+02  0.18257422920E+02  0.60555662661E+02  0.00000000000E+00 0. -1.
</event>
<event>
 7    1  0.2651429E-009  0.8086179E+02  0.7561462E-02  0.1326623E+00
          1   -1    0    0  501    0  0.00000000000E+00  0.00000000000E+00  0.24349953885E+04  0.24349953885E+04  0.00000000000E+00 0. -1.
         -1   -1    0    0    0  501 -0.00000000000E+00 -0.00000000000E+00 -0.73845974887E+01  0.73845974887E+01  0.00000000000E+00 0.  1.
         25    2    1    2    0    0 -0.73440215214E+01  0.44091668791E+02  0.18938938005E+04  0.18985465772E+04  0.12508944114E+03 0.  0.
          5    1    3    3  502    0 -0.21603964740E+02  0.19033318012E+02  0.18000406842E+04  0.18002757944E+04  0.41800000000E+01 0. -1.
         -5    1    3    3    0  502  0.14259943218E+02  0.25058350779E+02  0.93853116305E+02  0.98270782863E+02  0.41800000000E+01 0. -1.
        -11    1    1    2    0    0  0.36997496487E+02  0.12957222229E+02  0.16848012497E+03  0.17298051007E+03  0.00000000000E+00 0.  1.
         11    1    1    2    0    0 -0.29653474965E+02 -0.57048891019E+02  0.36523686553E+03  0.37085289872E+03  0.00000000000E+00 0. -1.
</event>
<event>
 7    1  0.2651429E-009  0.9441940E+02  0.7561462E-02  0.1292489E+00
         -1   -1    0    0    0  501 -0.00000000000E+00  0.00000000000E+00  0.21093060132E+03  0.21093060132E+03  0.00000000000E+00 0.  1.
          1   -1    0    0  501    0  0.00000000000E+00 -0.00000000000E+00 -0.91391676085E+02  0.91391676085E+02  0.00000000000E+00 0. -1.
         25    2    1    2    0    0  0.77041708521E+02  0.27555662369E+02  0.35431037707E+02  0.15361585965E+03  0.12509090504E+03 0.  0.
          5    1    3    3  502    0  0.65741600776E+02  0.42691902747E+02 -0.31020426832E+02  0.84405544330E+02  0.41800000000E+01 0. -1.
         -5    1    3    3    0  502  0.11300107745E+02 -0.15136240378E+02  0.66451464539E+02  0.69210315324E+02  0.41800000000E+01 0. -1.
        -11    1    1    2    0    0 -0.50268403021E+02  0.30128769121E+01 -0.51625012139E+01  0.50622536368E+02  0.00000000000E+00 0. -1.
         11    1    1    2    0    0 -0.26773305501E+02 -0.30568539281E+02  0.89270388740E+02  0.98083881383E+02  0.00000000000E+00 0.  1.
</event>
<event>
 7    1  0.2651429E-009  0.1190062E+03  0.7561462E-02  0.1244746E+00
          2   -1    0    0  501    0  0.00000000000E+00  0.00000000000E+00  0.16926479455E+02  0.16926479455E+02  0.00000000000E+00 0. -1.
         -2   -1    0    0    0  501 -0.00000000000E+00 -0.00000000000E+00 -0.10246011577E+04  0.10246011577E+04  0.00000000000E+00 0.  1.
         25    2    1    2    0    0 -0.43783917027E+02 -0.17559121139E+02 -0.77458170985E+03  0.78603429845E+03  0.12509092288E+03 0.  0.
          5    1    3    3  502    0  0.32884822285E+02  0.28686740212E+02 -0.23377111162E+03  0.23784605447E+03  0.41800000000E+01 0. -1.
         -5    1    3    3    0  502 -0.76668739312E+02 -0.46245861351E+02 -0.54081059823E+03  0.54818824398E+03  0.41800000000E+01 0. -1.
        -11    1    1    2    0    0  0.71957984396E+02  0.12146177511E+01 -0.16491442754E+03  0.17993386348E+03  0.00000000000E+00 0.  1.
         11    1    1    2    0    0 -0.28174067369E+02  0.16344503388E+02 -0.68178540841E+02  0.75559475213E+02  0.00000000000E+00 0. -1.
</event>
<event>
 7    1  0.2651429E-009  0.2138493E+03  0.7561462E-02  0.1138553E+00
          2   -1    0    0  501    0  0.00000000000E+00  0.00000000000E+00  0.96835413124E+03  0.96835413124E+03  0.00000000000E+00 0. -1.
         -2   -1    0    0    0  501 -0.00000000000E+00 -0.00000000000E+00 -0.47352091023E+02  0.47352091023E+02  0.00000000000E+00 0.  1.
         25    2    1    2    0    0 -0.13397489884E+03 -0.12647031025E+03  0.47453649534E+03  0.52418726666E+03  0.12507354729E+03 0.  0.
          5    1    3    3  502    0 -0.11005840139E+03 -0.15152432964E+03  0.38692234149E+03  0.42988236174E+03  0.41800000000E+01 0. -1.
         -5    1    3    3    0  502 -0.23916497457E+02  0.25054019397E+02  0.87614153841E+02  0.94304904919E+02  0.41800000000E+01 0. -1.
        -11    1    1    2    0    0  0.47606773531E+02 -0.53357428870E+01  0.11010120363E+03  0.12007143740E+03  0.00000000000E+00 0. -1.
         11    1    1    2    0    0  0.86368125313E+02  0.13180605313E+03  0.33636434125E+03  0.37144751820E+03  0.00000000000E+00 0.  1.
</event>
<event>
 7    1  0.2651429E-009  0.1381688E+03  0.7561462E-02  0.1215814E+00
         -3   -1    0    0    0  501 -0.00000000000E+00  0.00000000000E+00  0.44916585243E+02  0.44916585243E+02  0.00000000000E+00 0.  1.
          3   -1    0    0  501    0  0.00000000000E+00 -0.00000000000E+00 -0.56857249396E+03  0.56857249396E+03  0.00000000000E+00 0. -1.
         25    2    1    2    0    0 -0.34192089733E+02 -0.10290223810E+03 -0.36640495333E+03  0.40206804421E+03  0.12509257668E+03 0.  0.
          5    1    3    3  502    0  0.33278616462E+02 -0.16365063038E+02 -0.19475326778E+03  0.19829672038E+03  0.41800000000E+01 0.  1.
         -5    1    3    3    0  502 -0.67470706194E+02 -0.86537175064E+02 -0.17165168555E+03  0.20377132382E+03  0.41800000000E+01 0.  1.
        -11    1    1    2    0    0 -0.15569436962E+02  0.64494280441E+02 -0.37594242476E+02  0.76257764485E+02  0.00000000000E+00 0.  1.
         11    1    1    2    0    0  0.49761526695E+02  0.38407957661E+02 -0.11965671291E+03  0.13516327051E+03  0.00000000000E+00 0. -1.
</event>
<event>
 7    1  0.2651429E-009  0.1873622E+03  0.7561462E-02  0.1160862E+00
          1   -1    0    0  501    0  0.00000000000E+00  0.00000000000E+00  0.40103300715E+03  0.40103300715E+03  0.00000000000E+00 0. -1.
         -1   -1    0    0    0  501 -0.00000000000E+00 -0.00000000000E+00 -0.10848149615E+03  0.10848149615E+03  0.00000000000E+00 0.  1.
         25    2    1    2    0    0 -0.13514950221E+03 -0.83023133929E+02  0.54898470116E+02  0.20933116419E+03  0.12508982998E+03 0.  0.
          5    1    3    3  502    0 -0.15066502483E+03 -0.57154831556E+02  0.19086449106E+02  0.16232186980E+03  0.41800000000E+01 0. -1.
         -5    1    3    3    0  502  0.15515522619E+02 -0.25868302373E+02  0.35812021010E+02  0.47009294385E+02  0.41800000000E+01 0. -1.
        -11    1    1    2    0    0  0.12182843630E+03  0.26071378968E+02  0.16974500296E+03  0.21055937577E+03  0.00000000000E+00 0.  1.
         11    1    1    2    0    0  0.13321065907E+02  0.56951754960E+02  0.67908037928E+02  0.89623963343E+02  0.00000000000E+00 0. -1.
</event>
<event>
 7    1  0.2651429E-009  0.1117990E+03  0.7561462E-02  0.1257274E+00
          2   -1    0    0  501    0  0.00000000000E+00  0.00000000000E+00  0.39664454930E+03  0.39664454930E+03  0.00000000000E+00 0.  1.
         -2   -1    0    0    0  501 -0.00000000000E+00 -0.00000000000E+00 -0.55274401820E+02  0.55274401820E+02  0.00000000000E+00 0. -1.
         25    2    1    2    0    0  0.66758201146E+02  0.63658140086E+02  0.24392325368E+03  0.28923220759E+03  0.12509076707E+03 0.  0.
          5    1    3    3  502    0 -0.17581339007E+02  0.34389403174E+02  0.11960197202E+02  0.40647918140E+02  0.41800000000E+01 0. -1.
         -5    1    3    3    0  502  0.84339540153E+02  0.29268736912E+02  0.23196305648E+03  0.24858428946E+03  0.41800000000E+01 0. -1.
        -11    1    1    2    0    0 -0.32757670138E+02 -0.15027928514E+02  0.96858499059E+02  0.10334637114E+03  0.00000000000E+00 0.  1.
         11    1    1    2    0    0 -0.34000531007E+02 -0.48630211572E+02  0.58839474269E+00  0.59340372384E+02  0.00000000000E+00 0. -1.
</event>
<event>
 7    1  0.2651429E-009  0.9261915E+02  0.7561462E-02  0.1296630E+00
         -2   -1    0    0    0  501 -0.00000000000E+00  0.00000000000E+00  0.80627138998E+02  0.80627138998E+02  0.00000000000E+00 0.  1.
          2   -1    0    0  501    0  0.00000000000E+00 -0.00000000000E+00 -0.27006921790E+03  0.27006921790E+03  0.00000000000E+00 0. -1.
         25    2    1    2    0    0 -0.27216170518E+01 -0.67707649474E+02 -0.18542163715E+03  0.23370862904E+03  0.12508719666E+03 0.  0.
          5    1    3    3  502    0  0.22405618579E+02 -0.15575367286E+02 -0.17193781931E+03  0.17413985736E+03  0.41800000000E+01 0.  1.
         -5    1    3    3    0  502 -0.25127235631E+02 -0.52132282188E+02 -0.13483817837E+02  0.59568771685E+02  0.41800000000E+01 0.  1.
        -11    1    1    2    0    0  0.35554622316E+02  0.17520759747E+02 -0.31873342668E+02  0.50862738453E+02  0.00000000000E+00 0. -1.
         11    1    1    2    0    0 -0.32833005264E+02  0.50186889726E+02  0.27852900912E+02  0.66124989408E+02  0.00000000000E+00 0.  1.
</event>
<event>
 7    1  0.2651429E-009  0.1378837E+03  0.7561462E-02  0.1216205E+00
          1   -1    0    0  501    0  0.00000000000E+00  0.00000000000E+00  0.15853280942E+03  0.15853280942E+03  0.00000000000E+00 0. -1.
         -1   -1    0    0    0  501 -0.00000000000E+00 -0.00000000000E+00 -0.16837716983E+03  0.16837716983E+03  0.00000000000E+00 0.  1.
         25    2    1    2    0    0 -0.98231554697E+02  0.53395409048E+02  0.45195537185E+02  0.17379846924E+03  0.12515096198E+03 0.  0.
          5    1    3    3  502    0  0.14756198240E+01  0.63496773581E+02  0.35866439834E+02  0.73060876093E+02  0.41800000000E+01 0.  1.
         -5    1    3    3    0  502 -0.99707174521E+02 -0.10101364533E+02  0.93290973512E+01  0.10073759315E+03  0.41800000000E+01 0.  1.
        -11    1    1    2    0    0  0.46892541027E+02 -0.24840786775E+02 -0.74286526255E+02  0.91293280556E+02  0.00000000000E+00 0.  1.
         11    1    1    2    0    0  0.51339013671E+02 -0.28554622274E+02  0.19246628663E+02  0.61818229453E+02  0.00000000000E+00 0. -1.
</event>
<event>
 7    1  0.2651429E-009  0.1413698E+03  0.7561462E-02  0.1211498E+00
          2   -1    0    0  501    0  0.00000000000E+00  0.00000000000E+00  0.61282051175E+03  0.61282051175E+03  0.00000000000E+00 0. -1.
         -2   -1    0    0    0  501 -0.00000000000E+00 -0.00000000000E+00 -0.43085255389E+02  0.43085255389E+02  0.00000000000E+00 0.  1.
         25    2    1    2    0    0  0.68599103679E+02 -0.98568002132E+02  0.29683704754E+03  0.34379091876E+03  0.12513382819E+03 0.  0.
          5    1    3    3  502    0  0.89405136404E+02 -0.72261422034E+02  0.28604783778E+03  0.30831125414E+03  0.41800000000E+01 0. -1.
         -5    1    3    3    0  502 -0.20806032725E+02 -0.26306580098E+02  0.10789209761E+02  0.35479664619E+02  0.41800000000E+01 0. -1.
        -11    1    1    2    0    0 -0.79556089280E+02  0.84215414586E+02  0.27002859926E+03  0.29383133226E+03  0.00000000000E+00 0.  1.
         11    1    1    2    0    0  0.10956985601E+02  0.14352587546E+02  0.28696095509E+01  0.18283516120E+02  0.00000000000E+00 0. -1.
</event>
<event>
 7    1  0.2651429E-009  0.1353262E+03  0.7561462E-02  0.1219760E+00
         -1   -1    0    0    0  501 -0.00000000000E+00  0.00000000000E+00  0.28091567426E+02  0.28091567426E+02  0.00000000000E+00 0.  1.
          1   -1    0    0  501    0  0.00000000000E+00 -0.00000000000E+00 -0.76359421082E+03  0.76359421082E+03  0.00000000000E+00 0. -1.
         25    2    1    2    0    0 -0.89155074365E+02 -0.11073538305E+01 -0.51052298759E+03  0.53313416829E+03  0.12509383286E+03 0.  0.
          5    1    3    3  502    0 -0.50168788577E+02 -0.58401775416E+02 -0.34735857816E+03  0.35581333440E+03  0.41800000000E+01 0.  1.
         -5    1    3    3    0  502 -0.38986285789E+02  0.57294421586E+02 -0.16316440944E+03  0.17732083389E+03  0.41800000000E+01 0.  1.
        -11    1    1    2    0    0 -0.10994984076E+02 -0.19019203980E+02 -0.20845720028E+02  0.30284712948E+02  0.00000000000E+00 0.  1.
         11    1    1    2    0    0  0.10015005844E+03  0.20126557811E+02 -0.20413393577E+03  0.22826689700E+03  0.00000000000E+00 0. -1.
</event>
<event>
 7    1  0.2651429E-009  0.7764231E+02  0.7561462E-02  0.1335879E+00
          2   -1    0    0  501    0  0.00000000000E+00  0.00000000000E+00  0.31277018853E+03  0.31277018853E+03  0.00000000000E+00 0. -1.
         -2   -1    0    0    0  501 -0.00000000000E+00 -0.00000000000E+00 -0.42147556264E+02  0.42147556264E+02  0.00000000000E+00 0.  1.
         25    2    1    2    0    0 -0.22013351738E+02 -0.26396634188E+02  0.11955207358E+03  0.17642002715E+03  0.12509979110E+03 0.  0.
          5    1    3    3  502    0 -0.57479386888E+02 -0.33632878118E+02  0.18865067072E+02  0.69342725380E+02  0.41800000000E+01 0. -1.
         -5    1    3    3    0  502  0.35466035150E+02  0.72362439299E+01  0.10068700651E+03  0.10707730177E+03  0.41800000000E+01 0. -1.
        -11    1    1    2    0    0  0.32295974544E+02  0.26593009635E+02  0.15968984332E+03  0.16507896351E+03  0.00000000000E+00 0. -1.
         11    1    1    2    0    0 -0.10282622806E+02 -0.19637544693E+00 -0.86192846294E+01  0.13418754138E+02  0.00000000000E+00 0.  1.
</event>
<event>
 7    1  0.2651429E-009  0.1094526E+03  0.7561462E-02  0.1261587E+00
          2   -1    0    0  501    0  0.00000000000E+00  0.00000000000E+00  0.22350941082E+03  0.22350941082E+03  0.00000000000E+00 0. -1.
         -2   -1    0    0    0  501 -0.00000000000E+00 -0.00000000000E+00 -0.89064509808E+02  0.89064509808E+02  0.00000000000E+00 0.  1.
         25    2    1    2    0    0  0.80828223420E+02  0.36301227931E+02  0.64552284442E+02  0.16632985045E+03  0.12509053071E+03 0.  0.
          5    1    3    3  502    0  0.58753853199E+02  0.68634970301E+02  0.83084127638E+02  0.12281375770E+03  0.41800000000E+01 0. -1.
         -5    1    3    3    0  502  0.22074370220E+02 -0.32333742370E+02 -0.18531843195E+02  0.43516092753E+02  0.41800000000E+01 0. -1.
        -11    1    1    2    0    0 -0.31653890574E+02 -0.93192052046E+01 -0.21233598106E+02  0.39238782635E+02  0.00000000000E+00 0.  1.
         11    1    1    2    0    0 -0.49174332846E+02 -0.26982022726E+02  0.91126214679E+02  0.10700528755E+03  0.00000000000E+00 0. -1.
</event>
<event>
 7    1  0.2651429E-009  0.1215647E+03  0.7561462E-02  0.1240538E+00
          2   -1    0    0  501    0  0.00000000000E+00  0.00000000000E+00  0.11418460577E+04  0.11418460577E+04  0.00000000000E+00 0.  1.
         -2   -1    0    0    0  501 -0.00000000000E+00 -0.00000000000E+00 -0.21228627804E+02  0.21228627804E+02  0.00000000000E+00 0. -1.
         25    2    1    2    0    0  0.43773915968E+02 -0.89020300961E+02  0.78496402552E+03  0.80103440373E+03  0.12508726908E+03 0.  0.
          5    1    3    3  502    0 -0.98892224699E+01 -0.36450940105E+02  0.53004664553E+02  0.65218361065E+02  0.41800000000E+01 0. -1.
         -5    1    3    3    0  502  0.53663138438E+02 -0.52569360856E+02  0.73195936097E+03  0.73581604266E+03  0.41800000000E+01 0. -1.
        -11    1    1    2    0    0  0.31411922674E+01 -0.15241320517E+02  0.15000382848E+02  0.21614264399E+02  0.00000000000E+00 0. -1.
         11    1    1    2    0    0 -0.46915108236E+02  0.10426162148E+03  0.32065302152E+03  0.34042601737E+03  0.00000000000E+00 0.  1.
</event>
<event>
 7    1  0.2651429E-009  0.1143783E+03  0.7561462E-02  0.1252670E+00
         -1   -1    0    0    0  501 -0.00000000000E+00  0.00000000000E+00  0.39173876372E+02  0.39173876372E+02  0.00000000000E+00 0. -1.
          1   -1    0    0  501    0  0.00000000000E+00 -0.00000000000E+00 -0.44662630984E+03  0.44662630984E+03  0.00000000000E+00 0.  1.
         25    2    1    2    0    0 -0.35627395715E+01 -0.64222054585E+02 -0.30390956808E+03  0.33488602077E+03  0.12510178228E+03 0.  0.
          5    1    3    3  502    0 -0.52917243525E+02  0.65986768053E+01 -0.99728292397E+02  0.11316793672E+03  0.41800000000E+01 0. -1.
         -5    1    3    3    0  502  0.49354503954E+02 -0.70820731391E+02 -0.20418127568E+03  0.22171808405E+03  0.41800000000E+01 0. -1.
        -11    1    1    2    0    0 -0.26505220554E+02  0.13175667245E+02 -0.83146163168E+02  0.88257630682E+02  0.00000000000E+00 0.  1.
         11    1    1    2    0    0  0.30067960126E+02  0.51046387340E+02 -0.20396702224E+02  0.62656534761E+02  0.00000000000E+00 0. -1.
</event>
<event>
 7    1  0.2651429E-009  0.1629354E+03  0.7561462E-02  0.1185422E+00
         -1   -1    0    0    0  501 -0.00000000000E+00  0.00000000000E+00  0.13778670662E+03  0.13778670662E+03  0.00000000000E+00 0.  1.
          1   -1    0    0  501    0  0.00000000000E+00 -0.00000000000E+00 -0.27663157037E+03  0.27663157037E+03  0.00000000000E+00 0. -1.
         25    2    1    2    0    0 -0.98491089979E+01  0.14963028317E+03 -0.13684749708E+03  0.23845586350E+03  0.12509090611E+03 0.  0.
          5    1    3    3  502    0 -0.22841856654E+02  0.15375810300E+03 -0.15213889283E+03  0.21754774135E+03  0.41800000000E+01 0.  1.
         -5    1    3    3    0  502  0.12992747656E+02 -0.41278198349E+01  0.15291395744E+02  0.20908122155E+02  0.41800000000E+01 0.  1.
        -11    1    1    2    0    0  0.18978132634E+02 -0.26247292253E+02 -0.35230080420E+02  0.47856540151E+02  0.00000000000E+00 0. -1.
         11    1    1    2    0    0 -0.91290236356E+01 -0.12338299092E+03  0.33232713756E+02  0.12810587334E+03  0.00000000000E+00 0.  1.
</event>
<event>
 7    1  0.2651429E-009  0.1622758E+03  0.7561462E-02  0.1186151E+00
          1   -1    0    0  501    0  0.00000000000E+00  0.00000000000E+00  0.18940948112E+03  0.18940948112E+03  0.00000000000E+00 0. -1.
         -1   -1    0    0    0  501 -0.00000000000E+00 -0.00000000000E+00 -0.15712389256E+03  0.15712389256E+03  0.00000000000E+00 0.  1.
         25    2    1    2    0    0  0.72113363780E+02  0.10453071908E+03  0.57458484779E+02  0.18731610782E+03  0.12513528003E+03 0.  0.
          5    1    3    3  502    0  0.53612423220E+02 -0.16109758714E+02  0.16580484953E+02  0.58533760606E+02  0.41800000000E+01 0. -1.
         -5    1    3    3    0  502  0.18500940560E+02  0.12064047779E+03  0.40877999827E+02  0.12878234721E+03  0.41800000000E+01 0. -1.
        -11    1    1    2    0    0 -0.94329651801E+01 -0.77433681923E+02  0.15787789109E+02  0.79587751653E+02  0.00000000000E+00 0. -1.
         11    1    1    2    0    0 -0.62680398600E+02 -0.27097037154E+02 -0.40960685325E+02  0.79629514210E+02  0.00000000000E+00 0.  1.
</event>
<event>
 7    1  0.2651429E-009  0.1623580E+03  0.7561462E-02  0.1186060E+00
         -2   -1    0    0    0  501 -0.00000000000E+00  0.00000000000E+00  0.26570676450E+03  0.26570676450E+03  0.00000000000E+00 0.  1.
          2   -1    0    0  501    0  0.00000000000E+00 -0.00000000000E+00 -0.10857999508E+03  0.10857999508E+03  0.00000000000E+00 0. -1.
         25    2    1    2    0    0 -0.12391782707E+03 -0.37358844194E+02  0.64463092235E+02  0.19119088493E+03  0.12508858108E+03 0.  0.
          5    1    3    3  502    0 -0.38832330495E+01 -0.57848200291E+02  0.19352565079E+02  0.61265715951E+02  0.41800000000E+01 0. -1.
         -5    1    3    3    0  502 -0.12003459402E+03  0.20489356098E+02  0.45110527156E+02  0.12992516898E+03  0.41800000000E+01 0. -1.
        -11    1    1    2    0    0  0.38380292932E+02 -0.18476901305E+02  0.64217520930E+02  0.77060578520E+02  0.00000000000E+00 0.  1.
         11    1    1    2    0    0  0.85537534134E+02  0.55835745499E+02  0.28446156253E+02  0.10603529614E+03  0.00000000000E+00 0. -1.
</event>
<event>
 7    1  0.2651429E-009  0.1189096E+03  0.7561462E-02  0.1244907E+00
         -1   -1    0    0    0  501 -0.00000000000E+00  0.00000000000E+00  0.66392423806E+03  0.66392423806E+03  0.00000000000E+00 0.  1.
          1   -1    0    0  501    0  0.00000000000E+00 -0.00000000000E+00 -0.22504158861E+02  0.22504158861E+02  0.00000000000E+00 0. -1.
         25    2    1    2    0    0 -0.47114930190E+02  0.27378188982E+02  0.42598246325E+03  0.44730227853E+03  0.12509551353E+03 0.  0.
          5    1    3    3  502    0 -0.75208346736E+02 -0.22128182283E+02  0.27107861754E+03  0.28221807376E+03  0.41800000000E+01 0.  1.
         -5    1    3    3    0  502  0.28093416545E+02  0.49506371265E+02  0.15490384571E+03  0.16508420477E+03  0.41800000000E+01 0.  1.
        -11    1    1    2    0    0 -0.14618129851E+02 -0.36976918684E+02  0.64514703230E+02  0.75783435978E+02  0.00000000000E+00 0. -1.
         11    1    1    2    0    0  0.61733060041E+02  0.95987297020E+01  0.15092291271E+03  0.16334268241E+03  0.00000000000E+00 0.  1.
</event>
<event>
 7    1  0.2651429E-009  0.2107574E+03  0.7561462E-02  0.1140968E+00
          1   -1    0    0  501    0  0.00000000000E+00  0.00000000000E+00  0.25012016502E+03  0.25012016502E+03  0.00000000000E+00 0. -1.
         -1   -1    0    0    0  501 -0.00000000000E+00 -0.00000000000E+00 -0.22313863969E+03  0.22313863969E+03  0.00000000000E+00 0.  1.
         25    2    1    2    0    0 -0.18375183675E+03 -0.68642638616E+02  0.87353154063E+02  0.24850530699E+03  0.12509102580E+03 0.  0.
          5    1    3    3  502    0 -0.62093266188E+02  0.29410306471E+02 -0.12216900970E+01  0.68844061177E+02  0.41800000000E+01 0. -1.
         -5    1    3    3    0  502 -0.12165857056E+03 -0.98052945087E+02  0.88574844160E+02  0.17966124582E+03  0.41800000000E+01 0. -1.
        -11    1    1    2    0    0  0.36326008891E+02  0.17554846238E+02 -0.55546103260E+02  0.68652175026E+02  0.00000000000E+00 0.  1.
         11    1    1    2    0    0  0.14742582785E+03  0.51087792378E+02 -0.48255254751E+01  0.15610132269E+03  0.00000000000E+00 0. -1.
</event>
<event>
 7    1  0.2651429E-009  0.1298594E+03  0.7561462E-02  0.1227664E+00
         -2   -1    0    0    0  501 -0.00000000000E+00  0.00000000000E+00  0.61951158128E+02  0.61951158128E+02  0.00000000000E+00 0. -1.
          2   -1    0    0  501    0  0.00000000000E+00 -0.00000000000E+00 -0.30977068412E+03  0.30977068412E+03  0.00000000000E+00 0.  1.
         25    2    1    2    0    0  0.44486877844E+02 -0.63853465844E+02 -0.98274329881E+02  0.17709349447E+03  0.12509162430E+03 0.  0.
          5    1    3    3  502    0  0.62839088407E+02  0.15374858359E+02 -0.54187118833E+02  0.84491736571E+02  0.41800000000E+01 0. -1.
         -5    1    3    3    0  502 -0.18352210563E+02 -0.79228324203E+02 -0.44087211049E+02  0.92601757902E+02  0.41800000000E+01 0. -1.
        -11    1    1    2    0    0 -0.39882999632E+02  0.83895962954E+02 -0.14702166665E+03  0.17390962229E+03  0.00000000000E+00 0.  1.
         11    1    1    2    0    0 -0.46038782118E+01 -0.20042497110E+02 -0.25235294631E+01  0.20718725491E+02  0.00000000000E+00 0. -1.
</event>
<event>
 7    1  0.2651429E-009  0.9040298E+02  0.7561462E-02  0.1301879E+00
         -2   -1    0    0    0  501 -0.00000000000E+00  0.00000000000E+00  0.26718640320E+03  0.26718640320E+03  0.00000000000E+00 0.  1.
          2   -1    0    0  501    0  0.00000000000E+00 -0.00000000000E+00 -0.53282558934E+02  0.53282558934E+02  0.00000000000E+00 0. -1.
         25    2    1    2    0    0 -0.12594821082E+02 -0.45893371442E+02  0.12026554597E+03  0.17995313905E+03  0.12511794293E+03 0.  0.
          5    1    3    3  502    0 -0.14691533611E+02 -0.61274851856E+02  0.47545200886E+01  0.63328717744E+02  0.41800000000E+01 0. -1.
         -5    1    3    3    0  502  0.20967125294E+01  0.15381480415E+02  0.11551102588E+03  0.11662442130E+03  0.41800000000E+01 0. -1.
        -11    1    1    2    0    0 -0.30849367290E+02  0.49132515132E+02  0.36039720712E+02  0.68297503427E+02  0.00000000000E+00 0. -1.
         11    1    1    2    0    0  0.43444188371E+02 -0.32391436900E+01  0.57598577578E+02  0.72218319657E+02  0.00000000000E+00 0.  1.
</event>
<event>
 7    1  0.2651429E-009  0.1339132E+03  0.7561462E-02  0.1221762E+00
         -2   -1    0    0    0  501 -0.00000000000E+00  0.00000000000E+00  0.95650009914E+02  0.95650009914E+02  0.00000000000E+00 0.  1.
          2   -1    0    0  501    0  0.00000000000E+00 -0.00000000000E+00 -0.43435466680E+03  0.43435466680E+03  0.00000000000E+00 0. -1.
         25    2    1    2    0    0  0.11640401514E+03 -0.40170547390E+02 -0.20444326454E+02  0.17671854331E+03  0.12509158824E+03 0.  0.
          5    1    3    3  502    0  0.29395495767E+02  0.12406520630E+02  0.45310094925E+02  0.55574220891E+02  0.41800000000E+01 0. -1.
         -5    1    3    3    0  502  0.87008519369E+02 -0.52577068020E+02 -0.65754421379E+02  0.12114432242E+03  0.41800000000E+01 0. -1.
        -11    1    1    2    0    0 -0.10331685233E+03  0.13503083674E+02 -0.15132235356E+03  0.18372577373E+03  0.00000000000E+00 0.  1.
         11    1    1    2    0    0 -0.13087162809E+02  0.26667463717E+02 -0.16693797687E+03  0.16956035967E+03  0.00000000000E+00 0. -1.
</event>
<event>
 6    1  0.2651429E-009  0.1034245E+03  0.7561462E-02  0.1273255E+00
          1   -1    0    0  501    0  0.00000000000E+00  0.00000000000E+00  0.21142223430E+02  0.21142223430E+02  0.00000000000E+00 0. -1.
         -1   -1    0    0    0  501 -0.00000000000E+00 -0.00000000000E+00 -0.75288794684E+03  0.75288794684E+03  0.00000000000E+00 0.  1.
          5    1    1    2  502    0  0.39540236590E+02  0.17938596872E+02 -0.40352126264E+03  0.40587203078E+03  0.41800000000E+01 0. -1.
         -5    1    1    2    0  502  0.57861273134E+01 -0.54549677733E+02 -0.80755296473E+02  0.97714056914E+02  0.41800000000E+01 0. -1.
        -11    1    1    2    0    0  0.17426857924E+02  0.41759967620E+02 -0.87000785725E+02  0.98064912122E+02  0.00000000000E+00 0. -1.
         11    1    1    2    0    0 -0.62753221828E+02 -0.51488867590E+01 -0.16046837856E+03  0.17237917045E+03  0.00000000000E+00 0.  1.
</event>
<event>
 7    1  0.2651429E-009  0.9306971E+02  0.7561462E-02  0.1295584E+00
          1   -1    0    0  501    0  0.00000000000E+00  0.00000000000E+00  0.67701313375E+02  0.67701313375E+02  0.00000000000E+00 0. -1.
         -1   -1    0    0    0  501 -0.00000000000E+00 -0.00000000000E+00 -0.21492188074E+03  0.21492188074E+03  0.00000000000E+00 0.  1.
         25    2    1    2    0    0 -0.46609216534E+01 -0.49722017458E+02 -0.61971805450E+02  0.14826886612E+03  0.12509655782E+03 0.  0.
          5    1    3    3  502    0  0.48903098664E+02 -0.22645602618E+02 -0.69048797453E+02  0.87690051925E+02  0.41800000000E+01 0.  1.
         -5    1    3    3    0  502 -0.53564020317E+02 -0.27076414840E+02  0.70769920027E+01  0.60578814192E+02  0.41800000000E+01 0.  1.
        -11    1    1    2    0    0  0.27719370326E+02  0.19425411974E+02 -0.89840306827E+02  0.96005160551E+02  0.00000000000E+00 0.  1.
         11    1    1    2    0    0 -0.23058448672E+02  0.30296605484E+02  0.45915449142E+01  0.38349167445E+02  0.00000000000E+00 0. -1.
</event>
<event>
 7    1  0.2651429E-009  0.3364771E+03  0.7561462E-02  0.1068306E+00
         -2   -1    0    0    0  501 -0.00000000000E+00  0.00000000000E+00  0.10382692423E+03  0.10382692423E+03  0.00000000000E+00 0. -1.
          2   -1    0    0  501    0  0.00000000000E+00 -0.00000000000E+00 -0.12031840026E+04  0.12031840026E+04  0.00000000000E+00 0.  1.
         25    2    1    2    0    0  0.22856553292E+03 -0.23504416202E+03 -0.69308405639E+03  0.77685792810E+03  0.12511902449E+03 0.  0.
          5    1    3    3  502    0  0.17099045310E+03 -0.12526251247E+03 -0.53806547338E+03  0.57832547768E+03  0.41800000000E+01 0. -1.
         -5    1    3    3    0  502  0.57575079825E+02 -0.10978164955E+03 -0.15501858301E+03  0.19853245042E+03  0.41800000000E+01 0. -1.
        -11    1    1    2    0    0 -0.98539644652E+02  0.15671141882E+03 -0.18412858909E+03  0.26109742947E+03  0.00000000000E+00 0. -1.
         11    1    1    2    0    0 -0.13002588827E+03  0.78332743194E+02 -0.22214443288E+03  0.26905556924E+03  0.00000000000E+00 0.  1.
</event>
<event>
 7    1  0.2651429E-009  0.1405767E+03  0.7561462E-02  0.1212555E+00
          1   -1    0    0  501    0  0.00000000000E+00  0.00000000000E+00  0.45181954335E+02  0.45181954335E+02  0.00000000000E+00 0. -1.
         -1   -1    0    0    0  501 -0.00000000000E+00 -0.00000000000E+00 -0.64583043233E+03  0.64583043233E+03  0.00000000000E+00 0.  1.
         25    2    1    2    0    0 -0.72895819899E+02  0.77334953180E+02 -0.39262078950E+03  0.42555049260E+03  0.12509053468E+03 0.  0.
          5    1    3    3  502    0 -0.59349316368E+02  0.10671907283E+03 -0.23806408722E+03  0.26758789936E+03  0.41800000000E+01 0. -1.
         -5    1    3    3    0  502 -0.13546503531E+02 -0.29384119648E+02 -0.15455670227E+03  0.15796259324E+03  0.41800000000E+01 0. -1.
        -11    1    1    2    0    0  0.30987095984E+02 -0.78526293753E+02 -0.42128802343E+02  0.94347310056E+02  0.00000000000E+00 0. -1.
         11    1    1    2    0    0  0.41908723915E+02  0.11913405722E+01 -0.16589888616E+03  0.17111458401E+03  0.00000000000E+00 0.  1.
</event>
<event>
 7    1  0.2651429E-009  0.9273953E+02  0.7561462E-02  0.1296350E+00
          2   -1    0    0  501    0  0.00000000000E+00  0.00000000000E+00  0.96800111948E+03  0.96800111948E+03  0.00000000000E+00 0. -1.
         -2   -1    0    0    0  501 -0.00000000000E+00 -0.00000000000E+00 -0.26581876547E+02  0.26581876547E+02  0.00000000000E+00 0.  1.
         25    2    1    2    0    0  0.89414515853E+01 -0.48209019475E+02  0.83002941806E+03  0.84083363782E+03  0.12509321531E+03 0.  0.
          5    1    3    3  502    0  0.21224437733E+02 -0.59036628684E+02  0.18146332696E+03  0.19204742049E+03  0.41800000000E+01 0. -1.
         -5    1    3    3    0  502 -0.12282986148E+02  0.10827609210E+02  0.64856609110E+03  0.64878621733E+03  0.41800000000E+01 0. -1.
        -11    1    1    2    0    0  0.15506378862E+02 -0.24500495484E+02  0.35601806103E+02  0.45915255223E+02  0.00000000000E+00 0. -1.
         11    1    1    2    0    0 -0.24447830447E+02  0.72709514958E+02  0.75788018768E+02  0.10783410299E+03  0.00000000000E+00 0.  1.
</event>
<event>
 7    1  0.2651429E-009  0.9255174E+02  0.7561462E-02  0.1296787E+00
          1   -1    0    0  501    0  0.00000000000E+00  0.00000000000E+00  0.40972152112E+02  0.40972152112E+02  0.00000000000E+00 0. -1.
         -1   -1    0    0    0  501 -0.00000000000E+00 -0.00000000000E+00 -0.33608672791E+03  0.33608672791E+03  0.00000000000E+00 0.  1.
         25    2    1    2    0    0  0.16531931446E+02  0.28832015280E+02 -0.12016400640E+03  0.17661308099E+03  0.12509277390E+03 0.  0.
          5    1    3    3  502    0 -0.45759407500E+02 -0.84609456190E+00 -0.10760623455E+02  0.47200663850E+02  0.41800000000E+01 0. -1.
         -5    1    3    3    0  502  0.62291338946E+02  0.29678109842E+02 -0.10940338294E+03  0.12941241714E+03  0.41800000000E+01 0. -1.
        -11    1    1    2    0    0  0.18368928331E+02 -0.29911740540E+02 -0.17598832745E+02  0.39266380838E+02  0.00000000000E+00 0. -1.
         11    1    1    2    0    0 -0.34900859777E+02  0.10797252597E+01 -0.15735173665E+03  0.16117941819E+03  0.00000000000E+00 0.  1.
</event>
<event>
 7    1  0.2651429E-009  0.1836011E+03  0.7561462E-02  0.1164363E+00
         -2   -1    0    0    0  501 -0.00000000000E+00  0.00000000000E+00  0.39192478052E+03  0.39192478052E+03  0.00000000000E+00 0.  1.
          2   -1    0    0  501    0  0.00000000000E+00 -0.00000000000E+00 -0.10215080622E+03  0.10215080622E+03  0.00000000000E+00 0. -1.
         25    2    1    2    0    0 -0.12511443060E+02  0.16706784751E+03  0.15697472233E+03  0.26144843792E+03  0.12508405319E+03 0.  0.
          5    1    3    3  502    0  0.45637470312E+02  0.53303787060E+02  0.17879233236E+02  0.72534211187E+02  0.41800000000E+01 0.  1.
         -5    1    3    3    0  502 -0.58148913372E+02  0.11376406045E+03  0.13909548909E+03  0.18891422674E+03  0.41800000000E+01 0.  1.
        -11    1    1    2    0    0  0.14518889617E+02 -0.52004143423E+02 -0.36638454400E+01  0.54117029226E+02  0.00000000000E+00 0. -1.
         11    1    1    2    0    0 -0.20074465562E+01 -0.11506370409E+03  0.13646309742E+03  0.17851011960E+03  0.00000000000E+00 0.  1.
</event>
<event>
 7    1  0.2651429E-009  0.1195025E+03  0.7561462E-02  0.1243920E+00
          2   -1    0    0  501    0  0.00000000000E+00  0.00000000000E+00  0.10675840338E+03  0.10675840338E+03  0.00000000000E+00 0. -1.
         -2   -1    0    0    0  501 -0.00000000000E+00 -0.00000000000E+00 -0.16569478018E+03  0.16569478018E+03  0.00000000000E+00 0.  1.
         25    2    1    2    0    0 -0.40914478497E+02  0.63385299825E+02 -0.17478069523E+02  0.14712251994E+03  0.12509141527E+03 0.  0.
          5    1    3    3  502    0  0.39234953601E+02  0.44231256944E+02  0.10092556889E+02  0.60125849512E+02  0.41800000000E+01 0. -1.
         -5    1    3    3    0  502 -0.80149432099E+02  0.19154042881E+02 -0.27570626412E+02  0.86996670426E+02  0.41800000000E+01 0. -1.
        -11    1    1    2    0    0  0.29882394401E+02  0.29000159293E+01 -0.49253914184E+02  0.57682888710E+02  0.00000000000E+00 0.  1.
         11    1    1    2    0    0  0.11032084097E+02 -0.66285315754E+02  0.77956069012E+01  0.67647774916E+02  0.00000000000E+00 0. -1.
</event>
<event>
 7    1  0.2651429E-009  0.1023353E+03  0.7561462E-02  0.1275460E+00
         -1   -1    0    0    0  501 -0.00000000000E+00  0.00000000000E+00  0.10118290916E+03  0.10118290916E+03  0.00000000000E+00 0.  1.
          1   -1    0    0  501    0  0.00000000000E+00 -0.00000000000E+00 -0.13322082629E+03  0.13322082629E+03  0.00000000000E+00 0. -1.
         25    2    1    2    0    0  0.39881765393E+02 -0.11813646022E+02 -0.10592357373E+02  0.13228145815E+03  0.12512421306E+03 0.  0.
          5    1    3    3  502    0 -0.30307012097E+02 -0.22387890748E+02  0.31815299353E+02  0.49491598351E+02  0.41800000000E+01 0.  1.
         -5    1    3    3    0  502  0.70188777490E+02  0.10574244725E+02 -0.42407656726E+02  0.82789859802E+02  0.41800000000E+01 0.  1.
        -11    1    1    2    0    0 -0.55063642754E+01  0.46498192708E+02  0.41157266467E+01  0.47003629419E+02  0.00000000000E+00 0.  1.
         11    1    1    2    0    0 -0.34375401118E+02 -0.34684546686E+02 -0.25561286406E+02  0.55118647875E+02  0.00000000000E+00 0. -1.
</event>
<event>
 7    1  0.2651429E-009  0.1042364E+03  0.7561462E-02  0.1271631E+00
          2   -1    0    0  501    0  0.00000000000E+00  0.00000000000E+00  0.16602745200E+03  0.16602745200E+03  0.00000000000E+00 0.  1.
         -2   -1    0    0    0  501 -0.00000000000E+00 -0.00000000000E+00 -0.80316375733E+02  0.80316375733E+02  0.00000000000E+00 0. -1.
         25    2    1    2    0    0 -0.96124015595E+01  0.34412725424E+02  0.69109741634E+02  0.14730911789E+03  0.12508871208E+03 0.  0.
          5    1    3    3  502    0 -0.17396502852E+02  0.80846305205E+02  0.45309393324E+02  0.94388436263E+02  0.41800000000E+01 0.  1.
         -5    1    3    3    0  502  0.77841012929E+01 -0.46433579782E+02  0.23800348310E+02  0.52920681628E+02  0.41800000000E+01 0.  1.
        -11    1    1    2    0    0 -0.29784130135E+02 -0.22233694812E+02  0.37505744263E+02  0.52802579914E+02  0.00000000000E+00 0.  1.
         11    1    1    2    0    0  0.39396531694E+02 -0.12179030611E+02 -0.20904409627E+02  0.46232129932E+02  0.00000000000E+00 0. -1.
</event>
<event>
 7    1  0.2651429E-009  0.9089447E+02  0.7561462E-02  0.1300700E+00
          1   -1    0    0  501    0  0.00000000000E+00  0.00000000000E+00  0.21987663971E+02  0.21987663971E+02  0.00000000000E+00 0. -1.
         -1   -1    0    0    0  501 -0.00000000000E+00 -0.00000000000E+00 -0.10113996290E+04  0.10113996290E+04  0.00000000000E+00 0.  1.
         25    2    1    2    0    0  0.63616940235E+02  0.41491475479E+02 -0.77114079291E+03  0.78490310797E+03  0.12508440668E+03 0.  0.
          5    1    3    3  502    0  0.29945018699E+02  0.59675112396E+02 -0.70655617085E+03  0.70971608278E+03  0.41800000000E+01 0.  1.
         -5    1    3    3    0  502  0.33671921535E+02 -0.18183636917E+02 -0.64584622054E+02  0.75187025192E+02  0.41800000000E+01 0.  1.
        -11    1    1    2    0    0 -0.33730156470E+02 -0.26866974419E+02 -0.20975056525E+03  0.21413747312E+03  0.00000000000E+00 0.  1.
         11    1    1    2    0    0 -0.29886783764E+02 -0.14624501060E+02 -0.85206068590E+01  0.34346711870E+02  0.00000000000E+00 0. -1.
</event>
<event>
 7    1  0.2651429E-009  0.1420014E+03  0.7561462E-02  0.1210661E+00
         -2   -1    0    0    0  501 -0.00000000000E+00  0.00000000000E+00  0.56538670929E+03  0.56538670929E+03  0.00000000000E+00 0.  1.
          2   -1    0    0  501    0  0.00000000000E+00 -0.00000000000E+00 -0.52850565757E+02  0.52850565757E+02  0.00000000000E+00 0. -1.
         25    2    1    2    0    0 -0.64938981801E+02 -0.75528337796E+02  0.43197107690E+03  0.46061702546E+03  0.12508969462E+03 0.  0.
          5    1    3    3  502    0  0.35127143772E+01  0.27403901166E+02  0.15192597891E+03  0.15447423225E+03  0.41800000000E+01 0. -1.
         -5    1    3    3    0  502 -0.68451696178E+02 -0.10293223896E+03  0.28004509799E+03  0.30614279321E+03  0.41800000000E+01 0. -1.
        -11    1    1    2    0    0  0.80008520017E+02  0.31755074618E+02  0.35817209143E+02  0.93234223921E+02  0.00000000000E+00 0. -1.
         11    1    1    2    0    0 -0.15069538216E+02  0.43773263178E+02  0.44747857498E+02  0.64386025673E+02  0.00000000000E+00 0.  1.
</event>
<event>
 7    1  0.2651429E-009  0.2380196E+03  0.7561462E-02  0.1121119E+00
          2   -1    0    0  501    0  0.00000000000E+00  0.00000000000E+00  0.90291619974E+03  0.90291619974E+03  0.00000000000E+00 0.  1.
         -2   -1    0    0    0  501 -0.00000000000E+00 -0.00000000000E+00 -0.82346156787E+02  0.82346156787E+02  0.00000000000E+00 0. -1.
         25    2    1    2    0    0  0.72658525465E+02 -0.20568908355E+03  0.64097884423E+03  0.68854071228E+03  0.12508866177E+03 0.  0.
          5    1    3    3  502    0 -0.25060759706E+02 -0.56104793392E+02  0.88108148300E+02  0.10750026844E+03  0.41800000000E+01 0. -1.
         -5    1    3    3    0  502  0.97719285171E+02 -0.14958429015E+03  0.55287069593E+03  0.58104044383E+03  0.41800000000E+01 0. -1.
        -11    1    1    2    0    0 -0.93535650404E+01  0.15321710533E+03  0.10788210384E+03  0.18762067816E+03  0.00000000000E+00 0.  1.
         11    1    1    2    0    0 -0.63304960425E+02  0.52471978216E+02  0.71709094883E+02  0.10910096609E+03  0.00000000000E+00 0. -1.
</event>
<event>
 7    1  0.2651429E-009  0.1396216E+03  0.7561462E-02  0.1213839E+00
         -2   -1    0    0    0  501 -0.00000000000E+00  0.00000000000E+00  0.90528672035E+02  0.90528672035E+02  0.00000000000E+00 0.  1.
          2   -1    0    0  501    0  0.00000000000E+00 -0.00000000000E+00 -0.23571637208E+03  0.23571637208E+03  0.00000000000E+00 0. -1.
         25    2    1    2    0    0 -0.60862425967E+02 -0.68235354969E+02 -0.72170520177E+02  0.17093684732E+03  0.12510205125E+03 0.  0.
          5    1    3    3  502    0 -0.95887021498E+02 -0.51565756087E+02 -0.74282089227E+02  0.13186602774E+03  0.41800000000E+01 0. -1.
         -5    1    3    3    0  502  0.35024595531E+02 -0.16669598882E+02  0.21115690494E+01  0.39070819582E+02  0.41800000000E+01 0. -1.
        -11    1    1    2    0    0 -0.67733969471E+01  0.63081668609E+02 -0.57722603293E+02  0.85773391863E+02  0.00000000000E+00 0. -1.
         11    1    1    2    0    0  0.67635822914E+02  0.51536863599E+01 -0.15294576579E+02  0.69534804933E+02  0.00000000000E+00 0.  1.
</event>
<event>
 7    1  0.2651429E-009  0.1969369E+03  0.7561462E-02  0.1152349E+00
         -3   -1    0    0    0  501 -0.00000000000E+00  0.00000000000E+00  0.91552252730E+03  0.91552252730E+03  0.00000000000E+00 0.  1.
          3   -1    0    0  501    0  0.00000000000E+00 -0.00000000000E+00 -0.58031804289E+02  0.58031804289E+02  0.00000000000E+00 0. -1.
         25    2    1    2    0    0  0.61103091560E+02  0.16764737759E+03  0.23744733441E+03  0.32228339969E+03  0.12508445982E+03 0.  0.
          5    1    3    3  502    0  0.16884261454E+02  0.16533740352E+03  0.14884792870E+03  0.22314729119E+03  0.41800000000E+01 0. -1.
         -5    1    3    3    0  502  0.44218830106E+02  0.23099740615E+01  0.88599405707E+02  0.99136108496E+02  0.41800000000E+01 0. -1.
        -11    1    1    2    0    0 -0.14303585654E+02 -0.99230547987E+02  0.46260617696E+03  0.47334529592E+03  0.00000000000E+00 0.  1.
         11    1    1    2    0    0 -0.46799505906E+02 -0.68416829598E+02  0.15743721164E+03  0.17792563597E+03  0.00000000000E+00 0. -1.
</event>
<event>
 7    1  0.2651429E-009  0.1399112E+03  0.7561462E-02  0.1213449E+00
          2   -1    0    0  501    0  0.00000000000E+00  0.00000000000E+00  0.30437472628E+03  0.30437472628E+03  0.00000000000E+00 0. -1.
         -2   -1    0    0    0  501 -0.00000000000E+00 -0.00000000000E+00 -0.72965670470E+02  0.72965670470E+02  0.00000000000E+00 0.  1.
         25    2    1    2    0    0 -0.91849054059E+02 -0.39221543575E+02  0.10414994148E+03  0.19096829490E+03  0.12508837330E+03 0.  0.
          5    1    3    3  502    0 -0.43639391192E+02 -0.83598240437E+02  0.60163838900E+02  0.11193847497E+03  0.41800000000E+01 0.  1.
         -5    1    3    3    0  502 -0.48209662866E+02  0.44376696862E+02  0.43986102584E+02  0.79029819932E+02  0.41800000000E+01 0.  1.
        -11    1    1    2    0    0  0.51497025744E+02 -0.13633697001E+02  0.14075275362E+02  0.55099316973E+02  0.00000000000E+00 0.  1.
         11    1    1    2    0    0  0.40352028315E+02  0.52855240576E+02  0.11318383897E+03  0.13127278487E+03  0.00000000000E+00 0. -1.
</event>
<event>
 7    1  0.2651429E-009  0.8869074E+02  0.7561462E-02  0.1306054E+00
          1   -1    0    0  501    0  0.00000000000E+00  0.00000000000E+00  0.20714783953E+03  0.20714783953E+03  0.00000000000E+00 0. -1.
         -1   -1    0    0    0  501 -0.00000000000E+00 -0.00000000000E+00 -0.81420587552E+02  0.81420587552E+02  0.00000000000E+00 0.  1.
         25    2    1    2    0    0  0.50049042348E+02  0.52979510985E+02  0.73158210167E+02  0.16220755137E+03  0.12508969095E+03 0.  0.
          5    1    3    3  502    0  0.68258255989E+02  0.44881853864E+02  0.99567812692E+02  0.12885958265E+03  0.41800000000E+01 0. -1.
         -5    1    3    3    0  502 -0.18209213641E+02  0.80976571209E+01 -0.26409602525E+02  0.33347968721E+02  0.41800000000E+01 0. -1.
        -11    1    1    2    0    0 -0.16012046374E+02 -0.30447931201E+02 -0.22363575949E+02  0.41031593592E+02  0.00000000000E+00 0.  1.
         11    1    1    2    0    0 -0.34036995974E+02 -0.22531579784E+02  0.74932617761E+02  0.85329282119E+02  0.00000000000E+00 0. -1.
</event>
<event>
 7    1  0.2651429E-009  0.1215045E+03  0.7561462E-02  0.1240635E+00
         -2   -1    0    0    0  501 -0.00000000000E+00  0.00000000000E+00  0.36717820178E+02  0.36717820178E+02  0.00000000000E+00 0.  1.
          2   -1    0    0  501    0  0.00000000000E+00 -0.00000000000E+00 -0.53685086740E+03  0.53685086740E+03  0.00000000000E+00 0. -1.
         25    2    1    2    0    0  0.86938668912E+02  0.54049573576E+01 -0.31658852202E+03  0.35137308436E+03  0.12508879414E+03 0.  0.
          5    1    3    3  502    0  0.29506533093E+02 -0.36182743551E+02 -0.28951384167E+02  0.55095203705E+02  0.41800000000E+01 0.  1.
         -5    1    3    3    0  502  0.57432135819E+02  0.41587700909E+02 -0.28763713786E+03  0.29627788065E+03  0.41800000000E+01 0.  1.
        -11    1    1    2    0    0  0.65374677495E+01  0.25753181536E+02 -0.43177136225E+02  0.50697435205E+02  0.00000000000E+00 0. -1.
         11    1    1    2    0    0 -0.93476136661E+02 -0.31158138894E+02 -0.14036738897E+03  0.17149816801E+03  0.00000000000E+00 0.  1.
</event>
<event>
 7    1  0.2651429E-009  0.2140863E+03  0.7561462E-02  0.1138370E+00
          2   -1    0    0  501    0  0.00000000000E+00  0.00000000000E+00  0.14193823880E+03  0.14193823880E+03  0.00000000000E+00 0. -1.
         -2   -1    0    0    0  501 -0.00000000000E+00 -0.00000000000E+00 -0.45733424445E+03  0.45733424445E+03  0.00000000000E+00 0.  1.
         25    2    1    2    0    0  0.16181801328E+03 -0.10941995718E+03 -0.30662662879E+03  0.38448074648E+03  0.12509100079E+03 0.  0.
          5    1    3    3  502    0  0.15507315351E+02  0.27122476775E+02 -0.35620751741E+02  0.47564860247E+02  0.41800000000E+01 0. -1.
         -5    1    3    3    0  502  0.14631069793E+03 -0.13654243396E+03 -0.27100587705E+03  0.33691588623E+03  0.41800000000E+01 0. -1.
        -11    1    1    2    0    0 -0.90482772544E+02  0.48433829095E+02  0.38618300836E+02  0.10965555657E+03  0.00000000000E+00 0.  1.
         11    1    1    2    0    0 -0.71335240739E+02  0.60986128087E+02 -0.47387677692E+02  0.10513618020E+03  0.00000000000E+00 0. -1.
</event>
<event>
 7    1  0.2651429E-009  0.1557094E+03  0.7561462E-02  0.1193628E+00
          1   -1    0    0  501    0  0.00000000000E+00  0.00000000000E+00  0.53377502339E+03  0.53377502339E+03  0.00000000000E+00 0. -1.
         -1   -1    0    0    0  501 -0.00000000000E+00 -0.00000000000E+00 -0.55010993322E+02  0.55010993322E+02  0.00000000000E+00 0.  1.
         25    2    1    2    0    0 -0.95922973780E+02  0.89030343890E+02  0.22022586494E+03  0.28508974100E+03  0.12509640204E+03 0.  0.
          5    1    3    3  502    0 -0.11280306346E+03  0.99640373789E+02  0.21750930481E+03  0.26453828701E+03  0.41800000000E+01 0. -1.
         -5    1    3    3    0  502  0.16880089681E+02 -0.10610029899E+02  0.27165601273E+01  0.20551453989E+02  0.41800000000E+01 0. -1.
        -11    1    1    2    0    0  0.48820226964E+02 -0.12134319126E+02  0.31371335726E+02  0.59285891801E+02  0.00000000000E+00 0.  1.
         11    1    1    2    0    0  0.47102746816E+02 -0.76896024763E+02  0.22716682940E+03  0.24441038391E+03  0.00000000000E+00 0. -1.
</event>
<event>
 7    1  0.2651429E-009  0.1316142E+03  0.7561462E-02  0.1225080E+00
         -2   -1    0    0    0  501 -0.00000000000E+00  0.00000000000E+00  0.72210994342E+02  0.72210994342E+02  0.00000000000E+00 0.  1.
          2   -1    0    0  501    0  0.00000000000E+00 -0.00000000000E+00 -0.37621915451E+03  0.37621915451E+03  0.00000000000E+00 0. -1.
         25    2    1    2    0    0 -0.90658469093E+02  0.46800544609E+02 -0.25913011313E+03  0.30529644004E+03  0.12509297253E+03 0.  0.
          5    1    3    3  502    0 -0.12014696072E+03  0.48908723929E+02 -0.19114572064E+03  0.23104439912E+03  0.41800000000E+01 0.  1.
         -5    1    3    3    0  502  0.29488491628E+02 -0.21081793196E+01 -0.67984392491E+02  0.74252040921E+02  0.41800000000E+01 0.  1.
        -11    1    1    2    0    0  0.69522305042E+02 -0.43965483611E+02 -0.71524163237E+02  0.10900468143E+03  0.00000000000E+00 0. -1.
         11    1    1    2    0    0  0.21136164051E+02 -0.28350609982E+01  0.26646116196E+02  0.34129027381E+02  0.00000000000E+00 0.  1.
</event>
<event>
 7    1  0.2651429E-009  0.9483629E+02  0.7561462E-02  0.1291545E+00
          1   -1    0    0  501    0  0.00000000000E+00  0.00000000000E+00  0.21729782349E+03  0.21729782349E+03  0.00000000000E+00 0. -1.
         -1   -1    0    0    0  501 -0.00000000000E+00 -0.00000000000E+00 -0.50339622116E+02  0.50339622116E+02  0.00000000000E+00 0.  1.
         25    2    1    2    0    0  0.90162976655E+01 -0.47764996797E+02  0.70790681222E+02  0.15172907333E+03  0.12509037774E+03 0.  0.
          5    1    3    3  502    0  0.18046191845E+02  0.36465220195E+02 -0.54260184871E+00  0.40904084647E+02  0.41800000000E+01 0. -1.
         -5    1    3    3    0  502 -0.90298941797E+01 -0.84230216992E+02  0.71333283071E+02  0.11082498868E+03  0.41800000000E+01 0. -1.
        -11    1    1    2    0    0  0.16360842619E+02  0.12906823261E+02  0.23472734328E+02  0.31388413702E+02  0.00000000000E+00 0.  1.
         11    1    1    2    0    0 -0.25377140285E+02  0.34858173535E+02  0.72694785829E+02  0.84519958578E+02  0.00000000000E+00 0. -1.
</event>
<event>
 7    1  0.2651429E-009  0.1977116E+03  0.7561462E-02  0.1151684E+00
          2   -1    0    0  501    0  0.00000000000E+00  0.00000000000E+00  0.74266399527E+03  0.74266399527E+03  0.00000000000E+00 0. -1.
         -2   -1    0    0    0  501 -0.00000000000E+00 -0.00000000000E+00 -0.73036266169E+02  0.73036266169E+02  0.00000000000E+00 0.  1.
         25    2    1    2    0    0 -0.10097896168E+03  0.13965391264E+03  0.15732722763E+03  0.26475904728E+03  0.12508209522E+03 0.  0.
          5    1    3    3  502    0 -0.12211045753E+03  0.72373107860E+02  0.98463666980E+02  0.17280450427E+03  0.41800000000E+01 0.  1.
         -5    1    3    3    0  502  0.21131495850E+02  0.67280804781E+02  0.58863560647E+02  0.91954543013E+02  0.41800000000E+01 0.  1.
        -11    1    1    2    0    0  0.65704499999E+02 -0.39682298055E+02  0.34066467714E+03  0.34920508065E+03  0.00000000000E+00 0. -1.
         11    1    1    2    0    0  0.35274461680E+02 -0.99971614585E+02  0.17163582433E+03  0.20173613351E+03  0.00000000000E+00 0.  1.
</event>
<event>
 7    1  0.2651429E-009  0.1153673E+03  0.7561462E-02  0.1250941E+00
          2   -1    0    0  501    0  0.00000000000E+00  0.00000000000E+00  0.27830243275E+03  0.27830243275E+03  0.00000000000E+00 0. -1.
         -2   -1    0    0    0  501 -0.00000000000E+00 -0.00000000000E+00 -0.58953962336E+02  0.58953962336E+02  0.00000000000E+00 0.  1.
         25    2    1    2    0    0 -0.53640445652E+02  0.28022352218E+02  0.16368000345E+03  0.21471374661E+03  0.12509316456E+03 0.  0.
          5    1    3    3  502    0 -0.18725654518E+02 -0.46550163913E+02  0.33003712620E+02  0.60202037708E+02  0.41800000000E+01 0. -1.
         -5    1    3    3    0  502 -0.34914791134E+02  0.74572516131E+02  0.13067629083E+03  0.15451170890E+03  0.41800000000E+01 0. -1.
        -11    1    1    2    0    0  0.43961093139E+02 -0.54340600612E+02  0.12408417756E+02  0.70989065468E+02  0.00000000000E+00 0.  1.
         11    1    1    2    0    0  0.96793525134E+01  0.26318248394E+02  0.43260049199E+02  0.51553583002E+02  0.00000000000E+00 0. -1.
</event>
<event>
 7    1  0.2651429E-009  0.1121937E+03  0.7561462E-02  0.1256561E+00
         -1   -1    0    0    0  501 -0.00000000000E+00  0.00000000000E+00  0.25380730650E+03  0.25380730650E+03  0.00000000000E+00 0.  1.
          1   -1    0    0  501    0  0.00000000000E+00 -0.00000000000E+00 -0.57871407580E+02  0.57871407580E+02  0.00000000000E+00 0. -1.
         25    2    1    2    0    0  0.30877673853E+02  0.26391490076E+02  0.64448281762E+02  0.14646082682E+03  0.12508897345E+03 0.  0.
          5    1    3    3  502    0  0.74953921795E+02  0.49542828164E+01  0.15004442894E+02  0.76715324527E+02  0.41800000000E+01 0. -1.
         -5    1    3    3    0  502 -0.44076247942E+02  0.21437207259E+02  0.49443838869E+02  0.69745502291E+02  0.41800000000E+01 0. -1.
        -11    1    1    2    0    0  0.32358330766E+02 -0.15174384619E+02  0.50144747240E+02  0.61577749182E+02  0.00000000000E+00 0. -1.
         11    1    1    2    0    0 -0.63236004619E+02 -0.11217105457E+02  0.81342869915E+02  0.10364013808E+03  0.00000000000E+00 0.  1.
</event>
<event>
 7    1  0.2651429E-009  0.9631046E+02  0.7561462E-02  0.1288252E+00
         -1   -1    0    0    0  501 -0.00000000000E+00  0.00000000000E+00  0.54575996666E+02  0.54575996666E+02  0.00000000000E+00 0.  1.
          1   -1    0    0  501    0  0.00000000000E+00 -0.00000000000E+00 -0.28010656566E+03  0.28010656566E+03  0.00000000000E+00 0. -1.
         25    2    1    2    0    0  0.54446492009E+02 -0.90943078004E+01 -0.15031169085E+03  0.20319540452E+03  0.12509053155E+03 0.  0.
          5    1    3    3  502    0  0.54475214961E+02 -0.32270086115E+02 -0.14150153264E+02  0.65012358366E+02  0.41800000000E+01 0.  1.
         -5    1    3    3    0  502 -0.28722951529E-01  0.23175778314E+02 -0.13616153759E+03  0.13818304615E+03  0.41800000000E+01 0.  1.
        -11    1    1    2    0    0 -0.45165677256E+02 -0.37131265168E+02 -0.28250135186E+02  0.64936425779E+02  0.00000000000E+00 0. -1.
         11    1    1    2    0    0 -0.92808147535E+01  0.46225572969E+02 -0.46968742961E+02  0.66550732032E+02  0.00000000000E+00 0.  1.
</event>
<event>
 7    1  0.2651429E-009  0.2284077E+03  0.7561462E-02  0.1127766E+00
          1   -1    0    0  501    0  0.00000000000E+00  0.00000000000E+00  0.72474804839E+03  0.72474804839E+03  0.00000000000E+00 0. -1.
         -1   -1    0    0    0  501 -0.00000000000E+00 -0.00000000000E+00 -0.86893142093E+02  0.86893142093E+02  0.00000000000E+00 0.  1.
         25    2    1    2    0    0  0.47064556021E+02  0.20857792116E+03  0.44645304254E+03  0.51057552380E+03  0.12508886711E+03 0.  0.
          5    1    3    3  502    0  0.33813367671E+02  0.33036922599E+00  0.33015794295E+02  0.47444367948E+02  0.41800000000E+01 0.  1.
         -5    1    3    3    0  502  0.13251188350E+02  0.20824755193E+03  0.41343724825E+03  0.46313115585E+03  0.41800000000E+01 0.  1.
        -11    1    1    2    0    0 -0.70785528743E+01 -0.49625435120E+02  0.10368125921E+03  0.11516333285E+03  0.00000000000E+00 0. -1.
         11    1    1    2    0    0 -0.39986003147E+02 -0.15895248604E+03  0.87720604550E+02  0.18590233384E+03  0.00000000000E+00 0.  1.
</event>
<event>
 7    1  0.2651429E-009  0.1011690E+03  0.7561462E-02  0.1277857E+00
         -1   -1    0    0    0  501 -0.00000000000E+00  0.00000000000E+00  0.24498707289E+02  0.24498707289E+02  0.00000000000E+00 0.  1.
          1   -1    0    0  501    0  0.00000000000E+00 -0.00000000000E+00 -0.60653849202E+03  0.60653849202E+03  0.00000000000E+00 0. -1.
         25    2    1    2    0    0  0.83537792780E+01  0.12356410342E+02 -0.18647620200E+03  0.22503844467E+03  0.12508581519E+03 0.  0.
          5    1    3    3  502    0 -0.25992845219E+02 -0.42316317331E+02 -0.12974624656E+03  0.13898870318E+03  0.41800000000E+01 0.  1.
         -5    1    3    3    0  502  0.34346624497E+02  0.54672727673E+02 -0.56729955439E+02  0.86049741485E+02  0.41800000000E+01 0.  1.
        -11    1    1    2    0    0 -0.46679823793E+02  0.23733492559E+01 -0.26630430299E+03  0.27037496283E+03  0.00000000000E+00 0.  1.
         11    1    1    2    0    0  0.38326044515E+02 -0.14729759598E+02 -0.12925927974E+03  0.13562379181E+03  0.00000000000E+00 0. -1.
</event>
<event>
 7    1  0.2651429E-009  0.1050801E+03  0.7561462E-02  0.1269962E+00
          1   -1    0    0  501    0  0.00000000000E+00  0.00000000000E+00  0.68002965661E+03  0.68002965661E+03  0.00000000000E+00 0.  1.
         -1   -1    0    0    0  501 -0.00000000000E+00 -0.00000000000E+00 -0.37372134395E+02  0.37372134395E+02  0.00000000000E+00 0. -1.
         25    2    1    2    0    0  0.25223516158E+02  0.89911800546E+02  0.20746329740E+03  0.25963113203E+03  0.12508775841E+03 0.  0.
          5    1    3    3  502    0 -0.61539766824E+00  0.71956803977E+02  0.21520829866E+03  0.22695868471E+03  0.41800000000E+01 0. -1.
         -5    1    3    3    0  502  0.25838913826E+02  0.17954996569E+02 -0.77450012533E+01  0.32672447320E+02  0.41800000000E+01 0. -1.
        -11    1    1    2    0    0  0.52199856407E+00 -0.77946402993E+02  0.41660854798E+03  0.42383793657E+03  0.00000000000E+00 0.  1.
         11    1    1    2    0    0 -0.25745514722E+02 -0.11965397553E+02  0.18585676828E+02  0.33932722408E+02  0.00000000000E+00 0. -1.
</event>
<event>
 7    1  0.2651429E-009  0.1302825E+03  0.7561462E-02  0.1227037E+00
         -1   -1    0    0    0  501 -0.00000000000E+00  0.00000000000E+00  0.11210441187E+02  0.11210441187E+02  0.00000000000E+00 0.  1.
          1   -1    0    0  501    0  0.00000000000E+00 -0.00000000000E+00 -0.19643040346E+04  0.19643040346E+04  0.00000000000E+00 0. -1.
         25    2    1    2    0    0 -0.69295631091E+02  0.27409605164E+02 -0.14939675617E+04  0.15010461858E+04  0.12508959045E+03 0.  0.
          5    1    3    3  502    0  0.20726679505E+02 -0.30744243245E+02 -0.31229590577E+03  0.31451710430E+03  0.41800000000E+01 0. -1.
         -5    1    3    3    0  502 -0.90022310596E+02  0.58153848409E+02 -0.11816716559E+04  0.11865290815E+04  0.41800000000E+01 0. -1.
        -11    1    1    2    0    0  0.16473011553E+02 -0.54286633639E+02 -0.28323044156E+03  0.28885616096E+03  0.00000000000E+00 0. -1.
         11    1    1    2    0    0  0.52822619538E+02  0.26877028475E+02 -0.17589559020E+03  0.18561212904E+03  0.00000000000E+00 0.  1.
</event>
<event>
 7    1  0.2651429E-009  0.1243820E+03  0.7561462E-02  0.1236038E+00
          1   -1    0    0  501    0  0.00000000000E+00  0.00000000000E+00  0.47845856973E+03  0.47845856973E+03  0.00000000000E+00 0. -1.
         -1   -1    0    0    0  501 -0.00000000000E+00 -0.00000000000E+00 -0.34657119066E+02  0.34657119066E+02  0.00000000000E+00 0.  1.
         25    2    1    2    0    0 -0.29956447773E+02 -0.55149029648E+02  0.18644851333E+03  0.23312673032E+03  0.12508485133E+03 0.  0.
          5    1    3    3  502    0  0.22451063422E+02  0.30973327773E+02  0.61160864609E+02  0.72260093010E+02  0.41800000000E+01 0.  1.
         -5    1    3    3    0  502 -0.52407511194E+02 -0.86122357421E+02  0.12528764872E+03  0.16086663731E+03  0.41800000000E+01 0.  1.
        -11    1    1    2    0    0 -0.32233694715E+02  0.17399269611E+02  0.69952492888E+02  0.78962629890E+02  0.00000000000E+00 0.  1.
         11    1    1    2    0    0  0.62190142487E+02  0.37749760037E+02  0.18740044445E+03  0.20102632859E+03  0.00000000000E+00 0. -1.
</event>
<event>
 7    1  0.2651429E-009  0.1649017E+03  0.7561462E-02  0.1183271E+00
          2   -1    0    0  501    0  0.00000000000E+00  0.00000000000E+00  0.17885543787E+04  0.17885543787E+04  0.00000000000E+00 0.  1.
         -2   -1    0    0    0  501 -0.00000000000E+00 -0.00000000000E+00 -0.23013025106E+02  0.23013025106E+02  0.00000000000E+00 0. -1.
         25    2    1    2    0    0 -0.61216281370E+02  0.15263175252E+03  0.11307461251E+04  0.11494685832E+04  0.12508932605E+03 0.  0.
          5    1    3    3  502    0 -0.44810207547E+02  0.11773270704E+03  0.44169536096E+03  0.45932690896E+03  0.41800000000E+01 0. -1.
         -5    1    3    3    0  502 -0.16406073824E+02  0.34899045474E+02  0.68905076410E+03  0.69014167425E+03  0.41800000000E+01 0. -1.
        -11    1    1    2    0    0  0.25924225822E+01 -0.17248092319E+02  0.99651954640E+01  0.20087868581E+02  0.00000000000E+00 0. -1.
         11    1    1    2    0    0  0.58623858788E+02 -0.13538366020E+03  0.62483003311E+03  0.64201095205E+03  0.00000000000E+00 0.  1.
</event>
<event>
 7    1  0.2651429E-009  0.1289906E+03  0.7561462E-02  0.1228961E+00
          2   -1    0    0  501    0  0.00000000000E+00  0.00000000000E+00  0.16767863010E+04  0.16767863010E+04  0.00000000000E+00 0. -1.
         -2   -1    0    0    0  501 -0.00000000000E+00 -0.00000000000E+00 -0.16699917686E+02  0.16699917686E+02  0.00000000000E+00 0.  1.
         25    2    1    2    0    0  0.12136239377E+03 -0.31769353160E+01  0.10656468111E+04  0.10798107759E+04  0.12509701146E+03 0.  0.
          5    1    3    3  502    0  0.88852358459E+02  0.63460526865E+01  0.28972769741E+03  0.30314126251E+03  0.41800000000E+01 0.  1.
         -5    1    3    3    0  502  0.32510035314E+02 -0.95229880025E+01  0.77591911366E+03  0.77666951340E+03  0.41800000000E+01 0.  1.
        -11    1    1    2    0    0 -0.16697397373E+02  0.22721880847E+02  0.39017610084E+02  0.48140012930E+02  0.00000000000E+00 0.  1.
         11    1    1    2    0    0 -0.10466499640E+03 -0.19544945531E+02  0.55542196218E+03  0.56553542987E+03  0.00000000000E+00 0. -1.
</event>
<event>
 7    1  0.2651429E-009  0.7364262E+02  0.7561462E-02  0.1348127E+00
         -1   -1    0    0    0  501 -0.00000000000E+00  0.00000000000E+00  0.17844798724E+02  0.17844798724E+02  0.00000000000E+00 0.  1.
          1   -1    0    0  501    0  0.00000000000E+00 -0.00000000000E+00 -0.68988203442E+03  0.68988203442E+03  0.00000000000E+00 0. -1.
         25    2    1    2    0    0 -0.22375164448E+02  0.67921268587E+01 -0.40678434126E+03  0.42622582633E+03  0.12509266073E+03 0.  0.
          5    1    3    3  502    0  0.18960290378E+02 -0.13636443785E+02 -0.84130636452E+01  0.25173344041E+02  0.41800000000E+01 0.  1.
         -5    1    3    3    0  502 -0.41335454825E+02  0.20428570644E+02 -0.39837127761E+03  0.40105248229E+03  0.41800000000E+01 0.  1.
        -11    1    1    2    0    0  0.39225776616E+02  0.21201129940E+02 -0.22633836897E+03  0.23068854920E+03  0.00000000000E+00 0. -1.
         11    1    1    2    0    0 -0.16850612168E+02 -0.27993256798E+02 -0.38914525465E+02  0.50812457614E+02  0.00000000000E+00 0.  1.
</event>
<event>
 7    1  0.2651429E-009  0.9980422E+02  0.7561462E-02  0.1280708E+00
         -2   -1    0    0    0  501 -0.00000000000E+00  0.00000000000E+00  0.31848672234E+02  0.31848672234E+02  0.00000000000E+00 0.  1.
          2   -1    0    0  501    0  0.00000000000E+00 -0.00000000000E+00 -0.48030335745E+03  0.48030335745E+03  0.00000000000E+00 0. -1.
         25    2    1    2    0    0 -0.43336386869E+02 -0.44867890260E+02 -0.23422620135E+03  0.27276279704E+03  0.12508581073E+03 0.  0.
          5    1    3    3  502    0  0.18655633798E+02  0.18061373190E+02 -0.14415744757E+03  0.14653698497E+03  0.41800000000E+01 0.  1.
         -5    1    3    3    0  502 -0.61992020667E+02 -0.62929263450E+02 -0.90068753777E+02  0.12622581207E+03  0.41800000000E+01 0.  1.
        -11    1    1    2    0    0  0.55399325688E+02  0.46967719083E+02 -0.21518118227E+03  0.22710788873E+03  0.00000000000E+00 0. -1.
         11    1    1    2    0    0 -0.12062938819E+02 -0.20998288236E+01  0.95269840313E+00  0.12281343912E+02  0.00000000000E+00 0.  1.
</event>
<event>
 7    1  0.2651429E-009  0.5067971E+03  0.7561462E-02  0.1012020E+00
          2   -1    0    0  501    0  0.00000000000E+00  0.00000000000E+00  0.17947180512E+04  0.17947180512E+04  0.00000000000E+00 0.  1.
         -2   -1    0    0    0  501 -0.00000000000E+00 -0.00000000000E+00 -0.14874338648E+03  0.14874338648E+03  0.00000000000E+00 0. -1.
         25    2    1    2    0    0 -0.45622220699E+03  0.19967834376E+03  0.98102621843E+03  0.11072804018E+04  0.12508918348E+03 0.  0.
          5    1    3    3  502    0 -0.18022133975E+02  0.39755992821E+02  0.12394319087E+03  0.13147137803E+03  0.41800000000E+01 0.  1.
         -5    1    3    3    0  502 -0.43820007301E+03  0.15992235094E+03  0.85708302757E+03  0.97580902376E+03  0.41800000000E+01 0.  1.
        -11    1    1    2    0    0  0.36374545413E+03 -0.18970559473E+03  0.49944264065E+03  0.64632957489E+03  0.00000000000E+00 0. -1.
         11    1    1    2    0    0  0.92476752853E+02 -0.99727490249E+01  0.16550580564E+03  0.18985146099E+03  0.00000000000E+00 0.  1.
</event>
<event>
 7    1  0.2651429E-009  0.1670945E+03  0.7561462E-02  0.1180912E+00
         -1   -1    0    0    0  501 -0.00000000000E+00  0.00000000000E+00  0.11746839677E+04  0.11746839677E+04  0.00000000000E+00 0.  1.
          1   -1    0    0  501    0  0.00000000000E+00 -0.00000000000E+00 -0.28305831794E+02  0.28305831794E+02  0.00000000000E+00 0. -1.
         25    2    1    2    0    0 -0.35928614605E+02  0.13822136936E+03  0.71757560538E+03  0.74226866627E+03  0.12510799814E+03 0.  0.
          5    1    3    3  502    0  0.41895674105E+02  0.76108557304E+02  0.26726875752E+03  0.28106551042E+03  0.41800000000E+01 0.  1.
         -5    1    3    3    0  502 -0.77824288710E+02  0.62112812060E+02  0.45030684786E+03  0.46120315585E+03  0.41800000000E+01 0.  1.
        -11    1    1    2    0    0  0.42427914156E+02 -0.97747143257E+02  0.38993096089E+03  0.40422863107E+03  0.00000000000E+00 0.  1.
         11    1    1    2    0    0 -0.64992995507E+01 -0.40474226106E+02  0.38871569635E+02  0.56492502152E+02  0.00000000000E+00 0. -1.
</event>
<event>
 7    1  0.2651429E-009  0.1256948E+03  0.7561462E-02  0.1233987E+00
         -1   -1    0    0    0  501 -0.00000000000E+00  0.00000000000E+00  0.31094353812E+03  0.31094353812E+03  0.00000000000E+00 0.  1.
          1   -1    0    0  501    0  0.00000000000E+00 -0.00000000000E+00 -0.63411155613E+02  0.63411155613E+02  0.00000000000E+00 0. -1.
         25    2    1    2    0    0 -0.23419443023E+02  0.86358145853E+02  0.13173355990E+03  0.20248293601E+03  0.12505762234E+03 0.  0.
          5    1    3    3  502    0  0.37345160425E+02  0.84506954837E+02  0.72672968609E+02  0.11762193328E+03  0.41800000000E+01 0.  1.
         -5    1    3    3    0  502 -0.60764603448E+02  0.18511910160E+01  0.59060591288E+02  0.84861002726E+02  0.41800000000E+01 0.  1.
        -11    1    1    2    0    0 -0.12977424130E+01 -0.65815998236E+02  0.12247633962E+03  0.13904633589E+03  0.00000000000E+00 0.  1.
         11    1    1    2    0    0  0.24717185436E+02 -0.20542147616E+02 -0.66775170127E+01  0.32825421826E+02  0.00000000000E+00 0. -1.
</event>
<event>
 7    1  0.2651429E-009  0.8908743E+02  0.7561462E-02  0.1305077E+00
          2   -1    0    0  501    0  0.00000000000E+00  0.00000000000E+00  0.17646612158E+03  0.17646612158E+03  0.00000000000E+00 0. -1.
         -2   -1    0    0    0  501 -0.00000000000E+00 -0.00000000000E+00 -0.71838281910E+02  0.71838281910E+02  0.00000000000E+00 0.  1.
         25    2    1    2    0    0  0.52510017935E+01 -0.64426339313E+01  0.91114404518E+02  0.15498152947E+03  0.12509340197E+03 0.  0.
          5    1    3    3  502    0  0.63799042997E+02 -0.51787232040E+01  0.32068428928E+02  0.71714667923E+02  0.41800000000E+01 0.  1.
         -5    1    3    3    0  502 -0.58548041204E+02 -0.12639107273E+01  0.59045975590E+02  0.83266861551E+02  0.41800000000E+01 0.  1.
        -11    1    1    2    0    0  0.63671814774E+01 -0.22895370524E+02 -0.30812765642E+02  0.38912279783E+02  0.00000000000E+00 0.  1.
         11    1    1    2    0    0 -0.11618183271E+02  0.29338004455E+02  0.44326200792E+02  0.54410594231E+02  0.00000000000E+00 0. -1.
</event>
<event>
 7    1  0.2651429E-009  0.8351712E+02  0.7561462E-02  0.1319357E+00
          2   -1    0    0  501    0  0.00000000000E+00  0.00000000000E+00  0.30018812574E+03  0.30018812574E+03  0.00000000000E+00 0.  1.
         -2   -1    0    0    0  501 -0.00000000000E+00 -0.00000000000E+00 -0.47145674023E+02  0.47145674023E+02  0.00000000000E+00 0. -1.
         25    2    1    2    0    0  0.34076812557E+02 -0.33583851060E+02  0.12182807721E+03  0.18105634818E+03  0.12510082579E+03 0.  0.
          5    1    3    3  502    0  0.69366760377E+02 -0.29344316237E+02  0.12406495921E+03  0.14519787480E+03  0.41800000000E+01 0. -1.
         -5    1    3    3    0  502 -0.35289947820E+02 -0.42395348234E+01 -0.22368819982E+01  0.35858473388E+02  0.41800000000E+01 0. -1.
        -11    1    1    2    0    0 -0.27327416014E+02  0.67594485209E+01  0.13540583796E+03  0.13830118858E+03  0.00000000000E+00 0.  1.
         11    1    1    2    0    0 -0.67493965428E+01  0.26824402539E+02 -0.41914634561E+01  0.27976262995E+02  0.00000000000E+00 0. -1.
</event>
<event>
 7    1  0.2651429E-009  0.7979985E+02  0.7561462E-02  0.1329620E+00
         -3   -1    0    0    0  501 -0.00000000000E+00  0.00000000000E+00  0.61840590417E+03  0.61840590417E+03  0.00000000000E+00 0.  1.
          3   -1    0    0  501    0  0.00000000000E+00 -0.00000000000E+00 -0.19980849885E+02  0.19980849885E+02  0.00000000000E+00 0. -1.
         25    2    1    2    0    0  0.37844774425E+02 -0.58458779871E+01  0.36639406864E+03  0.38904853924E+03  0.12509097132E+03 0.  0.
          5    1    3    3  502    0 -0.11131788157E+02 -0.19324302928E+02  0.39409954185E+01  0.23029312541E+02  0.41800000000E+01 0. -1.
         -5    1    3    3    0  502  0.48976562582E+02  0.13478424941E+02  0.36245307322E+03  0.36601922669E+03  0.41800000000E+01 0. -1.
        -11    1    1    2    0    0 -0.49057980712E+02 -0.23594895490E+02  0.10281408486E+03  0.11633632541E+03  0.00000000000E+00 0. -1.
         11    1    1    2    0    0  0.11213206287E+02  0.29440773477E+02  0.12921690078E+03  0.13300188941E+03  0.00000000000E+00 0.  1.
</event>
<event>
 7    1  0.2651429E-009  0.1210313E+03  0.7561462E-02  0.1241405E+00
          3   -1    0    0  501    0  0.00000000000E+00  0.00000000000E+00  0.23726650932E+03  0.23726650932E+03  0.00000000000E+00 0. -1.
         -3   -1    0    0    0  501 -0.00000000000E+00 -0.00000000000E+00 -0.78092975356E+02  0.78092975356E+02  0.00000000000E+00 0.  1.
         25    2    1    2    0    0 -0.22052345797E+02 -0.80107093637E+02  0.85214943625E+02  0.17265925115E+03  0.12508468325E+03 0.  0.
          5    1    3    3  502    0  0.30630468057E+02 -0.10359424945E+02  0.78372615539E+02  0.84883935613E+02  0.41800000000E+01 0. -1.
         -5    1    3    3    0  502 -0.52682813854E+02 -0.69747668692E+02  0.68423280856E+01  0.87775315535E+02  0.41800000000E+01 0. -1.
        -11    1    1    2    0    0  0.37275732641E+02 -0.30604649359E+01  0.20199548230E+02  0.42507275122E+02  0.00000000000E+00 0.  1.
         11    1    1    2    0    0 -0.15223386845E+02  0.83167558573E+02  0.53759042111E+02  0.10019295841E+03  0.00000000000E+00 0. -1.
</event>
<event>
 7    1  0.2651429E-009  0.1116007E+03  0.7561462E-02  0.1257634E+00
          2   -1    0    0  501    0  0.00000000000E+00  0.00000000000E+00  0.76239308076E+02  0.76239308076E+02  0.00000000000E+00 0. -1.
         -2   -1    0    0    0  501 -0.00000000000E+00 -0.00000000000E+00 -0.19428071597E+03  0.19428071597E+03  0.00000000000E+00 0.  1.
         25    2    1    2    0    0 -0.54758095289E+02 -0.10781964303E+02 -0.70286278779E+02  0.15395426881E+03  0.12508819348E+03 0.  0.
          5    1    3    3  502    0  0.15271297289E+02 -0.40188677900E+02 -0.64551312798E+02  0.77670372319E+02  0.41800000000E+01 0. -1.
         -5    1    3    3    0  502 -0.70029392578E+02  0.29406713597E+02 -0.57349659810E+01  0.76283896493E+02  0.41800000000E+01 0. -1.
        -11    1    1    2    0    0  0.52553143222E+02  0.45280273071E+02 -0.19890300737E+02  0.72164811753E+02  0.00000000000E+00 0.  1.
         11    1    1    2    0    0  0.22049520669E+01 -0.34498308768E+02 -0.27864828377E+02  0.44400943481E+02  0.00000000000E+00 0. -1.
</event>
<event>
 7    1  0.2651429E-009  0.1015616E+03  0.7561462E-02  0.1277046E+00
          1   -1    0    0  501    0  0.00000000000E+00  0.00000000000E+00  0.29691889339E+03  0.29691889339E+03  0.00000000000E+00 0. -1.
         -1   -1    0    0    0  501 -0.00000000000E+00 -0.00000000000E+00 -0.45276045838E+02  0.45276045838E+02  0.00000000000E+00 0.  1.
         25    2    1    2    0    0  0.36892229425E+02  0.37421206231E+01  0.19982285808E+03  0.23864927032E+03  0.12509700059E+03 0.  0.
          5    1    3    3  502    0  0.57610710280E+02 -0.47007766124E+02  0.99934100696E+02  0.12463154054E+03  0.41800000000E+01 0. -1.
         -5    1    3    3    0  502 -0.20718480856E+02  0.50749886747E+02  0.99888757383E+02  0.11401772978E+03  0.41800000000E+01 0. -1.
        -11    1    1    2    0    0 -0.13405837125E+02  0.29829578396E+02  0.53315869753E+02  0.62546799948E+02  0.00000000000E+00 0. -1.
         11    1    1    2    0    0 -0.23486392300E+02 -0.33571699019E+02 -0.14958802744E+01  0.40998868961E+02  0.00000000000E+00 0.  1.
</event>
<event>
 7    1  0.2651429E-009  0.1746934E+03  0.7561462E-02  0.1173040E+00
          1   -1    0    0  501    0  0.00000000000E+00  0.00000000000E+00  0.32525628336E+03  0.32525628336E+03  0.00000000000E+00 0. -1.
         -1   -1    0    0    0  501 -0.00000000000E+00 -0.00000000000E+00 -0.95777980020E+02  0.95777980020E+02  0.00000000000E+00 0.  1.
         25    2    1    2    0    0 -0.11574546256E+03  0.72076432624E+02  0.93198435235E+02  0.20718720629E+03  0.12509422800E+03 0.  0.
          5    1    3    3  502    0  0.10366100506E+02 -0.23706111661E+02  0.85206863539E+01  0.27559213808E+02  0.41800000000E+01 0. -1.
         -5    1    3    3    0  502 -0.12611156307E+03  0.95782544285E+02  0.84677748881E+02  0.17962799248E+03  0.41800000000E+01 0. -1.
        -11    1    1    2    0    0  0.23575143268E+02 -0.68586041108E+02  0.62236397723E+02  0.95567785454E+02  0.00000000000E+00 0.  1.
         11    1    1    2    0    0  0.92170319292E+02 -0.34903915164E+01  0.74043470378E+02  0.11827927163E+03  0.00000000000E+00 0. -1.
</event>
<event>
 7    1  0.2651429E-009  0.1455202E+03  0.7561462E-02  0.1206088E+00
         -3   -1    0    0    0  501 -0.00000000000E+00  0.00000000000E+00  0.71399641541E+03  0.71399641541E+03  0.00000000000E+00 0.  1.
          3   -1    0    0  501    0  0.00000000000E+00 -0.00000000000E+00 -0.37716985213E+02  0.37716985213E+02  0.00000000000E+00 0. -1.
         25    2    1    2    0    0 -0.91599484680E+02  0.77816732611E+02  0.42704794191E+03  0.46093631395E+03  0.12508569605E+03 0.  0.
          5    1    3    3  502    0 -0.38241386372E+02  0.79076895579E+02  0.37877862706E+03  0.38885251672E+03  0.41800000000E+01 0.  1.
         -5    1    3    3    0  502 -0.53358098308E+02 -0.12601629679E+01  0.48269314852E+02  0.72083797223E+02  0.41800000000E+01 0.  1.
        -11    1    1    2    0    0  0.10872722918E+03 -0.57507432199E+02  0.19874384819E+03  0.23372597698E+03  0.00000000000E+00 0. -1.
         11    1    1    2    0    0 -0.17127744498E+02 -0.20309300412E+02  0.50487640094E+02  0.57051109692E+02  0.00000000000E+00 0.  1.
</event>
<event>
 7    1  0.2651429E-009  0.1115932E+03  0.7561462E-02  0.1257648E+00
         -2   -1    0    0    0  501 -0.00000000000E+00  0.00000000000E+00  0.52366597883E+02  0.52366597883E+02  0.00000000000E+00 0.  1.
          2   -1    0    0  501    0  0.00000000000E+00 -0.00000000000E+00 -0.36330692326E+03  0.36330692326E+03  0.00000000000E+00 0. -1.
         25    2    1    2    0    0 -0.15467245802E+02 -0.83655768651E+02 -0.16034965624E+03  0.22044599978E+03  0.12508758227E+03 0.  0.
          5    1    3    3  502    0  0.34670320061E+02 -0.37099822880E+02 -0.56778011321E+01  0.51265366248E+02  0.41800000000E+01 0.  1.
         -5    1    3    3    0  502 -0.50137565863E+02 -0.46555945771E+02 -0.15467185511E+03  0.16918063353E+03  0.41800000000E+01 0.  1.
        -11    1    1    2    0    0  0.33403690336E+02  0.78049458218E+02 -0.15426172616E+03  0.17608010852E+03  0.00000000000E+00 0. -1.
         11    1    1    2    0    0 -0.17936444535E+02  0.56063104329E+01  0.36710570284E+01  0.19147412852E+02  0.00000000000E+00 0.  1.
</event>
<event>
 7    1  0.2651429E-009  0.2036193E+03  0.7561462E-02  0.1146721E+00
         -1   -1    0    0    0  501 -0.00000000000E+00  0.00000000000E+00  0.72969059713E+03  0.72969059713E+03  0.00000000000E+00 0.  1.
          1   -1    0    0  501    0  0.00000000000E+00 -0.00000000000E+00 -0.63879686495E+02  0.63879686495E+02  0.00000000000E+00 0. -1.
         25    2    1    2    0    0 -0.17660597143E+03 -0.53070760899E+02  0.29761665820E+03  0.37179489334E+03  0.12509833200E+03 0.  0.
          5    1    3    3  502    0 -0.90284358804E+02  0.37183490142E+02  0.12396326711E+03  0.15785512781E+03  0.41800000000E+01 0. -1.
         -5    1    3    3    0  502 -0.86321612628E+02 -0.90254251041E+02  0.17365339109E+03  0.21393976553E+03  0.41800000000E+01 0. -1.
        -11    1    1    2    0    0  0.31880464927E+02  0.12506458340E+02  0.16790776777E+03  0.17136450630E+03  0.00000000000E+00 0.  1.
         11    1    1    2    0    0  0.14472550651E+03  0.40564302559E+02  0.20028648467E+03  0.25041088398E+03  0.00000000000E+00 0. -1.
</event>
<event>
 7    1  0.2651429E-009  0.8954030E+02  0.7561462E-02  0.1303969E+00
          1   -1    0    0  501    0  0.00000000000E+00  0.00000000000E+00  0.62926303301E+03  0.62926303301E+03  0.00000000000E+00 0. -1.
         -1   -1    0    0    0  501 -0.00000000000E+00 -0.00000000000E+00 -0.19476446961E+02  0.19476446961E+02  0.00000000000E+00 0.  1.
         25    2    1    2    0    0  0.72579256402E+01  0.22220180631E+02  0.38654996823E+03  0.40695777177E+03  0.12508931271E+03 0.  0.
          5    1    3    3  502    0 -0.61159312217E+01 -0.38574772659E+02  0.44893138387E+02  0.59651353502E+02  0.41800000000E+01 0.  1.
         -5    1    3    3    0  502  0.13373856862E+02  0.60794953290E+02  0.34165682984E+03  0.34730641827E+03  0.41800000000E+01 0.  1.
        -11    1    1    2    0    0 -0.26080304581E+02 -0.42423897402E+02  0.69006118940E+02  0.85098847283E+02  0.00000000000E+00 0. -1.
         11    1    1    2    0    0  0.18822378940E+02  0.20203716771E+02  0.15423049888E+03  0.15668286092E+03  0.00000000000E+00 0.  1.
</event>
<event>
 7    1  0.2651429E-009  0.1182029E+03  0.7561462E-02  0.1246091E+00
         -1   -1    0    0    0  501 -0.00000000000E+00  0.00000000000E+00  0.19116198927E+03  0.19116198927E+03  0.00000000000E+00 0. -1.
          1   -1    0    0  501    0  0.00000000000E+00 -0.00000000000E+00 -0.73189618571E+02  0.73189618571E+02  0.00000000000E+00 0.  1.
         25    2    1    2    0    0  0.31968499699E+02 -0.35346472436E+02  0.71359380056E+02  0.15169538619E+03  0.12509185019E+03 0.  0.
          5    1    3    3  502    0  0.58136194303E+02 -0.69443905486E+02  0.47226013134E+02  0.10222544602E+03  0.41800000000E+01 0.  1.
         -5    1    3    3    0  502 -0.26167694604E+02  0.34097433051E+02  0.24133366922E+02  0.49469940171E+02  0.41800000000E+01 0.  1.
        -11    1    1    2    0    0  0.25342054122E+02  0.37439913472E+02  0.20846479545E+02  0.49784962964E+02  0.00000000000E+00 0.  1.
         11    1    1    2    0    0 -0.57310553821E+02 -0.20934410362E+01  0.25766511096E+02  0.62871258686E+02  0.00000000000E+00 0. -1.
</event>
<event>
 7    1  0.2651429E-009  0.1181668E+03  0.7561462E-02  0.1246152E+00
          1   -1    0    0  501    0  0.00000000000E+00  0.00000000000E+00  0.15613012880E+03  0.15613012880E+03  0.00000000000E+00 0. -1.
         -1   -1    0    0    0  501 -0.00000000000E+00 -0.00000000000E+00 -0.10048868177E+03  0.10048868177E+03  0.00000000000E+00 0.  1.
         25    2    1    2    0    0  0.64728529003E+02 -0.16057009732E+02  0.23566419210E+02  0.14370519687E+03  0.12509275545E+03 0.  0.
          5    1    3    3  502    0  0.95972756501E+02 -0.30776293260E+02 -0.14016773893E+01  0.10088303780E+03  0.41800000000E+01 0. -1.
         -5    1    3    3    0  502 -0.31244227498E+02  0.14719283528E+02  0.24968096600E+02  0.42822159069E+02  0.41800000000E+01 0. -1.
        -11    1    1    2    0    0  0.16736232736E+02  0.87314539696E+01 -0.95306839026E+01  0.21146482220E+02  0.00000000000E+00 0.  1.
         11    1    1    2    0    0 -0.81464761739E+02  0.73255557624E+01  0.41605711720E+02  0.91767131480E+02  0.00000000000E+00 0. -1.
</event>
<event>
 7    1  0.2651429E-009  0.1317271E+03  0.7561462E-02  0.1224915E+00
         -1   -1    0    0    0  501 -0.00000000000E+00  0.00000000000E+00  0.19402511053E+02  0.19402511053E+02  0.00000000000E+00 0.  1.
          1   -1    0    0  501    0  0.00000000000E+00 -0.00000000000E+00 -0.89909677191E+03  0.89909677191E+03  0.00000000000E+00 0. -1.
         25    2    1    2    0    0  0.40855872772E+02 -0.71790206755E+02 -0.49380052058E+03  0.51604591383E+03  0.12506556256E+03 0.  0.
          5    1    3    3  502    0  0.17493332624E+02  0.35275935239E+02 -0.15267479343E+03  0.15772594347E+03  0.41800000000E+01 0. -1.
         -5    1    3    3    0  502  0.23362540148E+02 -0.10706614199E+03 -0.34112572715E+03  0.35831997037E+03  0.41800000000E+01 0. -1.
        -11    1    1    2    0    0 -0.64212421712E+02  0.60604516581E+02 -0.29258931325E+03  0.30562174131E+03  0.00000000000E+00 0. -1.
         11    1    1    2    0    0  0.23356548940E+02  0.11185690173E+02 -0.93304427026E+02  0.96831627817E+02  0.00000000000E+00 0.  1.
</event>
<event>
 7    1  0.2651429E-009  0.8794427E+02  0.7561462E-02  0.1307908E+00
          2   -1    0    0  501    0  0.00000000000E+00  0.00000000000E+00  0.13423522174E+04  0.13423522174E+04  0.00000000000E+00 0. -1.
         -2   -1    0    0    0  501 -0.00000000000E+00 -0.00000000000E+00 -0.21807933677E+02  0.21807933677E+02  0.00000000000E+00 0.  1.
         25    2    1    2    0    0  0.22252743822E+02  0.13362187554E+02  0.12148802540E+04  0.12215844522E+04  0.12514315606E+03 0.  0.
          5    1    3    3  502    0 -0.10218142148E+02 -0.35394093470E+02  0.13186668427E+03  0.13697973245E+03  0.41800000000E+01 0. -1.
         -5    1    3    3    0  502  0.32470885970E+02  0.48756281024E+02  0.10830135698E+04  0.10846047197E+04  0.41800000000E+01 0. -1.
        -11    1    1    2    0    0 -0.49883125144E+02 -0.12049160142E+01  0.23720591754E+02  0.55248931844E+02  0.00000000000E+00 0.  1.
         11    1    1    2    0    0  0.27630381323E+02 -0.12157271539E+02  0.81943437977E+02  0.87326767092E+02  0.00000000000E+00 0. -1.
</event>
<event>
 7    1  0.2651429E-009  0.1199426E+03  0.7561462E-02  0.1243192E+00
          2   -1    0    0  501    0  0.00000000000E+00  0.00000000000E+00  0.24644403485E+03  0.24644403485E+03  0.00000000000E+00 0. -1.
         -2   -1    0    0    0  501 -0.00000000000E+00 -0.00000000000E+00 -0.61389140297E+02  0.61389140297E+02  0.00000000000E+00 0.  1.
         25    2    1    2    0    0  0.56884917800E+02  0.91069633519E+01  0.99911160880E+02  0.17012369857E+03  0.12506399198E+03 0.  0.
          5    1    3    3  502    0 -0.35336349593E+02  0.25067630395E+02  0.25191293001E+02  0.50290330475E+02  0.41800000000E+01 0.  1.
         -5    1    3    3    0  502  0.92221267394E+02 -0.15960667043E+02  0.74719867879E+02  0.11983336809E+03  0.41800000000E+01 0.  1.
        -11    1    1    2    0    0 -0.88246416620E+01  0.35816069305E+02  0.10795505613E+02  0.38434464513E+02  0.00000000000E+00 0. -1.
         11    1    1    2    0    0 -0.48060276139E+02 -0.44923032657E+02  0.74348228056E+02  0.99275012066E+02  0.00000000000E+00 0.  1.
</event>
<event>
 7    1  0.2651429E-009  0.2046605E+03  0.7561462E-02  0.1145865E+00
          2   -1    0    0  501    0  0.00000000000E+00  0.00000000000E+00  0.26743916063E+03  0.26743916063E+03  0.00000000000E+00 0. -1.
         -2   -1    0    0    0  501 -0.00000000000E+00 -0.00000000000E+00 -0.18113160944E+03  0.18113160944E+03  0.00000000000E+00 0.  1.
         25    2    1    2    0    0 -0.11501066234E+03  0.13275587750E+03 -0.30837671999E+02  0.21783164897E+03  0.12509232518E+03 0.  0.
          5    1    3    3  502    0 -0.13613820075E+03  0.13322554468E+03 -0.15041706757E+02  0.19111876099E+03  0.41800000000E+01 0.  1.
         -5    1    3    3    0  502  0.21127538413E+02 -0.46966718872E+00 -0.15795965242E+02  0.26712887986E+02  0.41800000000E+01 0.  1.
        -11    1    1    2    0    0  0.63707382083E+02 -0.13128805152E+03  0.73637596250E+02  0.16345543303E+03  0.00000000000E+00 0.  1.
         11    1    1    2    0    0  0.51303280253E+02 -0.14678259726E+01  0.43507626943E+02  0.67283688068E+02  0.00000000000E+00 0. -1.
</event>
<event>
 7    1  0.2651429E-009  0.7773145E+02  0.7561462E-02  0.1335615E+00
         -2   -1    0    0    0  501 -0.00000000000E+00  0.00000000000E+00  0.12857853687E+03  0.12857853687E+03  0.00000000000E+00 0.  1.
          2   -1    0    0  501    0  0.00000000000E+00 -0.00000000000E+00 -0.97214701579E+02  0.97214701579E+02  0.00000000000E+00 0. -1.
         25    2    1    2    0    0  0.28487062203E+02  0.11968518608E+02  0.11309895492E+02  0.12935070613E+03  0.12509569653E+03 0.  0.
          5    1    3    3  502    0  0.30984726340E+02  0.45254775538E+02  0.52589309169E+02  0.76099643982E+02  0.41800000000E+01 0.  1.
         -5    1    3    3    0  502 -0.24976641368E+01 -0.33286256930E+02 -0.41279413676E+02  0.53251062149E+02  0.41800000000E+01 0.  1.
        -11    1    1    2    0    0 -0.62373042121E+01  0.23849437123E+02  0.42156213007E+02  0.48834884151E+02  0.00000000000E+00 0.  1.
         11    1    1    2    0    0 -0.22249757991E+02 -0.35817955731E+02 -0.22102273207E+02  0.47607648170E+02  0.00000000000E+00 0. -1.
</event>
<event>
 7    1  0.2651429E-009  0.8503157E+02  0.7561462E-02  0.1315350E+00
         -1   -1    0    0    0  501 -0.00000000000E+00  0.00000000000E+00  0.20492677084E+03  0.20492677084E+03  0.00000000000E+00 0.  1.
          1   -1    0    0  501    0  0.00000000000E+00 -0.00000000000E+00 -0.71814591856E+02  0.71814591856E+02  0.00000000000E+00 0. -1.
         25    2    1    2    0    0 -0.52389847309E+02 -0.16997615656E+02  0.92998076619E+02  0.16531597208E+03  0.12508842205E+03 0.  0.
          5    1    3    3  502    0 -0.53266321659E+01  0.39344271795E+02 -0.76701229568E+01  0.40652772593E+02  0.41800000000E+01 0.  1.
         -5    1    3    3    0  502 -0.47063215143E+02 -0.56341887452E+02  0.10066819958E+03  0.12466319949E+03  0.41800000000E+01 0.  1.
        -11    1    1    2    0    0  0.40501416675E+02  0.70549980771E+01 -0.22538687829E+02  0.46884221222E+02  0.00000000000E+00 0. -1.
         11    1    1    2    0    0  0.11888430634E+02  0.99426175792E+01  0.62652790197E+02  0.64541169394E+02  0.00000000000E+00 0.  1.
</event>
<event>
 7    1  0.2651429E-009  0.9113066E+02  0.7561462E-02  0.1300137E+00
          2   -1    0    0  501    0  0.00000000000E+00  0.00000000000E+00  0.13193401748E+03  0.13193401748E+03  0.00000000000E+00 0. -1.
         -2   -1    0    0    0  501 -0.00000000000E+00 -0.00000000000E+00 -0.12988036906E+03  0.12988036906E+03  0.00000000000E+00 0.  1.
         25    2    1    2    0    0  0.40883422590E+02 -0.35957531114E+02 -0.47135474119E+02  0.14434192731E+03  0.12509372795E+03 0.  0.
          5    1    3    3  502    0  0.75258359238E+01 -0.42469768080E+02  0.34775032261E+02  0.55561629528E+02  0.41800000000E+01 0.  1.
         -5    1    3    3    0  502  0.33357586666E+02  0.65122369653E+01 -0.81910506380E+02  0.88780297780E+02  0.41800000000E+01 0.  1.
        -11    1    1    2    0    0 -0.67932737167E+02  0.12911729725E+02  0.21472687349E+02  0.72406117459E+02  0.00000000000E+00 0.  1.
         11    1    1    2    0    0  0.27049314577E+02  0.23045801390E+02  0.27716435189E+02  0.45066341768E+02  0.00000000000E+00 0. -1.
</event>
<event>
 7    1  0.2651429E-009  0.1675593E+03  0.7561462E-02  0.1180417E+00
         -2   -1    0    0    0  501 -0.00000000000E+00  0.00000000000E+00  0.40959764098E+02  0.40959764098E+02  0.00000000000E+00 0.  1.
          2   -1    0    0  501    0  0.00000000000E+00 -0.00000000000E+00 -0.75024533531E+03  0.75024533531E+03  0.00000000000E+00 0. -1.
         25    2    1    2    0    0 -0.13640215345E+03 -0.13026884609E+02 -0.35601501382E+03  0.40145656493E+03  0.12508171840E+03 0.  0.
          5    1    3    3  502    0 -0.77577824364E+02 -0.65363258857E+02 -0.24578842624E+03  0.26593250519E+03  0.41800000000E+01 0.  1.
         -5    1    3    3    0  502 -0.58824329085E+02  0.52336374248E+02 -0.11022658757E+03  0.13552405974E+03  0.41800000000E+01 0.  1.
        -11    1    1    2    0    0  0.90628541284E+02  0.42708699253E+02 -0.28657238274E+03  0.30358078997E+03  0.00000000000E+00 0.  1.
         11    1    1    2    0    0  0.45773612164E+02 -0.29681814643E+02 -0.66698174657E+02  0.86167744508E+02  0.00000000000E+00 0. -1.
</event>
<event>
 7    1  0.2651429E-009  0.1091688E+03  0.7561462E-02  0.1262117E+00
         -2   -1    0    0    0  501 -0.00000000000E+00  0.00000000000E+00  0.16502641891E+03  0.16502641891E+03  0.00000000000E+00 0.  1.
          2   -1    0    0  501    0  0.00000000000E+00 -0.00000000000E+00 -0.90083010505E+02  0.90083010505E+02  0.00000000000E+00 0. -1.
         25    2    1    2    0    0 -0.34267585614E+02  0.22184096205E+02  0.19744809115E+01  0.13159553141E+03  0.12508830386E+03 0.  0.
          5    1    3    3  502    0  0.38725147757E+02  0.31065424778E+02  0.23185620126E+02  0.54952188911E+02  0.41800000000E+01 0.  1.
         -5    1    3    3    0  502 -0.72992733371E+02 -0.88813285729E+01 -0.21211139215E+02  0.76643342496E+02  0.41800000000E+01 0.  1.
        -11    1    1    2    0    0  0.30911235592E+02 -0.54350244975E+02  0.65030261905E+02  0.90213017787E+02  0.00000000000E+00 0.  1.
         11    1    1    2    0    0  0.33563500219E+01  0.32166148770E+02  0.79386655884E+01  0.33300880221E+02  0.00000000000E+00 0. -1.
</event>
<event>
 7    1  0.2651429E-009  0.7413583E+02  0.7561462E-02  0.1346568E+00
         -2   -1    0    0    0  501 -0.00000000000E+00  0.00000000000E+00  0.11927215808E+03  0.11927215808E+03  0.00000000000E+00 0. -1.
          2   -1    0    0  501    0  0.00000000000E+00 -0.00000000000E+00 -0.15465458668E+03  0.15465458668E+03  0.00000000000E+00 0.  1.
         25    2    1    2    0    0  0.63328340827E+02  0.27024754452E+02  0.19781243100E+02  0.14416431332E+03  0.12510489819E+03 0.  0.
          5    1    3    3  502    0  0.52766774045E+02  0.12984545576E+02 -0.48854344082E+02  0.73192555651E+02  0.41800000000E+01 0. -1.
         -5    1    3    3    0  502  0.10561566781E+02  0.14040208875E+02  0.68635587183E+02  0.70971757665E+02  0.41800000000E+01 0. -1.
        -11    1    1    2    0    0 -0.26006053308E+02 -0.28211851015E+02  0.21863399581E+02  0.44161426467E+02  0.00000000000E+00 0. -1.
         11    1    1    2    0    0 -0.37322287519E+02  0.11870965632E+01 -0.77027071282E+02  0.85601004983E+02  0.00000000000E+00 0.  1.
</event>
<event>
 7    1  0.2651429E-009  0.1625794E+03  0.7561462E-02  0.1185815E+00
         -2   -1    0    0    0  501 -0.00000000000E+00  0.00000000000E+00  0.27077500987E+02  0.27077500987E+02  0.00000000000E+00 0.  1.
          2   -1    0    0  501    0  0.00000000000E+00 -0.00000000000E+00 -0.11397438922E+04  0.11397438922E+04  0.00000000000E+00 0. -1.
         25    2    1    2    0    0  0.18586942087E+02 -0.13218612413E+03 -0.47301875589E+03  0.50716046599E+03  0.12508536690E+03 0.  0.
          5    1    3    3  502    0  0.51677950664E+02 -0.11642041149E+03 -0.43847463823E+03  0.45661997719E+03  0.41800000000E+01 0.  1.
         -5    1    3    3    0  502 -0.33091008577E+02 -0.15765712638E+02 -0.34544117659E+02  0.50540488803E+02  0.41800000000E+01 0.  1.
        -11    1    1    2    0    0 -0.50654834810E+02  0.44385587497E+02 -0.29197569534E+03  0.29964278623E+03  0.00000000000E+00 0.  1.
         11    1    1    2    0    0  0.32067892723E+02  0.87800536631E+02 -0.34767193997E+03  0.36001814096E+03  0.00000000000E+00 0. -1.
</event>
<event>
 7    1  0.2651429E-009  0.9491907E+02  0.7561462E-02  0.1291358E+00
          1   -1    0    0  501    0  0.00000000000E+00  0.00000000000E+00  0.63560366783E+03  0.63560366783E+03  0.00000000000E+00 0. -1.
         -1   -1    0    0    0  501 -0.00000000000E+00 -0.00000000000E+00 -0.24459543100E+02  0.24459543100E+02  0.00000000000E+00 0.  1.
         25    2    1    2    0    0  0.36774370875E+01  0.70012270527E+01  0.50372501388E+03  0.51908397824E+03  0.12508695428E+03 0.  0.
          5    1    3    3  502    0  0.49164155888E+02  0.16506041892E+02  0.42021933471E+03  0.42342806391E+03  0.41800000000E+01 0. -1.
         -5    1    3    3    0  502 -0.45486718801E+02 -0.95048148389E+01  0.83505679178E+02  0.95655914336E+02  0.41800000000E+01 0. -1.
        -11    1    1    2    0    0 -0.46546555714E+02  0.45097672095E+01  0.51053809749E+02  0.69234466409E+02  0.00000000000E+00 0. -1.
         11    1    1    2    0    0  0.42869118626E+02 -0.11510994262E+02  0.56365301095E+02  0.71744766278E+02  0.00000000000E+00 0.  1.
</event>
<event>
 7    1  0.2651429E-009  0.1708797E+03  0.7561462E-02  0.1176934E+00
          1   -1    0    0  501    0  0.00000000000E+00  0.00000000000E+00  0.14349525900E+04  0.14349525900E+04  0.00000000000E+00 0. -1.
         -1   -1    0    0    0  501 -0.00000000000E+00 -0.00000000000E+00 -0.35221127394E+02  0.35221127394E+02  0.00000000000E+00 0.  1.
         25    2    1    2    0    0  0.10074277845E+03 -0.13268482726E+03  0.10731136029E+04  0.10931489655E+04  0.12508990834E+03 0.  0.
          5    1    3    3  502    0  0.94113166124E+02 -0.94512638720E+02  0.46448025274E+03  0.48326939123E+03  0.41800000000E+01 0. -1.
         -5    1    3    3    0  502  0.66296123251E+01 -0.38172188541E+02  0.60863335015E+03  0.60987957422E+03  0.41800000000E+01 0. -1.
        -11    1    1    2    0    0 -0.72200209214E+02  0.11494765976E+03  0.17364964458E+03  0.22040878784E+03  0.00000000000E+00 0.  1.
         11    1    1    2    0    0 -0.28542569235E+02  0.17737167504E+02  0.15296821518E+03  0.15661596414E+03  0.00000000000E+00 0. -1.
</event>
<event>
 7    1  0.2651429E-009  0.7205529E+02  0.7561462E-02  0.1353240E+00
          1   -1    0    0  501    0  0.00000000000E+00  0.00000000000E+00  0.12254844481E+03  0.12254844481E+03  0.00000000000E+00 0. -1.
         -1   -1    0    0    0  501 -0.00000000000E+00 -0.00000000000E+00 -0.10100899679E+03  0.10100899679E+03  0.00000000000E+00 0.  1.
         25    2    1    2    0    0 -0.58574903418E+01  0.20931253170E+02  0.15544002739E+02  0.12791447666E+03  0.12509224503E+03 0.  0.
          5    1    3    3  502    0 -0.14688203090E+01  0.39115189590E+02 -0.47690638339E+02  0.61838700463E+02  0.41800000000E+01 0.  1.
         -5    1    3    3    0  502 -0.43886700328E+01 -0.18183936420E+02  0.63234641078E+02  0.66075776202E+02  0.41800000000E+01 0.  1.
        -11    1    1    2    0    0 -0.38560053439E+02 -0.99418382002E+01 -0.18312779450E+02  0.43830078248E+02  0.00000000000E+00 0.  1.
         11    1    1    2    0    0  0.44417543781E+02 -0.10989414970E+02  0.24308224727E+02  0.51812886682E+02  0.00000000000E+00 0. -1.
</event>
<event>
 6    1  0.2651429E-009  0.1159099E+03  0.7561462E-02  0.1250001E+00
          1   -1    0    0  501    0  0.00000000000E+00  0.00000000000E+00  0.28402081390E+03  0.28402081390E+03  0.00000000000E+00 0. -1.
         -1   -1    0    0    0  501 -0.00000000000E+00 -0.00000000000E+00 -0.64131671729E+02  0.64131671729E+02  0.00000000000E+00 0.  1.
          5    1    1    2  502    0 -0.87732551866E+02 -0.58682211746E+01  0.92752345209E+02  0.12787457378E+03  0.41800000000E+01 0. -1.
         -5    1    1    2    0  502  0.37835231300E+02 -0.26163506558E+01  0.10299615205E+03  0.10983637720E+03  0.41800000000E+01 0. -1.
        -11    1    1    2    0    0 -0.19052768212E+02  0.28100333326E+02 -0.23154676493E+01  0.34029371137E+02  0.00000000000E+00 0. -1.
         11    1    1    2    0    0  0.68950088778E+02 -0.19615761495E+02  0.26456112557E+02  0.76412163516E+02  0.00000000000E+00 0.  1.
</event>
<event>
 7    1  0.2651429E-009  0.1698684E+03  0.7561462E-02  0.1177985E+00
          1   -1    0    0  501    0  0.00000000000E+00  0.00000000000E+00  0.31700085219E+03  0.31700085219E+03  0.00000000000E+00 0. -1.
         -1   -1    0    0    0  501 -0.00000000000E+00 -0.00000000000E+00 -0.17686928885E+03  0.17686928885E+03  0.00000000000E+00 0.  1.
         25    2    1    2    0    0 -0.57306091964E+02  0.15168057939E+03 -0.71395909668E+02  0.21687809499E+03  0.12509095023E+03 0.  0.
          5    1    3    3  502    0 -0.21835339166E+02  0.78874770114E+02 -0.10143257151E+03  0.13039957960E+03  0.41800000000E+01 0. -1.
         -5    1    3    3    0  502 -0.35470752798E+02  0.72805809277E+02  0.30036661846E+02  0.86478515386E+02  0.41800000000E+01 0. -1.
        -11    1    1    2    0    0  0.19535741976E+02  0.85254364737E+00  0.39003579911E+02  0.43630852514E+02  0.00000000000E+00 0.  1.
         11    1    1    2    0    0  0.37770349988E+02 -0.15253312304E+03  0.17252389309E+03  0.23336119354E+03  0.00000000000E+00 0. -1.
</event>
<event>
 7    1  0.2651429E-009  0.1417924E+03  0.7561462E-02  0.1210937E+00
         -4   -1    0    0    0  501 -0.00000000000E+00  0.00000000000E+00  0.28497823578E+03  0.28497823578E+03  0.00000000000E+00 0.  1.
          4   -1    0    0  501    0  0.00000000000E+00 -0.00000000000E+00 -0.12287069027E+03  0.12287069027E+03  0.00000000000E+00 0. -1.
         25    2    1    2    0    0 -0.13922008897E+03  0.10388772118E+02  0.18008726855E+02  0.18830286968E+03  0.12507396504E+03 0.  0.
          5    1    3    3  502    0 -0.13843777237E+03  0.10372965309E+02 -0.28347376612E+02  0.14175211246E+03  0.41800000000E+01 0.  1.
         -5    1    3    3    0  502 -0.78231660079E+00  0.15806808814E-01  0.46356103467E+02  0.46550757220E+02  0.41800000000E+01 0.  1.
        -11    1    1    2    0    0  0.11894331300E+03 -0.14277294267E+02  0.61998401924E+02  0.13488941649E+03  0.00000000000E+00 0. -1.
         11    1    1    2    0    0  0.20276775966E+02  0.38885221486E+01  0.82100416730E+02  0.84656639877E+02  0.00000000000E+00 0.  1.
</event>
<event>
 7    1  0.2651429E-009  0.1234597E+03  0.7561462E-02  0.1237496E+00
          1   -1    0    0  501    0  0.00000000000E+00  0.00000000000E+00  0.33007662233E+03  0.33007662233E+03  0.00000000000E+00 0. -1.
         -1   -1    0    0    0  501 -0.00000000000E+00 -0.00000000000E+00 -0.76293838656E+02  0.76293838656E+02  0.00000000000E+00 0.  1.
         25    2    1    2    0    0  0.47712741054E+02  0.81071095174E+02  0.49140463983E+02  0.16404720176E+03  0.12509065142E+03 0.  0.
          5    1    3    3  502    0 -0.32050112786E+02  0.66798667173E+01  0.43698684354E+02  0.54762010219E+02  0.41800000000E+01 0. -1.
         -5    1    3    3    0  502  0.79762853839E+02  0.74391228457E+02  0.54417796283E+01  0.10928519154E+03  0.41800000000E+01 0. -1.
        -11    1    1    2    0    0 -0.26069307744E+02 -0.78803109380E+02  0.78255434394E+02  0.11407651759E+03  0.00000000000E+00 0.  1.
         11    1    1    2    0    0 -0.21643433310E+02 -0.22679857946E+01  0.12638688530E+03  0.12824674164E+03  0.00000000000E+00 0. -1.
</event>
<event>
 7    1  0.2651429E-009  0.2138621E+03  0.7561462E-02  0.1138544E+00
         -1   -1    0    0    0  501 -0.00000000000E+00  0.00000000000E+00  0.66730794616E+02  0.66730794616E+02  0.00000000000E+00 0.  1.
          1   -1    0    0  501    0  0.00000000000E+00 -0.00000000000E+00 -0.94294853585E+03  0.94294853585E+03  0.00000000000E+00 0. -1.
         25    2    1    2    0    0  0.17061125338E+03  0.11223303580E+03 -0.25692533904E+03  0.35122929223E+03  0.12508769635E+03 0.  0.
          5    1    3    3  502    0  0.15576136200E+03  0.98808574813E+02 -0.26995349734E+03  0.32698180297E+03  0.41800000000E+01 0. -1.
         -5    1    3    3    0  502  0.14849891381E+02  0.13424460991E+02  0.13028158302E+02  0.24247489265E+02  0.41800000000E+01 0. -1.
        -11    1    1    2    0    0 -0.55377527127E+02  0.83209283128E+01 -0.13111847900E+03  0.14257616875E+03  0.00000000000E+00 0.  1.
         11    1    1    2    0    0 -0.11523372625E+03 -0.12055396412E+03 -0.48817392319E+03  0.51587386948E+03  0.00000000000E+00 0. -1.
</event>
<event>
 7    1  0.2651429E-009  0.1129993E+03  0.7561462E-02  0.1255114E+00
          3   -1    0    0  501    0  0.00000000000E+00  0.00000000000E+00  0.13652082301E+03  0.13652082301E+03  0.00000000000E+00 0. -1.
         -3   -1    0    0    0  501 -0.00000000000E+00 -0.00000000000E+00 -0.11777006790E+03  0.11777006790E+03  0.00000000000E+00 0.  1.
         25    2    1    2    0    0 -0.41852460432E+02 -0.56089593760E+01  0.60003145511E+02  0.14502167200E+03  0.12509124273E+03 0.  0.
          5    1    3    3  502    0  0.32088091292E+02  0.33357507360E+02  0.33326540892E+02  0.57188282260E+02  0.41800000000E+01 0.  1.
         -5    1    3    3    0  502 -0.73940551724E+02 -0.38966466736E+02  0.26676604619E+02  0.87833389739E+02  0.41800000000E+01 0.  1.
        -11    1    1    2    0    0  0.43920133526E+02  0.41181812882E+02 -0.83769335493E+01  0.60787275452E+02  0.00000000000E+00 0. -1.
         11    1    1    2    0    0 -0.20676730943E+01 -0.35572853506E+02 -0.32875456854E+02  0.48481943463E+02  0.00000000000E+00 0.  1.
</event>
<event>
 7    1  0.2651429E-009  0.1124475E+03  0.7561462E-02  0.1256104E+00
          1   -1    0    0  501    0  0.00000000000E+00  0.00000000000E+00  0.16301920255E+03  0.16301920255E+03  0.00000000000E+00 0. -1.
         -1   -1    0    0    0  501 -0.00000000000E+00 -0.00000000000E+00 -0.15439417434E+03  0.15439417434E+03  0.00000000000E+00 0.  1.
         25    2    1    2    0    0 -0.21867902236E+02  0.74933826270E+02 -0.73331963307E+02  0.16467619693E+03  0.12508952604E+03 0.  0.
          5    1    3    3  502    0 -0.58665594202E+02  0.19654658449E+02  0.46254770318E+01  0.62183799977E+02  0.41800000000E+01 0. -1.
         -5    1    3    3    0  502  0.36797691966E+02  0.55279167820E+02 -0.77957440339E+02  0.10249239695E+03  0.41800000000E+01 0. -1.
        -11    1    1    2    0    0  0.36097401938E+02 -0.73696353241E+02  0.13941152082E+02  0.83237795676E+02  0.00000000000E+00 0.  1.
         11    1    1    2    0    0 -0.14229499702E+02 -0.12374730285E+01  0.68015839436E+02  0.69499384281E+02  0.00000000000E+00 0. -1.
</event>
<event>
 7    1  0.2651429E-009  0.8999297E+02  0.7561462E-02  0.1302869E+00
          1   -1    0    0  501    0  0.00000000000E+00  0.00000000000E+00  0.35818968740E+02  0.35818968740E+02  0.00000000000E+00 0. -1.
         -1   -1    0    0    0  501 -0.00000000000E+00 -0.00000000000E+00 -0.34338963951E+03  0.34338963951E+03  0.00000000000E+00 0.  1.
         25    2    1    2    0    0  0.19020327904E+02 -0.49157648177E+01 -0.19788419071E+03  0.23493031886E+03  0.12509262236E+03 0.  0.
          5    1    3    3  502    0  0.19184350200E+02  0.51966985978E+02 -0.44160026902E+02  0.70966099655E+02  0.41800000000E+01 0. -1.
         -5    1    3    3    0  502 -0.16402229691E+00 -0.56882750796E+02 -0.15372416380E+03  0.16396421920E+03  0.41800000000E+01 0. -1.
        -11    1    1    2    0    0  0.21556090694E+02 -0.10517119947E+02 -0.95713237501E+02  0.98672684624E+02  0.00000000000E+00 0.  1.
         11    1    1    2    0    0 -0.40576418597E+02  0.15432884765E+02 -0.13973242559E+02  0.45605604765E+02  0.00000000000E+00 0. -1.
</event>
<event>
 7    1  0.2651429E-009  0.8439038E+02  0.7561462E-02  0.1317034E+00
         -1   -1    0    0    0  501 -0.00000000000E+00  0.00000000000E+00  0.18114970176E+03  0.18114970176E+03  0.00000000000E+00 0.  1.
          1   -1    0    0  501    0  0.00000000000E+00 -0.00000000000E+00 -0.10347392314E+03  0.10347392314E+03  0.00000000000E+00 0. -1.
         25    2    1    2    0    0  0.20387129957E+02 -0.45552058740E+02  0.11059748131E+03  0.17427311005E+03  0.12509471968E+03 0.  0.
          5    1    3    3  502    0 -0.37093100703E+02 -0.32295514722E+02  0.57308908661E+00  0.49362933686E+02  0.41800000000E+01 0. -1.
         -5    1    3    3    0  502  0.57480230660E+02 -0.13256544018E+02  0.11002439223E+03  0.12491017637E+03  0.41800000000E+01 0. -1.
        -11    1    1    2    0    0  0.62230951103E+01  0.27337982774E+02  0.29123315009E+02  0.40425977935E+02  0.00000000000E+00 0.  1.
         11    1    1    2    0    0 -0.26610225067E+02  0.18214075966E+02 -0.62045017702E+02  0.69924536917E+02  0.00000000000E+00 0. -1.
</event>
<event>
 7    1  0.2651429E-009  0.9707098E+02  0.7561462E-02  0.1286579E+00
         -2   -1    0    0    0  501 -0.00000000000E+00  0.00000000000E+00  0.10658945446E+03  0.10658945446E+03  0.00000000000E+00 0.  1.
          2   -1    0    0  501    0  0.00000000000E+00 -0.00000000000E+00 -0.11517188865E+03  0.11517188865E+03  0.00000000000E+00 0. -1.
         25    2    1    2    0    0 -0.24553064632E+02  0.12757885817E+02 -0.22659073882E+02  0.13009817184E+03  0.12508590670E+03 0.  0.
          5    1    3    3  502    0  0.89660912698E+01 -0.40615740915E+02  0.26987832667E+02  0.49757860834E+02  0.41800000000E+01 0.  1.
         -5    1    3    3    0  502 -0.33519155902E+02  0.53373626732E+02 -0.49646906549E+02  0.80340311007E+02  0.41800000000E+01 0.  1.
        -11    1    1    2    0    0  0.49647564934E+02  0.14893730736E+02  0.16074807531E+02  0.54268806475E+02  0.00000000000E+00 0.  1.
         11    1    1    2    0    0 -0.25094500301E+02 -0.27651616553E+02 -0.19981678378E+01  0.37394364790E+02  0.00000000000E+00 0. -1.
</event>
<event>
 7    1  0.2651429E-009  0.1656814E+03  0.7561462E-02  0.1182428E+00
          2   -1    0    0  501    0  0.00000000000E+00  0.00000000000E+00  0.91364296564E+03  0.91364296564E+03  0.00000000000E+00 0. -1.
         -2   -1    0    0    0  501 -0.00000000000E+00 -0.00000000000E+00 -0.46501707359E+02  0.46501707359E+02  0.00000000000E+00 0.  1.
         25    2    1    2    0    0  0.13156450687E+03  0.97585906209E+02  0.59652508031E+03  0.63112770800E+03  0.12509110201E+03 0.  0.
          5    1    3    3  502    0  0.70691993263E+02  0.36074865171E+02  0.10321605507E+03  0.13026810904E+03  0.41800000000E+01 0. -1.
         -5    1    3    3    0  502  0.60872513606E+02  0.61511041038E+02  0.49330902525E+03  0.50085959896E+03  0.41800000000E+01 0. -1.
        -11    1    1    2    0    0 -0.72781956690E+02 -0.67269233063E+02  0.80363755356E+02  0.12759583109E+03  0.00000000000E+00 0.  1.
         11    1    1    2    0    0 -0.58782550179E+02 -0.30316673146E+02  0.19025242262E+03  0.20142113392E+03  0.00000000000E+00 0. -1.
</event>
<event>
 7    1  0.2651429E-009  0.1709346E+03  0.7561462E-02  0.1176877E+00
          2   -1    0    0  501    0  0.00000000000E+00  0.00000000000E+00  0.65136104826E+03  0.65136104826E+03  0.00000000000E+00 0. -1.
         -2   -1    0    0    0  501 -0.00000000000E+00 -0.00000000000E+00 -0.67385470383E+02  0.67385470383E+02  0.00000000000E+00 0.  1.
         25    2    1    2    0    0 -0.59675568956E+02  0.13745421154E+03  0.13759874605E+03  0.23881748800E+03  0.12508214844E+03 0.  0.
          5    1    3    3  502    0 -0.34815701000E+02  0.15607404269E+03  0.13107109558E+03  0.20680508779E+03  0.41800000000E+01 0. -1.
         -5    1    3    3    0  502 -0.24859867956E+02 -0.18619831147E+02  0.65276504684E+01  0.32012400213E+02  0.41800000000E+01 0. -1.
        -11    1    1    2    0    0  0.22520887797E+02 -0.70274899722E+02  0.95164846142E+02  0.12042466466E+03  0.00000000000E+00 0.  1.
         11    1    1    2    0    0  0.37154681159E+02 -0.67179311821E+02  0.35121198568E+03  0.35950436598E+03  0.00000000000E+00 0. -1.
</event>
<event>
 7    1  0.2651429E-009  0.1157539E+03  0.7561462E-02  0.1250271E+00
         -1   -1    0    0    0  501 -0.00000000000E+00  0.00000000000E+00  0.11307905117E+04  0.11307905117E+04  0.00000000000E+00 0.  1.
          1   -1    0    0  501    0  0.00000000000E+00 -0.00000000000E+00 -0.23798929268E+02  0.23798929268E+02  0.00000000000E+00 0. -1.
         25    2    1    2    0    0 -0.20346339312E+02 -0.79519262481E+02  0.91423291320E+03  0.92639498899E+03  0.12509424218E+03 0.  0.
          5    1    3    3  502    0 -0.44611586645E+02 -0.29408268127E+02  0.13626798214E+03  0.14642907926E+03  0.41800000000E+01 0.  1.
         -5    1    3    3    0  502  0.24265247333E+02 -0.50110994354E+02  0.77796493106E+03  0.77996590973E+03  0.41800000000E+01 0.  1.
        -11    1    1    2    0    0  0.47343917777E+02  0.11246211251E+02  0.80232597836E+02  0.93835992953E+02  0.00000000000E+00 0. -1.
         11    1    1    2    0    0 -0.26997578465E+02  0.68273051230E+02  0.11252607140E+03  0.13435845903E+03  0.00000000000E+00 0.  1.
</event>
<event>
 7    1  0.2651429E-009  0.9372380E+02  0.7561462E-02  0.1294077E+00
          3   -1    0    0  501    0  0.00000000000E+00  0.00000000000E+00  0.13343112021E+03  0.13343112021E+03  0.00000000000E+00 0. -1.
         -3   -1    0    0    0  501 -0.00000000000E+00 -0.00000000000E+00 -0.10746804932E+03  0.10746804932E+03  0.00000000000E+00 0.  1.
         25    2    1    2    0    0 -0.15155682653E+01  0.50138920794E+02  0.14620735203E+02  0.13556677152E+03  0.12509346632E+03 0.  0.
          5    1    3    3  502    0 -0.37111328664E+02  0.16055621712E+01 -0.39595778372E+02  0.54452976135E+02  0.41800000000E+01 0. -1.
         -5    1    3    3    0  502  0.35595760399E+02  0.48533358623E+02  0.54216513575E+02  0.81113795386E+02  0.41800000000E+01 0. -1.
        -11    1    1    2    0    0 -0.33699852468E+02 -0.41528535287E+02 -0.20307834951E+02  0.57207582189E+02  0.00000000000E+00 0.  1.
         11    1    1    2    0    0  0.35215420734E+02 -0.86103855065E+01  0.31650170639E+02  0.48124815817E+02  0.00000000000E+00 0. -1.
</event>
<event>
 7    1  0.2651429E-009  0.9909373E+02  0.7561462E-02  0.1282213E+00
         -2   -1    0    0    0  501 -0.00000000000E+00  0.00000000000E+00  0.26177064661E+02  0.26177064661E+02  0.00000000000E+00 0.  1.
          2   -1    0    0  501    0  0.00000000000E+00 -0.00000000000E+00 -0.52315529477E+03  0.52315529477E+03  0.00000000000E+00 0. -1.
         25    2    1    2    0    0 -0.89957952124E+01  0.42551814164E+02 -0.27498100929E+03  0.30521369065E+03  0.12509700345E+03 0.  0.
          5    1    3    3  502    0 -0.47411369874E+02 -0.25558796351E+02 -0.11839166363E+03  0.13013511625E+03  0.41800000000E+01 0. -1.
         -5    1    3    3    0  502  0.38415574662E+02  0.68110610514E+02 -0.15658934566E+03  0.17507857440E+03  0.41800000000E+01 0. -1.
        -11    1    1    2    0    0  0.17821228686E+02 -0.50762967344E+02 -0.22528813683E+03  0.23162301190E+03  0.00000000000E+00 0.  1.
         11    1    1    2    0    0 -0.88254334740E+01  0.82111531800E+01  0.32909160127E+01  0.12495656876E+02  0.00000000000E+00 0. -1.
</event>
<event>
 7    1  0.2651429E-009  0.1282136E+03  0.7561462E-02  0.1230131E+00
          3   -1    0    0  501    0  0.00000000000E+00  0.00000000000E+00  0.91029677506E+02  0.91029677506E+02  0.00000000000E+00 0. -1.
         -3   -1    0    0    0  501 -0.00000000000E+00 -0.00000000000E+00 -0.23881136770E+03  0.23881136770E+03  0.00000000000E+00 0.  1.
         25    2    1    2    0    0 -0.18658341971E+01  0.98212075398E+02 -0.58440123966E+02  0.16944487391E+03  0.12508886487E+03 0.  0.
          5    1    3    3  502    0 -0.44215182922E+02  0.44993486779E+02  0.19268694865E+02  0.66091990855E+02  0.41800000000E+01 0.  1.
         -5    1    3    3    0  502  0.42349348725E+02  0.53218588619E+02 -0.77708818832E+02  0.10335288306E+03  0.41800000000E+01 0.  1.
        -11    1    1    2    0    0  0.26544705332E+02 -0.30076085453E+01 -0.45396949406E+02  0.52673998384E+02  0.00000000000E+00 0.  1.
         11    1    1    2    0    0 -0.24678871135E+02 -0.95204466853E+02 -0.43944616823E+02  0.10772217291E+03  0.00000000000E+00 0. -1.
</event>
<event>
 7    1  0.2651429E-009  0.1073204E+03  0.7561462E-02  0.1265614E+00
         -4   -1    0    0    0  501 -0.00000000000E+00  0.00000000000E+00  0.30620070733E+03  0.30620070733E+03  0.00000000000E+00 0.  1.
          4   -1    0    0  501    0  0.00000000000E+00 -0.00000000000E+00 -0.61644972154E+02  0.61644972154E+02  0.00000000000E+00 0. -1.
         25    2    1    2    0    0 -0.39695769558E+02 -0.53115745683E+02  0.64482853869E+02  0.15556897029E+03  0.12508648813E+03 0.  0.
          5    1    3    3  502    0 -0.70974949127E+02 -0.31203505302E+02  0.82364781429E+02  0.11319245455E+03  0.41800000000E+01 0.  1.
         -5    1    3    3    0  502  0.31279179569E+02 -0.21912240381E+02 -0.17881927559E+02  0.42376515740E+02  0.41800000000E+01 0.  1.
        -11    1    1    2    0    0 -0.18041213585E+02 -0.27361938700E+01  0.88943390204E+02  0.90795918441E+02  0.00000000000E+00 0.  1.
         11    1    1    2    0    0  0.57736983143E+02  0.55851939553E+02  0.91129491105E+02  0.12148079076E+03  0.00000000000E+00 0. -1.
</event>
<event>
 7    1  0.3265434E-009  0.1343248E+03  0.7561462E-02  0.1221176E+00
         -1   -1    0    0    0  501 -0.00000000000E+00  0.00000000000E+00  0.32180344961E+03  0.32180344961E+03  0.00000000000E+00 0.  1.
          1   -1    0    0  501    0  0.00000000000E+00 -0.00000000000E+00 -0.91328198320E+02  0.91328198320E+02  0.00000000000E+00 0. -1.
         25    2    1    2    0    0 -0.12395326631E+02  0.88285980478E+02  0.24078006905E+03  0.28560456791E+03  0.12508744577E+03 0.  0.
          5    1    3    3  502    0  0.49198511721E+02  0.71757154990E+02  0.16408893285E+03  0.18577468378E+03  0.41800000000E+01 0. -1.
         -5    1    3    3    0  502 -0.61593838352E+02  0.16528825487E+02  0.76691136198E+02  0.99829884134E+02  0.41800000000E+01 0. -1.
        -11    1    1    2    0    0  0.37236832390E+02 -0.84717023100E+02  0.12792550093E+02  0.93419510956E+02  0.00000000000E+00 0.  1.
         11    1    1    2    0    0 -0.24841505759E+02 -0.35689573774E+01 -0.23097367857E+02  0.34107569059E+02  0.00000000000E+00 0. -1.
</event>
<event>
 7    1  0.2651429E-009  0.9350516E+02  0.7561462E-02  0.1294579E+00
         -3   -1    0    0    0  501 -0.00000000000E+00  0.00000000000E+00  0.21178065215E+03  0.21178065215E+03  0.00000000000E+00 0.  1.
          3   -1    0    0  501    0  0.00000000000E+00 -0.00000000000E+00 -0.74966043213E+02  0.74966043213E+02  0.00000000000E+00 0. -1.
         25    2    1    2    0    0 -0.55136757261E+02  0.18581040727E+01  0.12151227476E+03  0.18290973477E+03  0.12508886283E+03 0.  0.
          5    1    3    3  502    0 -0.86923757807E+01 -0.37292650859E+02 -0.84103791156E+01  0.39427225132E+02  0.41800000000E+01 0. -1.
         -5    1    3    3    0  502 -0.46444381481E+02  0.39150754931E+02  0.12992265387E+03  0.14348250964E+03  0.41800000000E+01 0. -1.
        -11    1    1    2    0    0 -0.16001886732E+02  0.30693049970E+01  0.27038681243E+02  0.31568517474E+02  0.00000000000E+00 0.  1.
         11    1    1    2    0    0  0.71138643993E+02 -0.49274090697E+01 -0.11736347057E+02  0.72268443124E+02  0.00000000000E+00 0. -1.
</event>
<event>
 7    1  0.2651429E-009  0.1693923E+03  0.7561462E-02  0.1178483E+00
          2   -1    0    0  501    0  0.00000000000E+00  0.00000000000E+00  0.30851853889E+02  0.30851853889E+02  0.00000000000E+00 0. -1.
         -2   -1    0    0    0  501 -0.00000000000E+00 -0.00000000000E+00 -0.12163422915E+04  0.12163422915E+04  0.00000000000E+00 0.  1.
         25    2    1    2    0    0 -0.75226396708E+02 -0.13545736128E+03 -0.75276811617E+03  0.77866239275E+03  0.12509027808E+03 0.  0.
          5    1    3    3  502    0 -0.62830441526E+02 -0.63138903890E+02 -0.17670310352E+03  0.19792838291E+03  0.41800000000E+01 0.  1.
         -5    1    3    3    0  502 -0.12395955182E+02 -0.72318457392E+02 -0.57606501265E+03  0.58073400984E+03  0.41800000000E+01 0.  1.
        -11    1    1    2    0    0  0.64800552406E+02  0.32239734700E+02 -0.13384090260E+03  0.15215748189E+03  0.00000000000E+00 0. -1.
         11    1    1    2    0    0  0.10425844302E+02  0.10321762658E+03 -0.29888141883E+03  0.31637427074E+03  0.00000000000E+00 0.  1.
</event>
<event>
 7    1  0.2651429E-009  0.1460158E+03  0.7561462E-02  0.1205456E+00
          2   -1    0    0  501    0  0.00000000000E+00  0.00000000000E+00  0.10774618917E+04  0.10774618917E+04  0.00000000000E+00 0. -1.
         -2   -1    0    0    0  501 -0.00000000000E+00 -0.00000000000E+00 -0.32457449278E+02  0.32457449278E+02  0.00000000000E+00 0.  1.
         25    2    1    2    0    0  0.20055991155E+02  0.13630163873E+03  0.35812673014E+03  0.40358724947E+03  0.12509010189E+03 0.  0.
          5    1    3    3  502    0  0.28102725823E+02  0.98413751957E+02  0.34879818121E+03  0.36352809161E+03  0.41800000000E+01 0.  1.
         -5    1    3    3    0  502 -0.80467346677E+01  0.37887886778E+02  0.93285489287E+01  0.40059157860E+02  0.41800000000E+01 0.  1.
        -11    1    1    2    0    0  0.13567063542E+02 -0.10093293717E+03  0.57956355397E+03  0.58844323100E+03  0.00000000000E+00 0. -1.
         11    1    1    2    0    0 -0.33623054698E+02 -0.35368701561E+02  0.10731415829E+03  0.11788886048E+03  0.00000000000E+00 0.  1.
</event>
<event>
 7    1  0.2651429E-009  0.1490036E+03  0.7561462E-02  0.1201703E+00
          1   -1    0    0  501    0  0.00000000000E+00  0.00000000000E+00  0.47390351971E+03  0.47390351971E+03  0.00000000000E+00 0. -1.
         -1   -1    0    0    0  501 -0.00000000000E+00 -0.00000000000E+00 -0.68937232080E+02  0.68937232080E+02  0.00000000000E+00 0.  1.
         25    2    1    2    0    0  0.98717417700E+02 -0.82834585891E+02  0.11627482759E+03  0.21395120418E+03  0.12509430467E+03 0.  0.
          5    1    3    3  502    0  0.10095659366E+02 -0.41166958395E+02  0.10739424774E+03  0.11553197674E+03  0.41800000000E+01 0. -1.
         -5    1    3    3    0  502  0.88621758334E+02 -0.41667627495E+02  0.88805798473E+01  0.98419227439E+02  0.41800000000E+01 0. -1.
        -11    1    1    2    0    0 -0.23592815961E+02 -0.19388759021E+02  0.62136487322E+02  0.69235020026E+02  0.00000000000E+00 0.  1.
         11    1    1    2    0    0 -0.75124601739E+02  0.10222334491E+03  0.22655497272E+03  0.25965452758E+03  0.00000000000E+00 0. -1.
</event>
<event>
 7    1  0.2714907E-009  0.1549368E+03  0.7561462E-02  0.1194535E+00
         -1   -1    0    0    0  501 -0.00000000000E+00  0.00000000000E+00  0.24024046499E+02  0.24024046499E+02  0.00000000000E+00 0.  1.
          1   -1    0    0  501    0  0.00000000000E+00 -0.00000000000E+00 -0.10573401079E+04  0.10573401079E+04  0.00000000000E+00 0. -1.
         25    2    1    2    0    0 -0.44859819724E+02  0.10499828803E+03 -0.62835378810E+03  0.65077702345E+03  0.12508080315E+03 0.  0.
          5    1    3    3  502    0  0.28570361074E+02  0.83513009913E+02 -0.26211839448E+03  0.27661202700E+03  0.41800000000E+01 0.  1.
         -5    1    3    3    0  502 -0.73430180798E+02  0.21485278112E+02 -0.36623539361E+03  0.37416499644E+03  0.41800000000E+01 0.  1.
        -11    1    1    2    0    0 -0.22899249516E+02 -0.58185661451E+02 -0.14548611482E+03  0.15835452767E+03  0.00000000000E+00 0.  1.
         11    1    1    2    0    0  0.67759069239E+02 -0.46812626574E+02 -0.25947615849E+03  0.27223260329E+03  0.00000000000E+00 0. -1.
</event>
<event>
 7    1  0.2651429E-009  0.8863526E+02  0.7561462E-02  0.1306191E+00
          2   -1    0    0  501    0  0.00000000000E+00  0.00000000000E+00  0.89890019015E+02  0.89890019015E+02  0.00000000000E+00 0. -1.
         -2   -1    0    0    0  501 -0.00000000000E+00 -0.00000000000E+00 -0.12228358404E+03  0.12228358404E+03  0.00000000000E+00 0.  1.
         25    2    1    2    0    0  0.79671472783E+01 -0.53773182344E+02 -0.48536927946E+02  0.14476949524E+03  0.12508933928E+03 0.  0.
          5    1    3    3  502    0 -0.44151489115E+02 -0.34178907143E+02  0.17148522415E+02  0.58558482780E+02  0.41800000000E+01 0.  1.
         -5    1    3    3    0  502  0.52118636393E+02 -0.19594275201E+02 -0.65685450361E+02  0.86211012459E+02  0.41800000000E+01 0.  1.
        -11    1    1    2    0    0 -0.22600654571E+02  0.34490026327E+02  0.10211649823E+02  0.42480928605E+02  0.00000000000E+00 0. -1.
         11    1    1    2    0    0  0.14633507293E+02  0.19283156017E+02  0.59317130982E+01  0.24923179210E+02  0.00000000000E+00 0.  1.
</event>
<event>
 7    1  0.2651429E-009  0.1141627E+03  0.7561462E-02  0.1253050E+00
         -1   -1    0    0    0  501 -0.00000000000E+00  0.00000000000E+00  0.61943445104E+02  0.61943445104E+02  0.00000000000E+00 0.  1.
          1   -1    0    0  501    0  0.00000000000E+00 -0.00000000000E+00 -0.37708428915E+03  0.37708428915E+03  0.00000000000E+00 0. -1.
         25    2    1    2    0    0 -0.18857186158E+02 -0.98505398954E+02 -0.11570166135E+03  0.19771927497E+03  0.12508848934E+03 0.  0.
          5    1    3    3  502    0  0.39615580783E+01 -0.23874794554E+02 -0.11700562402E+03  0.11955537717E+03  0.41800000000E+01 0. -1.
         -5    1    3    3    0  502 -0.22818744237E+02 -0.74630604400E+02  0.13039626716E+01  0.78163897806E+02  0.41800000000E+01 0. -1.
        -11    1    1    2    0    0  0.42214945662E+02  0.92221812679E+02 -0.11435534174E+03  0.15285322553E+03  0.00000000000E+00 0.  1.
         11    1    1    2    0    0 -0.23357759503E+02  0.62835862741E+01 -0.85083840948E+02  0.88455233740E+02  0.00000000000E+00 0. -1.
</event>
<event>
 7    1  0.2651429E-009  0.9013137E+02  0.7561462E-02  0.1302534E+00
          1   -1    0    0  501    0  0.00000000000E+00  0.00000000000E+00  0.31735344429E+03  0.31735344429E+03  0.00000000000E+00 0. -1.
         -1   -1    0    0    0  501 -0.00000000000E+00 -0.00000000000E+00 -0.58001198057E+02  0.58001198057E+02  0.00000000000E+00 0.  1.
         25    2    1    2    0    0 -0.46047474339E+02 -0.46104552719E+02  0.20723513493E+03  0.25067861669E+03  0.12508944016E+03 0.  0.
          5    1    3    3  502    0 -0.31260720717E+02  0.22326834501E+02  0.80027198456E+01  0.39461831224E+02  0.41800000000E+01 0.  1.
         -5    1    3    3    0  502 -0.14786753622E+02 -0.68431387220E+02  0.19923241509E+03  0.21121678546E+03  0.41800000000E+01 0.  1.
        -11    1    1    2    0    0  0.23470819537E+02  0.42600832118E+02  0.76886135513E+02  0.90979053090E+02  0.00000000000E+00 0. -1.
         11    1    1    2    0    0  0.22576654803E+02  0.35037206009E+01 -0.24769024212E+02  0.33696972572E+02  0.00000000000E+00 0.  1.
</event>
<event>
 7    1  0.2651429E-009  0.8765799E+02  0.7561462E-02  0.1308624E+00
         -2   -1    0    0    0  501 -0.00000000000E+00  0.00000000000E+00  0.13722196324E+03  0.13722196324E+03  0.00000000000E+00 0.  1.
          2   -1    0    0  501    0  0.00000000000E+00 -0.00000000000E+00 -0.12449642536E+03  0.12449642536E+03  0.00000000000E+00 0. -1.
         25    2    1    2    0    0  0.54895868006E+02  0.22312734360E+02  0.50065732242E+02  0.14719066679E+03  0.12508837038E+03 0.  0.
          5    1    3    3  502    0  0.43162966786E+02  0.45228909760E+02 -0.25197792643E+02  0.67535895152E+02  0.41800000000E+01 0.  1.
         -5    1    3    3    0  502  0.11732901221E+02 -0.22916175400E+02  0.75263524885E+02  0.79654771634E+02  0.41800000000E+01 0.  1.
        -11    1    1    2    0    0 -0.39914273975E+02  0.17838681411E+02  0.15596987899E+02  0.46418033704E+02  0.00000000000E+00 0.  1.
         11    1    1    2    0    0 -0.14981594031E+02 -0.40151415771E+02 -0.52937182268E+02  0.68109688111E+02  0.00000000000E+00 0. -1.
</event>
<event>
 7    1  0.2651429E-009  0.8043195E+02  0.7561462E-02  0.1327830E+00
          1   -1    0    0  501    0  0.00000000000E+00  0.00000000000E+00  0.49930008160E+03  0.49930008160E+03  0.00000000000E+00 0. -1.
         -1   -1    0    0    0  501 -0.00000000000E+00 -0.00000000000E+00 -0.33382237173E+02  0.33382237173E+02  0.00000000000E+00 0.  1.
         25    2    1    2    0    0  0.23091933916E+02  0.46084544765E+02  0.36813353013E+03  0.39220440069E+03  0.12507986741E+03 0.  0.
          5    1    3    3  502    0  0.14017830052E+01  0.36281182965E+02  0.17118551941E+02  0.40358474370E+02  0.41800000000E+01 0.  1.
         -5    1    3    3    0  502  0.21690150911E+02  0.98033618001E+01  0.35101497819E+03  0.35184592632E+03  0.41800000000E+01 0.  1.
        -11    1    1    2    0    0  0.32801133462E+02 -0.13661356214E+02  0.26932785563E+02  0.44586118335E+02  0.00000000000E+00 0. -1.
         11    1    1    2    0    0 -0.55893067378E+02 -0.32423188551E+02  0.70851528733E+02  0.95891799756E+02  0.00000000000E+00 0.  1.
</event>
<event>
 7    1  0.2651429E-009  0.2629768E+03  0.7561462E-02  0.1105368E+00
          1   -1    0    0  501    0  0.00000000000E+00  0.00000000000E+00  0.33032169444E+03  0.33032169444E+03  0.00000000000E+00 0. -1.
         -1   -1    0    0    0  501 -0.00000000000E+00 -0.00000000000E+00 -0.24991209202E+03  0.24991209202E+03  0.00000000000E+00 0.  1.
         25    2    1    2    0    0  0.22714858194E+03  0.11083059247E+03  0.12460887856E+03  0.30831002191E+03  0.12509116072E+03 0.  0.
          5    1    3    3  502    0  0.17958682760E+03  0.35746188902E+02  0.44277625113E+02  0.18843354042E+03  0.41800000000E+01 0. -1.
         -5    1    3    3    0  502  0.47561754339E+02  0.75084403566E+02  0.80331253452E+02  0.11987648150E+03  0.41800000000E+01 0. -1.
        -11    1    1    2    0    0 -0.72631538041E+02 -0.23554436566E+02 -0.55049422655E+02  0.94130710901E+02  0.00000000000E+00 0.  1.
         11    1    1    2    0    0 -0.15451704390E+03 -0.87276155902E+02  0.10850146511E+02  0.17779305364E+03  0.00000000000E+00 0. -1.
</event>
<event>
 7    1  0.2651429E-009  0.1269302E+03  0.7561462E-02  0.1232083E+00
          3   -1    0    0  501    0  0.00000000000E+00  0.00000000000E+00  0.19257143543E+03  0.19257143543E+03  0.00000000000E+00 0. -1.
         -3   -1    0    0    0  501 -0.00000000000E+00 -0.00000000000E+00 -0.11276080591E+03  0.11276080591E+03  0.00000000000E+00 0.  1.
         25    2    1    2    0    0  0.86271211617E+02 -0.29037120014E+01 -0.53352149695E+01  0.15207105078E+03  0.12508391770E+03 0.  0.
          5    1    3    3  502    0  0.56147509112E+02 -0.58701188275E+02  0.19833399140E+02  0.83721015318E+02  0.41800000000E+01 0. -1.
         -5    1    3    3    0  502  0.30123702505E+02  0.55797476273E+02 -0.25168614109E+02  0.68350035459E+02  0.41800000000E+01 0. -1.
        -11    1    1    2    0    0 -0.50372853187E+02  0.34579723014E+02  0.85859449421E+02  0.10538039019E+03  0.00000000000E+00 0. -1.
         11    1    1    2    0    0 -0.35898358430E+02 -0.31676011012E+02 -0.71360492905E+00  0.47880800365E+02  0.00000000000E+00 0.  1.
</event>
<event>
 7    1  0.2651429E-009  0.1003411E+03  0.7561462E-02  0.1279580E+00
          1   -1    0    0  501    0  0.00000000000E+00  0.00000000000E+00  0.39245978069E+03  0.39245978069E+03  0.00000000000E+00 0. -1.
         -1   -1    0    0    0  501 -0.00000000000E+00 -0.00000000000E+00 -0.50887055178E+02  0.50887055178E+02  0.00000000000E+00 0.  1.
         25    2    1    2    0    0 -0.80837567528E+02  0.35804273180E+02  0.14925457230E+03  0.21387535333E+03  0.12509628733E+03 0.  0.
          5    1    3    3  502    0  0.11329144100E+02  0.58761977251E+01  0.10739940385E+03  0.10823577760E+03  0.41800000000E+01 0. -1.
         -5    1    3    3    0  502 -0.92166711628E+02  0.29928075455E+02  0.41855168453E+02  0.10563957572E+03  0.41800000000E+01 0. -1.
        -11    1    1    2    0    0  0.32432466932E+02 -0.24243436222E+02  0.11737883133E+02  0.42159067964E+02  0.00000000000E+00 0.  1.
         11    1    1    2    0    0  0.48405100596E+02 -0.11560836958E+02  0.18058027007E+03  0.18731241458E+03  0.00000000000E+00 0. -1.
</event>
<event>
 7    1  0.2651429E-009  0.1060947E+03  0.7561462E-02  0.1267978E+00
          1   -1    0    0  501    0  0.00000000000E+00  0.00000000000E+00  0.38947844205E+03  0.38947844205E+03  0.00000000000E+00 0. -1.
         -1   -1    0    0    0  501 -0.00000000000E+00 -0.00000000000E+00 -0.35312723664E+02  0.35312723664E+02  0.00000000000E+00 0.  1.
         25    2    1    2    0    0  0.41822205995E+02 -0.25058426046E+02  0.23381933413E+03  0.26962172281E+03  0.12508945107E+03 0.  0.
          5    1    3    3  502    0 -0.31775588473E+02  0.27904728219E+02  0.59934795171E+02  0.73471177695E+02  0.41800000000E+01 0.  1.
         -5    1    3    3    0  502  0.73597794468E+02 -0.52963154265E+02  0.17388453896E+03  0.19615054511E+03  0.41800000000E+01 0.  1.
        -11    1    1    2    0    0 -0.98860963529E+01  0.41739377386E+02  0.10940718805E+03  0.11751528974E+03  0.00000000000E+00 0. -1.
         11    1    1    2    0    0 -0.31936109642E+02 -0.16680951340E+02  0.10939196204E+02  0.37654153161E+02  0.00000000000E+00 0.  1.
</event>
<event>
 7    1  0.2651429E-009  0.9491498E+02  0.7561462E-02  0.1291368E+00
         -2   -1    0    0    0  501 -0.00000000000E+00  0.00000000000E+00  0.65455956509E+02  0.65455956509E+02  0.00000000000E+00 0.  1.
          2   -1    0    0  501    0  0.00000000000E+00 -0.00000000000E+00 -0.30117198372E+03  0.30117198372E+03  0.00000000000E+00 0. -1.
         25    2    1    2    0    0  0.15669247529E+02  0.72114588815E+02 -0.74132629062E+02  0.16306204447E+03  0.12509014516E+03 0.  0.
          5    1    3    3  502    0 -0.19871141267E+02  0.73212178633E+01  0.28978432462E+02  0.36134255689E+02  0.41800000000E+01 0.  1.
         -5    1    3    3    0  502  0.35540388796E+02  0.64793370952E+02 -0.10311106152E+03  0.12692778878E+03  0.41800000000E+01 0.  1.
        -11    1    1    2    0    0  0.18516962223E+02 -0.50479699518E+02 -0.15304812261E+03  0.16221838918E+03  0.00000000000E+00 0. -1.
         11    1    1    2    0    0 -0.34186209752E+02 -0.21634889298E+02 -0.85352755376E+01  0.41347506583E+02  0.00000000000E+00 0.  1.
</event>
<event>
 7    1  0.2651429E-009  0.1357472E+03  0.7561462E-02  0.1219169E+00
          1   -1    0    0  501    0  0.00000000000E+00  0.00000000000E+00  0.57496293546E+02  0.57496293546E+02  0.00000000000E+00 0. -1.
         -1   -1    0    0    0  501 -0.00000000000E+00 -0.00000000000E+00 -0.45710178795E+03  0.45710178795E+03  0.00000000000E+00 0.  1.
         25    2    1    2    0    0 -0.80967333920E+02 -0.84891600807E+02 -0.25464114606E+03  0.30700269724E+03  0.12508497031E+03 0.  0.
          5    1    3    3  502    0  0.13120847498E+02 -0.48248903066E+02 -0.16311689014E+03  0.17065961893E+03  0.41800000000E+01 0.  1.
         -5    1    3    3    0  502 -0.94088181417E+02 -0.36642697741E+02 -0.91524255919E+02  0.13634307830E+03  0.41800000000E+01 0.  1.
        -11    1    1    2    0    0  0.27328594000E+02  0.12216729980E+02 -0.10434962764E+03  0.10855848806E+03  0.00000000000E+00 0.  1.
         11    1    1    2    0    0  0.53638739920E+02  0.72674870827E+02 -0.40614720703E+02  0.99036896194E+02  0.00000000000E+00 0. -1.
</event>
<event>
 7    1  0.3087209E-009  0.1048332E+03  0.7561462E-02  0.1270449E+00
          2   -1    0    0  501    0  0.00000000000E+00  0.00000000000E+00  0.70449887285E+03  0.70449887285E+03  0.00000000000E+00 0. -1.
         -2   -1    0    0    0  501 -0.00000000000E+00 -0.00000000000E+00 -0.19317263832E+02  0.19317263832E+02  0.00000000000E+00 0.  1.
         25    2    1    2    0    0  0.16395938704E+02 -0.19693012911E+02  0.49550847643E+03  0.51169637366E+03  0.12509151467E+03 0.  0.
          5    1    3    3  502    0 -0.38620514065E+02  0.32546968390E+02  0.16729065410E+03  0.17479841134E+03  0.41800000000E+01 0.  1.
         -5    1    3    3    0  502  0.55016452770E+02 -0.52239981301E+02  0.32821782233E+03  0.33689796232E+03  0.41800000000E+01 0.  1.
        -11    1    1    2    0    0  0.28177226559E+02  0.25566227190E+02  0.37411042418E+02  0.53358918318E+02  0.00000000000E+00 0.  1.
         11    1    1    2    0    0 -0.44573165263E+02 -0.58732142785E+01  0.15226209017E+03  0.15876084470E+03  0.00000000000E+00 0. -1.
</event>
<event>
 7    1  0.2651429E-009  0.1068427E+03  0.7561462E-02  0.1266531E+00
          1   -1    0    0  501    0  0.00000000000E+00  0.00000000000E+00  0.13373549634E+03  0.13373549634E+03  0.00000000000E+00 0. -1.
         -1   -1    0    0    0  501 -0.00000000000E+00 -0.00000000000E+00 -0.19059159385E+03  0.19059159385E+03  0.00000000000E+00 0.  1.
         25    2    1    2    0    0  0.46226783833E+01 -0.44140986344E+02  0.79912699651E+02  0.15492959353E+03  0.12508934229E+03 0.  0.
          5    1    3    3  502    0 -0.10740467871E+02  0.39789299800E+02  0.48804286662E+02  0.64014661018E+02  0.41800000000E+01 0.  1.
         -5    1    3    3    0  502  0.15363146255E+02 -0.83930286144E+02  0.31108412988E+02  0.90914932512E+02  0.41800000000E+01 0.  1.
        -11    1    1    2    0    0  0.18279218523E+02 -0.14851123405E+02 -0.62814454466E+01  0.24375033397E+02  0.00000000000E+00 0. -1.
         11    1    1    2    0    0 -0.22901896906E+02  0.58992109750E+02 -0.13048735172E+03  0.14502246327E+03  0.00000000000E+00 0.  1.
</event>
<event>
 7    1  0.2651429E-009  0.1455731E+03  0.7561462E-02  0.1206021E+00
         -1   -1    0    0    0  501 -0.00000000000E+00  0.00000000000E+00  0.21160233679E+03  0.21160233679E+03  0.00000000000E+00 0.  1.
          1   -1    0    0  501    0  0.00000000000E+00 -0.00000000000E+00 -0.15363164093E+03  0.15363164093E+03  0.00000000000E+00 0. -1.
         25    2    1    2    0    0  0.87919086718E+02 -0.46198128834E+02  0.13418434868E+03  0.20860661896E+03  0.12508896484E+03 0.  0.
          5    1    3    3  502    0  0.96800816442E+02 -0.77265617082E+02  0.87610904678E+02  0.15176796983E+03  0.41800000000E+01 0.  1.
         -5    1    3    3    0  502 -0.88817297243E+01  0.31067488248E+02  0.46573444002E+02  0.56838649132E+02  0.41800000000E+01 0.  1.
        -11    1    1    2    0    0 -0.16524262017E+02 -0.27465773062E+02 -0.68045344957E+01  0.32767691631E+02  0.00000000000E+00 0.  1.
         11    1    1    2    0    0 -0.71394824701E+02  0.73663901896E+02 -0.69409118323E+02  0.12385966714E+03  0.00000000000E+00 0. -1.
</event>
<event>
 7    1  0.2901411E-009  0.1065228E+03  0.7561462E-02  0.1267148E+00
         -1   -1    0    0    0  501 -0.00000000000E+00  0.00000000000E+00  0.52657825148E+02  0.52657825148E+02  0.00000000000E+00 0.  1.
          1   -1    0    0  501    0  0.00000000000E+00 -0.00000000000E+00 -0.31045017018E+03  0.31045017018E+03  0.00000000000E+00 0. -1.
         25    2    1    2    0    0  0.50874275153E+02 -0.31689208601E+01 -0.20671035886E+03  0.24693158476E+03  0.12509117138E+03 0.  0.
          5    1    3    3  502    0 -0.10091307073E+02  0.46073267240E+02 -0.12485652752E+03  0.13353353623E+03  0.41800000000E+01 0.  1.
         -5    1    3    3    0  502  0.60965582227E+02 -0.49242188100E+02 -0.81853831339E+02  0.11339804853E+03  0.41800000000E+01 0.  1.
        -11    1    1    2    0    0 -0.30681554753E+02  0.36846513698E+02  0.44604720550E+01  0.48155157405E+02  0.00000000000E+00 0.  1.
         11    1    1    2    0    0 -0.20192720401E+02 -0.33677592838E+02 -0.55542458230E+02  0.68021253169E+02  0.00000000000E+00 0. -1.
</event>
<event>
 7    1  0.2651429E-009  0.2210347E+03  0.7561462E-02  0.1133114E+00
         -2   -1    0    0    0  501 -0.00000000000E+00  0.00000000000E+00  0.83154157782E+02  0.83154157782E+02  0.00000000000E+00 0.  1.
          2   -1    0    0  501    0  0.00000000000E+00 -0.00000000000E+00 -0.71587955750E+03  0.71587955750E+03  0.00000000000E+00 0. -1.
         25    2    1    2    0    0 -0.20278758648E+03  0.70278174838E+02 -0.26366233780E+03  0.36225230928E+03  0.12508828927E+03 0.  0.
          5    1    3    3  502    0 -0.15966378464E+03  0.74322104638E+02 -0.26558095521E+03  0.31869580407E+03  0.41800000000E+01 0. -1.
         -5    1    3    3    0  502 -0.43123801839E+02 -0.40439297995E+01  0.19186174033E+01  0.43556505209E+02  0.41800000000E+01 0. -1.
        -11    1    1    2    0    0  0.45604892668E+02 -0.43345403766E+02 -0.17278863408E+03  0.18388730878E+03  0.00000000000E+00 0. -1.
         11    1    1    2    0    0  0.15718269381E+03 -0.26932771073E+02 -0.19627442784E+03  0.25289409723E+03  0.00000000000E+00 0.  1.
</event>
<event>
 7    1  0.2651429E-009  0.7476349E+02  0.7561462E-02  0.1344605E+00
         -1   -1    0    0    0  501 -0.00000000000E+00  0.00000000000E+00  0.63058075401E+03  0.63058075401E+03  0.00000000000E+00 0.  1.
          1   -1    0    0  501    0  0.00000000000E+00 -0.00000000000E+00 -0.20513543143E+02  0.20513543143E+02  0.00000000000E+00 0. -1.
         25    2    1    2    0    0  0.25195802958E+02  0.12740569344E+02  0.38820736155E+03  0.40884676110E+03  0.12511421947E+03 0.  0.
          5    1    3    3  502    0  0.31614711084E+02  0.23269296598E+02  0.27986753905E+02  0.48390917694E+02  0.41800000000E+01 0.  1.
         -5    1    3    3    0  502 -0.64189081260E+01 -0.10528727255E+02  0.36022060764E+03  0.36045584341E+03  0.41800000000E+01 0.  1.
        -11    1    1    2    0    0 -0.12400785513E+02 -0.53184031053E+02  0.13329397234E+03  0.14404722734E+03  0.00000000000E+00 0.  1.
         11    1    1    2    0    0 -0.12795017445E+02  0.40443461709E+02  0.88565876974E+02  0.98200308710E+02  0.00000000000E+00 0. -1.
</event>
<event>
 7    1  0.2651429E-009  0.9533586E+02  0.7561462E-02  0.1290421E+00
         -2   -1    0    0    0  501 -0.00000000000E+00  0.00000000000E+00  0.13038100268E+03  0.13038100268E+03  0.00000000000E+00 0.  1.
          2   -1    0    0  501    0  0.00000000000E+00 -0.00000000000E+00 -0.10287002911E+03  0.10287002911E+03  0.00000000000E+00 0. -1.
         25    2    1    2    0    0  0.36319048438E+02 -0.57803072828E+01  0.36997387385E+02  0.13553342190E+03  0.12509203230E+03 0.  0.
          5    1    3    3  502    0 -0.12732444722E+02  0.51382899575E+02  0.41837742452E+01  0.53266254649E+02  0.41800000000E+01 0. -1.
         -5    1    3    3    0  502  0.49051493161E+02 -0.57163206858E+02  0.32813613139E+02  0.82267167247E+02  0.41800000000E+01 0. -1.
        -11    1    1    2    0    0 -0.47495294700E+02 -0.34708452060E+01  0.29568558483E+02  0.56054878787E+02  0.00000000000E+00 0.  1.
         11    1    1    2    0    0  0.11176246261E+02  0.92511524888E+01 -0.39054972297E+02  0.41662731115E+02  0.00000000000E+00 0. -1.
</event>
<event>
 7    1  0.2651429E-009  0.1308590E+03  0.7561462E-02  0.1226187E+00
         -1   -1    0    0    0  501 -0.00000000000E+00  0.00000000000E+00  0.27960909627E+02  0.27960909627E+02  0.00000000000E+00 0.  1.
          1   -1    0    0  501    0  0.00000000000E+00 -0.00000000000E+00 -0.99072667203E+03  0.99072667203E+03  0.00000000000E+00 0. -1.
         25    2    1    2    0    0  0.58633171045E+01  0.85878711113E+02 -0.79867285939E+03  0.81297847696E+03  0.12508451606E+03 0.  0.
          5    1    3    3  502    0  0.60451794880E+02  0.45152149101E+02 -0.28725792554E+03  0.29703152065E+03  0.41800000000E+01 0. -1.
         -5    1    3    3    0  502 -0.54588477775E+02  0.40726562012E+02 -0.51141493385E+03  0.51594695631E+03  0.41800000000E+01 0. -1.
        -11    1    1    2    0    0  0.30612391352E+02 -0.75809825149E+01 -0.18904273024E+02  0.36769026894E+02  0.00000000000E+00 0.  1.
         11    1    1    2    0    0 -0.36475708457E+02 -0.78297728598E+02 -0.14518862999E+03  0.16894007781E+03  0.00000000000E+00 0. -1.
</event>
<event>
 7    1  0.2651429E-009  0.1107974E+03  0.7561462E-02  0.1259100E+00
          1   -1    0    0  501    0  0.00000000000E+00  0.00000000000E+00  0.16348270035E+03  0.16348270035E+03  0.00000000000E+00 0. -1.
         -1   -1    0    0    0  501 -0.00000000000E+00 -0.00000000000E+00 -0.13285599776E+03  0.13285599776E+03  0.00000000000E+00 0.  1.
         25    2    1    2    0    0 -0.64547466888E+02 -0.50406414440E+01 -0.60755172127E+02  0.15339656191E+03  0.12509009041E+03 0.  0.
          5    1    3    3  502    0 -0.85008777562E+02 -0.20168634054E+02 -0.79717576360E-01  0.87468536155E+02  0.41800000000E+01 0.  1.
         -5    1    3    3    0  502  0.20461310675E+02  0.15127992610E+02 -0.60675454550E+02  0.65928025754E+02  0.41800000000E+01 0.  1.
        -11    1    1    2    0    0  0.82346835660E+02  0.20391735517E+02  0.80833912226E+02  0.11717911754E+03  0.00000000000E+00 0. -1.
         11    1    1    2    0    0 -0.17799368773E+02 -0.15351094073E+02  0.10547962499E+02  0.25763018667E+02  0.00000000000E+00 0.  1.
</event>
<event>
 7    1  0.2651429E-009  0.1199635E+03  0.7561462E-02  0.1243157E+00
          1   -1    0    0  501    0  0.00000000000E+00  0.00000000000E+00  0.13508666810E+03  0.13508666810E+03  0.00000000000E+00 0. -1.
         -1   -1    0    0    0  501 -0.00000000000E+00 -0.00000000000E+00 -0.20862758050E+03  0.20862758050E+03  0.00000000000E+00 0.  1.
         25    2    1    2    0    0 -0.23206116312E+02 -0.46018301746E+02  0.80398624218E+02  0.15737625389E+03  0.12508852298E+03 0.  0.
          5    1    3    3  502    0 -0.21534198333E+02  0.41872119242E+02  0.27015258073E+02  0.54445317856E+02  0.41800000000E+01 0. -1.
         -5    1    3    3    0  502 -0.16719179795E+01 -0.87890420988E+02  0.53383366144E+02  0.10293093603E+03  0.41800000000E+01 0. -1.
        -11    1    1    2    0    0  0.15133399561E+02  0.73998308048E+02 -0.11765966506E+03  0.13981618704E+03  0.00000000000E+00 0.  1.
         11    1    1    2    0    0  0.80727167506E+01 -0.27980006302E+02 -0.36279871568E+02  0.46521807675E+02  0.00000000000E+00 0. -1.
</event>
<event>
 7    1  0.2651429E-009  0.1398183E+03  0.7561462E-02  0.1213574E+00
         -1   -1    0    0    0  501 -0.00000000000E+00  0.00000000000E+00  0.25787567993E+02  0.25787567993E+02  0.00000000000E+00 0.  1.
          1   -1    0    0  501    0  0.00000000000E+00 -0.00000000000E+00 -0.86529681731E+03  0.86529681731E+03  0.00000000000E+00 0. -1.
         25    2    1    2    0    0  0.10819950283E+02  0.10618395909E+03 -0.40201138323E+03  0.43434604271E+03  0.12510486833E+03 0.  0.
          5    1    3    3  502    0 -0.18065377743E+02 -0.17198072791E+02 -0.15130015295E+03  0.15339928378E+03  0.41800000000E+01 0.  1.
         -5    1    3    3    0  502  0.28885328025E+02  0.12338203188E+03 -0.25071123027E+03  0.28094675892E+03  0.41800000000E+01 0.  1.
        -11    1    1    2    0    0 -0.40096086513E+02 -0.73156102354E+02 -0.33323657409E+03  0.34352019704E+03  0.00000000000E+00 0. -1.
         11    1    1    2    0    0  0.29276136230E+02 -0.33027856733E+02 -0.10426129200E+03  0.11321814555E+03  0.00000000000E+00 0.  1.
</event>
<event>
 7    1  0.2651429E-009  0.1038470E+03  0.7561462E-02  0.1272408E+00
         -2   -1    0    0    0  501 -0.00000000000E+00  0.00000000000E+00  0.14025976493E+03  0.14025976493E+03  0.00000000000E+00 0.  1.
          2   -1    0    0  501    0  0.00000000000E+00 -0.00000000000E+00 -0.15241960143E+03  0.15241960143E+03  0.00000000000E+00 0. -1.
         25    2    1    2    0    0 -0.10656688854E+02 -0.69376376337E+02 -0.76349509334E+02  0.16249011205E+03  0.12508853796E+03 0.  0.
          5    1    3    3  502    0  0.38112380237E+02  0.67758201188E+00  0.11396073511E+02  0.40004443955E+02  0.41800000000E+01 0. -1.
         -5    1    3    3    0  502 -0.48769069090E+02 -0.70053958349E+02 -0.87745582845E+02  0.12248566810E+03  0.41800000000E+01 0. -1.
        -11    1    1    2    0    0  0.13629855924E+02 -0.79453901987E+00  0.58110434434E+02  0.59692770541E+02  0.00000000000E+00 0.  1.
         11    1    1    2    0    0 -0.29731670701E+01  0.70170915357E+02  0.60792384034E+01  0.70496483771E+02  0.00000000000E+00 0. -1.
</event>
<event>
 7    1  0.2651429E-009  0.2039788E+03  0.7561462E-02  0.1146425E+00
          2   -1    0    0  501    0  0.00000000000E+00  0.00000000000E+00  0.20794921126E+04  0.20794921126E+04  0.00000000000E+00 0. -1.
         -2   -1    0    0    0  501 -0.00000000000E+00 -0.00000000000E+00 -0.23160843105E+02  0.23160843105E+02  0.00000000000E+00 0.  1.
         25    2    1    2    0    0  0.13396520179E+03  0.11980193953E+03  0.13658387009E+04  0.13832793865E+04  0.12508926487E+03 0.  0.
          5    1    3    3  502    0  0.73590535061E+02  0.12866011872E+03  0.75768262776E+03  0.77205532821E+03  0.41800000000E+01 0.  1.
         -5    1    3    3    0  502  0.60374666728E+02 -0.88581791908E+01  0.60815607316E+03  0.61122405829E+03  0.41800000000E+01 0.  1.
        -11    1    1    2    0    0 -0.48430830327E+02 -0.99415894096E+02  0.31927053085E+03  0.33787976737E+03  0.00000000000E+00 0.  1.
         11    1    1    2    0    0 -0.85534371462E+02 -0.20386045431E+02  0.37122203775E+03  0.38149380186E+03  0.00000000000E+00 0. -1.
</event>
<event>
 7    1  0.2651429E-009  0.1311868E+03  0.7561462E-02  0.1225705E+00
          3   -1    0    0  501    0  0.00000000000E+00  0.00000000000E+00  0.66009781259E+03  0.66009781259E+03  0.00000000000E+00 0. -1.
         -3   -1    0    0    0  501 -0.00000000000E+00 -0.00000000000E+00 -0.40242397497E+02  0.40242397497E+02  0.00000000000E+00 0.  1.
         25    2    1    2    0    0  0.93232794574E+02 -0.31671897050E+01  0.16553954359E+03  0.22749244918E+03  0.12508832427E+03 0.  0.
          5    1    3    3  502    0 -0.22747662168E+02 -0.27923335257E+01  0.79988005937E+02  0.83311504334E+02  0.41800000000E+01 0.  1.
         -5    1    3    3    0  502  0.11598045674E+03 -0.37485617923E+00  0.85551537651E+02  0.14418094485E+03  0.41800000000E+01 0.  1.
        -11    1    1    2    0    0 -0.30924520969E+02  0.40061420292E+02  0.11121014371E+03  0.12218403929E+03  0.00000000000E+00 0.  1.
         11    1    1    2    0    0 -0.62308273605E+02 -0.36894230587E+02  0.34310572780E+03  0.35066372162E+03  0.00000000000E+00 0. -1.
</event>
<event>
 7    1  0.2651429E-009  0.1418715E+03  0.7561462E-02  0.1210833E+00
         -2   -1    0    0    0  501 -0.00000000000E+00  0.00000000000E+00  0.28993975658E+02  0.28993975658E+02  0.00000000000E+00 0.  1.
          2   -1    0    0  501    0  0.00000000000E+00 -0.00000000000E+00 -0.81197073301E+03  0.81197073301E+03  0.00000000000E+00 0. -1.
         25    2    1    2    0    0  0.57379546584E+02 -0.79123925067E+02 -0.54794061507E+03  0.57047321394E+03  0.12509101607E+03 0.  0.
          5    1    3    3  502    0  0.39506071187E+02  0.26056765975E+02 -0.11223889706E+03  0.12187997017E+03  0.41800000000E+01 0.  1.
         -5    1    3    3    0  502  0.17873475397E+02 -0.10518069104E+03 -0.43570171800E+03  0.44859324378E+03  0.41800000000E+01 0.  1.
        -11    1    1    2    0    0 -0.38996913016E+02  0.96553380230E+02 -0.21225647990E+03  0.23642361920E+03  0.00000000000E+00 0. -1.
         11    1    1    2    0    0 -0.18382633568E+02 -0.17429455162E+02 -0.22779662390E+02  0.34067875524E+02  0.00000000000E+00 0.  1.
</event>
<event>
 7    1  0.2651429E-009  0.1106336E+03  0.7561462E-02  0.1259401E+00
          1   -1    0    0  501    0  0.00000000000E+00  0.00000000000E+00  0.32589434156E+03  0.32589434156E+03  0.00000000000E+00 0.  1.
         -1   -1    0    0    0  501 -0.00000000000E+00 -0.00000000000E+00 -0.42903237842E+02  0.42903237842E+02  0.00000000000E+00 0. -1.
         25    2    1    2    0    0 -0.26828936023E+02 -0.28039464415E+02  0.11604744584E+03  0.17499682018E+03  0.12510345325E+03 0.  0.
          5    1    3    3  502    0  0.45095645016E+02 -0.24079068298E+02  0.78193691555E+02  0.93515477481E+02  0.41800000000E+01 0. -1.
         -5    1    3    3    0  502 -0.71924581040E+02 -0.39603961170E+01  0.37853754283E+02  0.81481342701E+02  0.41800000000E+01 0. -1.
        -11    1    1    2    0    0  0.54464544672E+02  0.40133554980E+02  0.10510513877E+03  0.12499671619E+03  0.00000000000E+00 0. -1.
         11    1    1    2    0    0 -0.27635608648E+02 -0.12094090565E+02  0.61838519103E+02  0.68804043027E+02  0.00000000000E+00 0.  1.
</event>
<event>
 7    1  0.2651429E-009  0.2703922E+03  0.7561462E-02  0.1101055E+00
         -1   -1    0    0    0  501 -0.00000000000E+00  0.00000000000E+00  0.19454323162E+03  0.19454323162E+03  0.00000000000E+00 0.  1.
          1   -1    0    0  501    0  0.00000000000E+00 -0.00000000000E+00 -0.42954407294E+03  0.42954407294E+03  0.00000000000E+00 0. -1.
         25    2    1    2    0    0  0.25361633896E+03 -0.26503049026E+02 -0.32193139280E+02  0.28583622563E+03  0.12506914355E+03 0.  0.
          5    1    3    3  502    0  0.17821449631E+03 -0.75917613633E+02 -0.23261865447E+02  0.19514732265E+03  0.41800000000E+01 0.  1.
         -5    1    3    3    0  502  0.75401842648E+02  0.49414564606E+02 -0.89312738323E+01  0.90688902971E+02  0.41800000000E+01 0.  1.
        -11    1    1    2    0    0 -0.13787878021E+03 -0.73557046485E+00 -0.16156555163E+03  0.21240180454E+03  0.00000000000E+00 0.  1.
         11    1    1    2    0    0 -0.11573755875E+03  0.27238619491E+02 -0.41242150406E+02  0.12584927440E+03  0.00000000000E+00 0. -1.
</event>
<event>
 7    1  0.2651429E-009  0.1186388E+03  0.7561462E-02  0.1245360E+00
         -3   -1    0    0    0  501 -0.00000000000E+00  0.00000000000E+00  0.18486665455E+03  0.18486665455E+03  0.00000000000E+00 0.  1.
          3   -1    0    0  501    0  0.00000000000E+00 -0.00000000000E+00 -0.30422532339E+03  0.30422532339E+03  0.00000000000E+00 0. -1.
         25    2    1    2    0    0 -0.64940867836E+02  0.31456998538E+02 -0.26541713826E+03  0.30216081490E+03  0.12509213288E+03 0.  0.
          5    1    3    3  502    0  0.21403166815E+02  0.30645229897E+02 -0.21380688772E+02  0.43264672858E+02  0.41800000000E+01 0. -1.
         -5    1    3    3    0  502 -0.86344034651E+02  0.81176864126E+00 -0.24403644948E+03  0.25889614204E+03  0.41800000000E+01 0. -1.
        -11    1    1    2    0    0  0.40577524381E+02 -0.62029823634E+02  0.72799733540E+02  0.10389434878E+03  0.00000000000E+00 0.  1.
         11    1    1    2    0    0  0.24363343454E+02  0.30572825095E+02  0.73258735881E+02  0.83036814254E+02  0.00000000000E+00 0. -1.
</event>
<event>
 7    1  0.2651429E-009  0.1096121E+03  0.7561462E-02  0.1261290E+00
          2   -1    0    0  501    0  0.00000000000E+00  0.00000000000E+00  0.99506363458E+03  0.99506363458E+03  0.00000000000E+00 0.  1.
         -2   -1    0    0    0  501 -0.00000000000E+00 -0.00000000000E+00 -0.16688824880E+02  0.16688824880E+02  0.00000000000E+00 0. -1.
         25    2    1    2    0    0  0.49691614598E+01 -0.45300955932E+02  0.79776272865E+03  0.80879507442E+03  0.12508889641E+03 0.  0.
          5    1    3    3  502    0 -0.38793996108E+01  0.41351852592E+02  0.36150878536E+03  0.36391084038E+03  0.41800000000E+01 0.  1.
         -5    1    3    3    0  502  0.88485610706E+01 -0.86652808524E+02  0.43625394329E+03  0.44488423404E+03  0.41800000000E+01 0.  1.
        -11    1    1    2    0    0 -0.20427461641E+02  0.63321557253E+02  0.15095297525E+03  0.16496575868E+03  0.00000000000E+00 0.  1.
         11    1    1    2    0    0  0.15458300181E+02 -0.18020601320E+02  0.29659105802E+02  0.37991626359E+02  0.00000000000E+00 0. -1.
</event>
<event>
 6    1  0.2651429E-009  0.8967490E+02  0.7561462E-02  0.1303641E+00
          1   -1    0    0  501    0  0.00000000000E+00  0.00000000000E+00  0.26324032842E+03  0.26324032842E+03  0.00000000000E+00 0. -1.
         -1   -1    0    0    0  501 -0.00000000000E+00 -0.00000000000E+00 -0.54159529865E+02  0.54159529865E+02  0.00000000000E+00 0.  1.
          5    1    1    2  502    0  0.31312922387E+02 -0.38257816945E+02  0.71795237416E+02  0.87270775070E+02  0.41800000000E+01 0.  1.
         -5    1    1    2    0  502 -0.56235973870E+02  0.91442915886E+01 -0.63370431732E+01  0.57478111851E+02  0.41800000000E+01 0.  1.
        -11    1    1    2    0    0 -0.14243819568E+02 -0.98834624407E+01 -0.14588020609E+01  0.17398199021E+02  0.00000000000E+00 0.  1.
         11    1    1    2    0    0  0.39166871051E+02  0.38996987797E+02  0.14508140637E+03  0.15525277235E+03  0.00000000000E+00 0. -1.
</event>
<event>
 7    1  0.2651429E-009  0.2858262E+03  0.7561462E-02  0.1092549E+00
          1   -1    0    0  501    0  0.00000000000E+00  0.00000000000E+00  0.44310451169E+03  0.44310451169E+03  0.00000000000E+00 0. -1.
         -1   -1    0    0    0  501 -0.00000000000E+00 -0.00000000000E+00 -0.19930807828E+03  0.19930807828E+03  0.00000000000E+00 0.  1.
         25    2    1    2    0    0 -0.73554099230E-01 -0.27651566225E+03  0.10355818665E+03  0.32067612672E+03  0.12509181967E+03 0.  0.
          5    1    3    3  502    0 -0.46566349630E+02 -0.17993438104E+03  0.10476970431E+03  0.21339861701E+03  0.41800000000E+01 0. -1.
         -5    1    3    3    0  502  0.46492795531E+02 -0.96581281201E+02 -0.12115176594E+01  0.10727750971E+03  0.41800000000E+01 0. -1.
        -11    1    1    2    0    0 -0.16423036563E+02  0.14428261532E+03  0.11696399367E+03  0.18646116225E+03  0.00000000000E+00 0. -1.
         11    1    1    2    0    0  0.16496590662E+02  0.13223304693E+03  0.23274253082E+02  0.13527530100E+03  0.00000000000E+00 0.  1.
</event>
<event>
 7    1  0.2651429E-009  0.1222126E+03  0.7561462E-02  0.1239491E+00
         -2   -1    0    0    0  501 -0.00000000000E+00  0.00000000000E+00  0.93341755143E+02  0.93341755143E+02  0.00000000000E+00 0.  1.
          2   -1    0    0  501    0  0.00000000000E+00 -0.00000000000E+00 -0.21617572058E+03  0.21617572058E+03  0.00000000000E+00 0. -1.
         25    2    1    2    0    0  0.72830617127E+02  0.35869058285E+02 -0.29775426689E+02  0.15207239930E+03  0.12509416637E+03 0.  0.
          5    1    3    3  502    0  0.92882625543E+02  0.26879848039E+02  0.18800769309E+02  0.98593355176E+02  0.41800000000E+01 0.  1.
         -5    1    3    3    0  502 -0.20052008416E+02  0.89892102456E+01 -0.48576195998E+02  0.53479044120E+02  0.41800000000E+01 0.  1.
        -11    1    1    2    0    0 -0.32855245951E+02  0.32410711335E+02 -0.22116009338E+02  0.51176549950E+02  0.00000000000E+00 0. -1.
         11    1    1    2    0    0 -0.39975371176E+02 -0.68279769620E+02 -0.70942529406E+02  0.10626852647E+03  0.00000000000E+00 0.  1.
</event>
<event>
 7    1  0.2651429E-009  0.1292139E+03  0.7561462E-02  0.1228627E+00
          2   -1    0    0  501    0  0.00000000000E+00  0.00000000000E+00  0.11983533226E+04  0.11983533226E+04  0.00000000000E+00 0. -1.
         -2   -1    0    0    0  501 -0.00000000000E+00 -0.00000000000E+00 -0.36487471568E+02  0.36487471568E+02  0.00000000000E+00 0.  1.
         25    2    1    2    0    0 -0.10448181900E+03 -0.29934264349E+02  0.10240111881E+04  0.10373322278E+04  0.12508687712E+03 0.  0.
          5    1    3    3  502    0 -0.87304900986E+02 -0.45975574259E+02  0.37206042446E+03  0.38494458174E+03  0.41800000000E+01 0. -1.
         -5    1    3    3    0  502 -0.17176918013E+02  0.16041309911E+02  0.65195076363E+03  0.65238764607E+03  0.41800000000E+01 0. -1.
        -11    1    1    2    0    0  0.11810715510E+03  0.22349602356E+02  0.99281890901E+02  0.15590285011E+03  0.00000000000E+00 0.  1.
         11    1    1    2    0    0 -0.13625336104E+02  0.75846619930E+01  0.38572771993E+02  0.41605716203E+02  0.00000000000E+00 0. -1.
</event>
<event>
 7    1  0.2651429E-009  0.1104119E+03  0.7561462E-02  0.1259809E+00
          2   -1    0    0  501    0  0.00000000000E+00  0.00000000000E+00  0.11016146321E+04  0.11016146321E+04  0.00000000000E+00 0. -1.
         -2   -1    0    0    0  501 -0.00000000000E+00 -0.00000000000E+00 -0.19597022293E+02  0.19597022293E+02  0.00000000000E+00 0.  1.
         25    2    1    2    0    0  0.54147629518E+02 -0.20468383504E+02  0.92047036597E+03  0.93073876537E+03  0.12513206713E+03 0.  0.
          5    1    3    3  502    0  0.46796966122E+01 -0.63776863768E+02  0.60991662179E+03  0.61327411966E+03  0.41800000000E+01 0.  1.
         -5    1    3    3    0  502  0.49467932906E+02  0.43308480263E+02  0.31055374419E+03  0.31746464571E+03  0.41800000000E+01 0.  1.
        -11    1    1    2    0    0  0.73732045939E+01 -0.17205818942E+02  0.71215160968E+01  0.20027988990E+02  0.00000000000E+00 0.  1.
         11    1    1    2    0    0 -0.61520834112E+02  0.37674202447E+02  0.15442572775E+03  0.17044490004E+03  0.00000000000E+00 0. -1.
</event>
<event>
 7    1  0.2651429E-009  0.1551615E+03  0.7561462E-02  0.1194270E+00
         -1   -1    0    0    0  501 -0.00000000000E+00  0.00000000000E+00  0.33299298190E+02  0.33299298190E+02  0.00000000000E+00 0.  1.
          1   -1    0    0  501    0  0.00000000000E+00 -0.00000000000E+00 -0.90460323799E+03  0.90460323799E+03  0.00000000000E+00 0. -1.
         25    2    1    2    0    0 -0.65936086930E+02 -0.11098688785E+03 -0.57025326029E+03  0.59791457909E+03  0.12508959263E+03 0.  0.
          5    1    3    3  502    0 -0.51273268348E+02 -0.12283637751E+03 -0.31582343189E+03  0.34275302511E+03  0.41800000000E+01 0. -1.
         -5    1    3    3    0  502 -0.14662818582E+02  0.11849489661E+02 -0.25442982839E+03  0.25516155398E+03  0.41800000000E+01 0. -1.
        -11    1    1    2    0    0  0.54357448804E+02  0.88800703059E+01 -0.11217579993E+03  0.12496798782E+03  0.00000000000E+00 0. -1.
         11    1    1    2    0    0  0.11578638127E+02  0.10210681754E+03 -0.18887487959E+03  0.21501996928E+03  0.00000000000E+00 0.  1.
</event>
<event>
 7    1  0.2651429E-009  0.1308522E+03  0.7561462E-02  0.1226197E+00
         -3   -1    0    0    0  501 -0.00000000000E+00  0.00000000000E+00  0.51864593868E+02  0.51864593868E+02  0.00000000000E+00 0.  1.
          3   -1    0    0  501    0  0.00000000000E+00 -0.00000000000E+00 -0.45096273895E+03  0.45096273895E+03  0.00000000000E+00 0. -1.
         25    2    1    2    0    0  0.34454317383E+02  0.96763035725E+02 -0.25025857592E+03  0.29803934395E+03  0.12509160903E+03 0.  0.
          5    1    3    3  502    0 -0.14288679781E+02  0.10764652685E+03 -0.19646381605E+03  0.22451602288E+03  0.41800000000E+01 0.  1.
         -5    1    3    3    0  502  0.48742997164E+02 -0.10883491123E+02 -0.53794759873E+02  0.73523321071E+02  0.41800000000E+01 0.  1.
        -11    1    1    2    0    0 -0.24655980101E+02 -0.77098230389E+02 -0.33882284666E+02  0.87750006827E+02  0.00000000000E+00 0.  1.
         11    1    1    2    0    0 -0.97983372821E+01 -0.19664805336E+02 -0.11495728449E+03  0.11703798204E+03  0.00000000000E+00 0. -1.
</event>
<event>
 7    1  0.2651429E-009  0.1211500E+03  0.7561462E-02  0.1241212E+00
          2   -1    0    0  501    0  0.00000000000E+00  0.00000000000E+00  0.13520935309E+03  0.13520935309E+03  0.00000000000E+00 0.  1.
         -2   -1    0    0    0  501 -0.00000000000E+00 -0.00000000000E+00 -0.13963575960E+03  0.13963575960E+03  0.00000000000E+00 0. -1.
         25    2    1    2    0    0 -0.38566683313E+02  0.38626230178E+02  0.60733300162E+02  0.14938281035E+03  0.12508923040E+03 0.  0.
          5    1    3    3  502    0 -0.29792882995E+02  0.84336211581E+02  0.43776198787E+02  0.99669656572E+02  0.41800000000E+01 0.  1.
         -5    1    3    3    0  502 -0.87738003185E+01 -0.45709981403E+02  0.16957101374E+02  0.49713153781E+02  0.41800000000E+01 0.  1.
        -11    1    1    2    0    0  0.60082353015E+02 -0.53027448119E+02 -0.40848019320E+02  0.89946428946E+02  0.00000000000E+00 0.  1.
         11    1    1    2    0    0 -0.21515669702E+02  0.14401217941E+02 -0.24311687351E+02  0.35515873391E+02  0.00000000000E+00 0. -1.
</event>
<event>
 7    1  0.2651429E-009  0.1290816E+03  0.7561462E-02  0.1228825E+00
         -2   -1    0    0    0  501 -0.00000000000E+00  0.00000000000E+00  0.24868273414E+02  0.24868273414E+02  0.00000000000E+00 0.  1.
          2   -1    0    0  501    0  0.00000000000E+00 -0.00000000000E+00 -0.97827874575E+03  0.97827874575E+03  0.00000000000E+00 0. -1.
         25    2    1    2    0    0  0.10845345619E+03 -0.27906936487E+02 -0.49320329210E+03  0.52099802719E+03  0.12509399560E+03 0.  0.
          5    1    3    3  502    0  0.91697641354E+02 -0.55692750156E+02 -0.20945450964E+03  0.23536950495E+03  0.41800000000E+01 0. -1.
         -5    1    3    3    0  502  0.16755814833E+02  0.27785813669E+02 -0.28374878246E+03  0.28562852225E+03  0.41800000000E+01 0. -1.
        -11    1    1    2    0    0 -0.92385373295E+02  0.83379029384E+01 -0.44022969602E+03  0.44989639149E+03  0.00000000000E+00 0. -1.
         11    1    1    2    0    0 -0.16068082891E+02  0.19569033548E+02 -0.19977484211E+02  0.32252600472E+02  0.00000000000E+00 0.  1.
</event>
<event>
 7    1  0.2651429E-009  0.1116576E+03  0.7561462E-02  0.1257531E+00
         -2   -1    0    0    0  501 -0.00000000000E+00  0.00000000000E+00  0.12752766522E+03  0.12752766522E+03  0.00000000000E+00 0.  1.
          2   -1    0    0  501    0  0.00000000000E+00 -0.00000000000E+00 -0.19978725461E+03  0.19978725461E+03  0.00000000000E+00 0. -1.
         25    2    1    2    0    0 -0.61435499503E+02 -0.50211050496E+02 -0.12781710394E+03  0.19565427078E+03  0.12509161213E+03 0.  0.
          5    1    3    3  502    0 -0.64170244613E+02 -0.82693352692E+02 -0.12437271519E+03  0.16261013362E+03  0.41800000000E+01 0.  1.
         -5    1    3    3    0  502  0.27347451103E+01  0.32482302196E+02 -0.34443887435E+01  0.33044137159E+02  0.41800000000E+01 0.  1.
        -11    1    1    2    0    0  0.24118156131E+01  0.18571788873E+02  0.61634152030E+02  0.64416588647E+02  0.00000000000E+00 0.  1.
         11    1    1    2    0    0  0.59023683890E+02  0.31639261623E+02 -0.60766374914E+01  0.67244060401E+02  0.00000000000E+00 0. -1.
</event>
<event>
 7    1  0.2651429E-009  0.1932283E+03  0.7561462E-02  0.1155581E+00
          1   -1    0    0  501    0  0.00000000000E+00  0.00000000000E+00  0.28017019492E+03  0.28017019492E+03  0.00000000000E+00 0. -1.
         -1   -1    0    0    0  501 -0.00000000000E+00 -0.00000000000E+00 -0.21936084593E+03  0.21936084593E+03  0.00000000000E+00 0.  1.
         25    2    1    2    0    0  0.35208447684E+02  0.18834382028E+03 -0.82428925077E+02  0.24321962868E+03  0.12509288812E+03 0.  0.
          5    1    3    3  502    0  0.26975877981E+02  0.94431143596E+02 -0.10741374542E+03  0.14560262353E+03  0.41800000000E+01 0. -1.
         -5    1    3    3    0  502  0.82325697029E+01  0.93912676685E+02  0.24984820347E+02  0.97617005147E+02  0.41800000000E+01 0. -1.
        -11    1    1    2    0    0  0.29408971510E+01 -0.55570710803E+02  0.94788828905E+02  0.10991667235E+03  0.00000000000E+00 0. -1.
         11    1    1    2    0    0 -0.38149344835E+02 -0.13277310948E+03  0.48449445159E+02  0.14639473982E+03  0.00000000000E+00 0.  1.
</event>
<event>
 7    1  0.2651429E-009  0.1861197E+03  0.7561462E-02  0.1162008E+00
         -2   -1    0    0    0  501 -0.00000000000E+00  0.00000000000E+00  0.16002145539E+03  0.16002145539E+03  0.00000000000E+00 0.  1.
          2   -1    0    0  501    0  0.00000000000E+00 -0.00000000000E+00 -0.24018916046E+03  0.24018916046E+03  0.00000000000E+00 0. -1.
         25    2    1    2    0    0  0.13865599318E+03  0.88294300064E+02 -0.40110002427E+02  0.21042300779E+03  0.12509061533E+03 0.  0.
          5    1    3    3  502    0 -0.21540423217E+02  0.22706315613E+02  0.37585380726E+01  0.31798830317E+02  0.41800000000E+01 0. -1.
         -5    1    3    3    0  502  0.16019641640E+03  0.65587984450E+02 -0.43868540500E+02  0.17862417747E+03  0.41800000000E+01 0. -1.
        -11    1    1    2    0    0 -0.37628158396E+02 -0.41969076340E+02  0.24271303703E+02  0.61370822518E+02  0.00000000000E+00 0.  1.
         11    1    1    2    0    0 -0.10102783478E+03 -0.46325223724E+02 -0.64329006342E+02  0.12841678555E+03  0.00000000000E+00 0. -1.
</event>
<event>
 7    1  0.2651429E-009  0.1247121E+03  0.7561462E-02  0.1235520E+00
          1   -1    0    0  501    0  0.00000000000E+00  0.00000000000E+00  0.45855062614E+03  0.45855062614E+03  0.00000000000E+00 0. -1.
         -1   -1    0    0    0  501 -0.00000000000E+00 -0.00000000000E+00 -0.40591637860E+02  0.40591637860E+02  0.00000000000E+00 0.  1.
         25    2    1    2    0    0 -0.57682588311E+02 -0.48043223123E+02  0.29588667172E+03  0.32989389816E+03  0.12508248982E+03 0.  0.
          5    1    3    3  502    0  0.10907021674E+02 -0.64020540015E+02  0.82080028814E+02  0.10474825152E+03  0.41800000000E+01 0.  1.
         -5    1    3    3    0  502 -0.68589609985E+02  0.15977316891E+02  0.21380664290E+03  0.22514564664E+03  0.41800000000E+01 0.  1.
        -11    1    1    2    0    0  0.55025507755E+02 -0.98011286222E+01  0.80350883528E+02  0.97878154405E+02  0.00000000000E+00 0.  1.
         11    1    1    2    0    0  0.26570805564E+01  0.57844351746E+02  0.41721433033E+02  0.71370211435E+02  0.00000000000E+00 0. -1.
</event>
<event>
 7    1  0.2651429E-009  0.3530642E+03  0.7561462E-02  0.1061364E+00
          1   -1    0    0  501    0  0.00000000000E+00  0.00000000000E+00  0.90125763778E+03  0.90125763778E+03  0.00000000000E+00 0. -1.
         -1   -1    0    0    0  501 -0.00000000000E+00 -0.00000000000E+00 -0.15299497101E+03  0.15299497101E+03  0.00000000000E+00 0.  1.
         25    2    1    2    0    0 -0.34762365622E+03  0.48255470330E+02  0.45451332542E+03  0.58770842480E+03  0.12509209732E+03 0.  0.
          5    1    3    3  502    0 -0.31477807966E+03  0.53666867977E+02  0.45283844568E+03  0.55411686713E+03  0.41800000000E+01 0.  1.
         -5    1    3    3    0  502 -0.32845576568E+02 -0.54113976475E+01  0.16748797414E+01  0.33591557671E+02  0.41800000000E+01 0.  1.
        -11    1    1    2    0    0  0.23259940836E+03 -0.13157601763E+02  0.14168246219E+03  0.27267109738E+03  0.00000000000E+00 0.  1.
         11    1    1    2    0    0  0.11502424786E+03 -0.35097868567E+02  0.15206687917E+03  0.19387308661E+03  0.00000000000E+00 0. -1.
</event>
<event>
 7    1  0.2651429E-009  0.1201346E+03  0.7561462E-02  0.1242875E+00
          2   -1    0    0  501    0  0.00000000000E+00  0.00000000000E+00  0.17557237869E+03  0.17557237869E+03  0.00000000000E+00 0. -1.
         -2   -1    0    0    0  501 -0.00000000000E+00 -0.00000000000E+00 -0.14848163950E+03  0.14848163950E+03  0.00000000000E+00 0.  1.
         25    2    1    2    0    0 -0.89895975370E+02 -0.28520259370E+02 -0.58913011454E+02  0.16737054516E+03  0.12508982727E+03 0.  0.
          5    1    3    3  502    0 -0.45175490750E+01  0.13922134861E+02  0.32079149847E+02  0.35507440680E+02  0.41800000000E+01 0.  1.
         -5    1    3    3    0  502 -0.85378426295E+02 -0.42442394231E+02 -0.90992161301E+02  0.13186310448E+03  0.41800000000E+01 0.  1.
        -11    1    1    2    0    0 -0.18030960873E+02  0.81059837325E+01  0.55610020208E+01  0.20536486208E+02  0.00000000000E+00 0.  1.
         11    1    1    2    0    0  0.10792693624E+03  0.20414275638E+02  0.80442748615E+02  0.13614698682E+03  0.00000000000E+00 0. -1.
</event>
<event>
 7    1  0.2651429E-009  0.1271670E+03  0.7561462E-02  0.1231721E+00
         -1   -1    0    0    0  501 -0.00000000000E+00  0.00000000000E+00  0.54611001731E+02  0.54611001731E+02  0.00000000000E+00 0.  1.
          1   -1    0    0  501    0  0.00000000000E+00 -0.00000000000E+00 -0.43511007898E+03  0.43511007898E+03  0.00000000000E+00 0. -1.
         25    2    1    2    0    0 -0.46113276162E+02  0.68066194630E+02 -0.91477243155E+02  0.17543024173E+03  0.12509293589E+03 0.  0.
          5    1    3    3  502    0 -0.79603280933E+02  0.80277499157E+02 -0.76333988867E+02  0.13647530715E+03  0.41800000000E+01 0.  1.
         -5    1    3    3    0  502  0.33490004771E+02 -0.12211304526E+02 -0.15143254288E+02  0.38954934581E+02  0.41800000000E+01 0.  1.
        -11    1    1    2    0    0 -0.15817013909E+02 -0.26043428506E+02 -0.17677057765E+03  0.17937746576E+03  0.00000000000E+00 0. -1.
         11    1    1    2    0    0  0.61930290072E+02 -0.42022766125E+02 -0.11225125644E+03  0.13491337322E+03  0.00000000000E+00 0.  1.
</event>
<event>
 7    1  0.2651429E-009  0.9892632E+02  0.7561462E-02  0.1282570E+00
          2   -1    0    0  501    0  0.00000000000E+00  0.00000000000E+00  0.48287470685E+03  0.48287470685E+03  0.00000000000E+00 0. -1.
         -2   -1    0    0    0  501 -0.00000000000E+00 -0.00000000000E+00 -0.42958859240E+02  0.42958859240E+02  0.00000000000E+00 0.  1.
         25    2    1    2    0    0  0.39106139656E+02  0.64388558947E+02  0.35639718758E+03  0.38515055129E+03  0.12508723021E+03 0.  0.
          5    1    3    3  502    0  0.20464457439E+02 -0.70241307391E+01  0.27226404236E+03  0.27315437685E+03  0.41800000000E+01 0. -1.
         -5    1    3    3    0  502  0.18641682217E+02  0.71412689686E+02  0.84133145220E+02  0.11199617444E+03  0.41800000000E+01 0. -1.
        -11    1    1    2    0    0  0.18860705028E+02 -0.26921788139E+02  0.70646647671E+00  0.32878685582E+02  0.00000000000E+00 0.  1.
         11    1    1    2    0    0 -0.57966844684E+02 -0.37466770808E+02  0.82812193559E+02  0.10780432922E+03  0.00000000000E+00 0. -1.
</event>
<event>
 7    1  0.2651429E-009  0.1457772E+03  0.7561462E-02  0.1205760E+00
         -2   -1    0    0    0  501 -0.00000000000E+00  0.00000000000E+00  0.10258811519E+03  0.10258811519E+03  0.00000000000E+00 0.  1.
          2   -1    0    0  501    0  0.00000000000E+00 -0.00000000000E+00 -0.80103747133E+03  0.80103747133E+03  0.00000000000E+00 0. -1.
         25    2    1    2    0    0  0.16042260531E+02  0.11833882024E+03 -0.73040230917E+03  0.75059720711E+03  0.12508878276E+03 0.  0.
          5    1    3    3  502    0 -0.28364921732E+02  0.79763805084E+02 -0.61684409540E+03  0.62264030050E+03  0.41800000000E+01 0.  1.
         -5    1    3    3    0  502  0.44407182263E+02  0.38575015160E+02 -0.11355821378E+03  0.12795690660E+03  0.41800000000E+01 0.  1.
        -11    1    1    2    0    0  0.35694448520E+02 -0.36886043233E+02  0.22590918948E+02  0.56080508730E+02  0.00000000000E+00 0.  1.
         11    1    1    2    0    0 -0.51736709051E+02 -0.81452777011E+02  0.93620340850E+01  0.96947870675E+02  0.00000000000E+00 0. -1.
</event>
<event>
 7    1  0.2651429E-009  0.1581748E+03  0.7561462E-02  0.1190773E+00
          1   -1    0    0  501    0  0.00000000000E+00  0.00000000000E+00  0.57011253222E+02  0.57011253222E+02  0.00000000000E+00 0. -1.
         -1   -1    0    0    0  501 -0.00000000000E+00 -0.00000000000E+00 -0.46483219520E+03  0.46483219520E+03  0.00000000000E+00 0.  1.
         25    2    1    2    0    0  0.80303226238E+02  0.89722025891E+02 -0.20175852093E+03  0.26618094362E+03  0.12508854425E+03 0.  0.
          5    1    3    3  502    0  0.18468832450E+02  0.10182778721E+03 -0.15957284125E+03  0.19023921805E+03  0.41800000000E+01 0. -1.
         -5    1    3    3    0  502  0.61834393788E+02 -0.12105761321E+02 -0.42185679688E+02  0.75941725574E+02  0.41800000000E+01 0. -1.
        -11    1    1    2    0    0  0.11825110667E+02 -0.46290208435E+02 -0.48766417738E+02  0.68269906535E+02  0.00000000000E+00 0. -1.
         11    1    1    2    0    0 -0.92128336906E+02 -0.43431817455E+02 -0.15729600331E+03  0.18739259827E+03  0.00000000000E+00 0.  1.
</event>
<event>
 7    1  0.2651429E-009  0.7912296E+02  0.7561462E-02  0.1331559E+00
          1   -1    0    0  501    0  0.00000000000E+00  0.00000000000E+00  0.31555329744E+03  0.31555329744E+03  0.00000000000E+00 0. -1.
         -1   -1    0    0    0  501 -0.00000000000E+00 -0.00000000000E+00 -0.40919290591E+02  0.40919290591E+02  0.00000000000E+00 0.  1.
         25    2    1    2    0    0  0.91528665629E+01  0.10768224732E+02  0.20348038643E+03  0.23927222729E+03  0.12508877430E+03 0.  0.
          5    1    3    3  502    0  0.52349897835E+02 -0.30865168797E+00  0.30811485957E+02  0.60888645379E+02  0.41800000000E+01 0. -1.
         -5    1    3    3    0  502 -0.43197031272E+02  0.11076876420E+02  0.17266890048E+03  0.17838358191E+03  0.41800000000E+01 0. -1.
        -11    1    1    2    0    0  0.25412017844E+02 -0.48401887723E+01 -0.10819702756E+02  0.28040400246E+02  0.00000000000E+00 0.  1.
         11    1    1    2    0    0 -0.34564884407E+02 -0.59280359599E+01  0.81973323175E+02  0.89159960502E+02  0.00000000000E+00 0. -1.
</event>
<event>
 7    1  0.2651429E-009  0.1023857E+03  0.7561462E-02  0.1275358E+00
         -2   -1    0    0    0  501 -0.00000000000E+00  0.00000000000E+00  0.23922047166E+02  0.23922047166E+02  0.00000000000E+00 0.  1.
          2   -1    0    0  501    0  0.00000000000E+00 -0.00000000000E+00 -0.77603532455E+03  0.77603532455E+03  0.00000000000E+00 0. -1.
         25    2    1    2    0    0  0.71192270408E+02 -0.32282756644E+01 -0.55785968709E+03  0.57613611616E+03  0.12508650100E+03 0.  0.
          5    1    3    3  502    0 -0.14632370927E+02  0.14652567305E+02 -0.14238854292E+02  0.25475898004E+02  0.41800000000E+01 0. -1.
         -5    1    3    3    0  502  0.85824641334E+02 -0.17880842969E+02 -0.54362083280E+03  0.55066021816E+03  0.41800000000E+01 0. -1.
        -11    1    1    2    0    0 -0.23393133474E+02 -0.29721653104E+02 -0.26171164741E+02  0.45995056483E+02  0.00000000000E+00 0.  1.
         11    1    1    2    0    0 -0.47799136933E+02  0.32949928769E+02 -0.16808242554E+03  0.17782619907E+03  0.00000000000E+00 0. -1.
</event>
<event>
 7    1  0.2651429E-009  0.8220058E+02  0.7561462E-02  0.1322920E+00
          1   -1    0    0  501    0  0.00000000000E+00  0.00000000000E+00  0.64843112044E+02  0.64843112044E+02  0.00000000000E+00 0. -1.
         -1   -1    0    0    0  501 -0.00000000000E+00 -0.00000000000E+00 -0.21772089184E+03  0.21772089184E+03  0.00000000000E+00 0.  1.
         25    2    1    2    0    0  0.21054731389E+01 -0.21892931149E+02 -0.14191057269E+03  0.19044449060E+03  0.12508700936E+03 0.  0.
          5    1    3    3  502    0  0.39490186761E+02 -0.86639517701E+01 -0.14486528933E+03  0.15045917507E+03  0.41800000000E+01 0.  1.
         -5    1    3    3    0  502 -0.37384713622E+02 -0.13228979379E+02  0.29547166395E+01  0.39985315535E+02  0.41800000000E+01 0.  1.
        -11    1    1    2    0    0 -0.12979769288E+02 -0.29035048716E+02 -0.22276348974E+02  0.38829681795E+02  0.00000000000E+00 0. -1.
         11    1    1    2    0    0  0.10874296149E+02  0.50927979864E+02  0.11309141867E+02  0.53289831484E+02  0.00000000000E+00 0.  1.
</event>
<event>
 7    1  0.2651429E-009  0.1114846E+03  0.7561462E-02  0.1257845E+00
         -2   -1    0    0    0  501 -0.00000000000E+00  0.00000000000E+00  0.14795144057E+03  0.14795144057E+03  0.00000000000E+00 0.  1.
          2   -1    0    0  501    0  0.00000000000E+00 -0.00000000000E+00 -0.12074449038E+03  0.12074449038E+03  0.00000000000E+00 0. -1.
         25    2    1    2    0    0  0.34908566274E+02  0.44494050499E+02 -0.40557352498E+02  0.14314826072E+03  0.12509275429E+03 0.  0.
          5    1    3    3  502    0 -0.59517771217E+01  0.79120057719E+02 -0.41035161304E+02  0.89424627747E+02  0.41800000000E+01 0. -1.
         -5    1    3    3    0  502  0.40860343395E+02 -0.34626007220E+02  0.47780880571E+00  0.53723632971E+02  0.41800000000E+01 0. -1.
        -11    1    1    2    0    0  0.11375558537E+02 -0.41922636747E+02  0.66183233955E+02  0.79165214966E+02  0.00000000000E+00 0.  1.
         11    1    1    2    0    0 -0.46284124811E+02 -0.25714137524E+01  0.15810687336E+01  0.46382455266E+02  0.00000000000E+00 0. -1.
</event>
<event>
 7    1  0.2651429E-009  0.1051464E+03  0.7561462E-02  0.1269831E+00
          1   -1    0    0  501    0  0.00000000000E+00  0.00000000000E+00  0.65637742600E+02  0.65637742600E+02  0.00000000000E+00 0. -1.
         -1   -1    0    0    0  501 -0.00000000000E+00 -0.00000000000E+00 -0.23787477822E+03  0.23787477822E+03  0.00000000000E+00 0.  1.
         25    2    1    2    0    0  0.17623469702E+02  0.23276768933E+01 -0.30663452775E+02  0.13001098579E+03  0.12508638745E+03 0.  0.
          5    1    3    3  502    0  0.58253093130E+02 -0.32939769904E+02 -0.35431649759E+02  0.75837494059E+02  0.41800000000E+01 0. -1.
         -5    1    3    3    0  502 -0.40629623428E+02  0.35267446797E+02  0.47681969844E+01  0.54173491728E+02  0.41800000000E+01 0. -1.
        -11    1    1    2    0    0 -0.13439573190E+02  0.42336331220E+02 -0.30976305453E+02  0.54152733709E+02  0.00000000000E+00 0.  1.
         11    1    1    2    0    0 -0.41838965121E+01 -0.44664008113E+02 -0.11059727739E+03  0.11934880132E+03  0.00000000000E+00 0. -1.
</event>
<event>
 7    1  0.2651429E-009  0.1145536E+03  0.7561462E-02  0.1252362E+00
         -1   -1    0    0    0  501 -0.00000000000E+00  0.00000000000E+00  0.41852567359E+03  0.41852567359E+03  0.00000000000E+00 0.  1.
          1   -1    0    0  501    0  0.00000000000E+00 -0.00000000000E+00 -0.53903970072E+02  0.53903970072E+02  0.00000000000E+00 0. -1.
         25    2    1    2    0    0 -0.35461861430E+01  0.95193766279E+02  0.14013235672E+03  0.21061524990E+03  0.12508907832E+03 0.  0.
          5    1    3    3  502    0 -0.84288646643E+01  0.66485047416E+02  0.16106994064E+03  0.17450588949E+03  0.41800000000E+01 0. -1.
         -5    1    3    3    0  502  0.48826785214E+01  0.28708718863E+02 -0.20937583923E+02  0.36109360405E+02  0.41800000000E+01 0. -1.
        -11    1    1    2    0    0  0.31145564188E+02 -0.99810904185E+02  0.15568030805E+03  0.18753298664E+03  0.00000000000E+00 0. -1.
         11    1    1    2    0    0 -0.27599378045E+02  0.46171379058E+01  0.68809038747E+02  0.74281407123E+02  0.00000000000E+00 0.  1.
</event>
<event>
 7    1  0.2651429E-009  0.1487032E+03  0.7561462E-02  0.1202076E+00
          1   -1    0    0  501    0  0.00000000000E+00  0.00000000000E+00  0.14532757741E+03  0.14532757741E+03  0.00000000000E+00 0. -1.
         -1   -1    0    0    0  501 -0.00000000000E+00 -0.00000000000E+00 -0.16326477467E+03  0.16326477467E+03  0.00000000000E+00 0.  1.
         25    2    1    2    0    0 -0.25648413087E+02 -0.10490075656E+03 -0.18913189990E+02  0.16633506707E+03  0.12509051107E+03 0.  0.
          5    1    3    3  502    0  0.43566130748E+02 -0.80716402041E+02 -0.10766003920E+02  0.92447415038E+02  0.41800000000E+01 0. -1.
         -5    1    3    3    0  502 -0.69214543835E+02 -0.24184354523E+02 -0.81471860701E+01  0.73887652032E+02  0.41800000000E+01 0. -1.
        -11    1    1    2    0    0 -0.23986329830E+02  0.62240199368E+02 -0.25834015853E+02  0.71530292962E+02  0.00000000000E+00 0.  1.
         11    1    1    2    0    0  0.49634742917E+02  0.42660557195E+02  0.26810008577E+02  0.70726992051E+02  0.00000000000E+00 0. -1.
</event>
<event>
 7    1  0.2651429E-009  0.1423973E+03  0.7561462E-02  0.1210139E+00
          1   -1    0    0  501    0  0.00000000000E+00  0.00000000000E+00  0.22471190585E+03  0.22471190585E+03  0.00000000000E+00 0. -1.
         -1   -1    0    0    0  501 -0.00000000000E+00 -0.00000000000E+00 -0.12071631850E+03  0.12071631850E+03  0.00000000000E+00 0.  1.
         25    2    1    2    0    0  0.43600664386E+02  0.99408355438E+02  0.11260169703E+03  0.20027444827E+03  0.12509066068E+03 0.  0.
          5    1    3    3  502    0  0.73760224718E+01  0.12162756875E+03  0.73427843302E+02  0.14232635652E+03  0.41800000000E+01 0.  1.
         -5    1    3    3    0  502  0.36224641915E+02 -0.22219213312E+02  0.39173853724E+02  0.57948091751E+02  0.41800000000E+01 0.  1.
        -11    1    1    2    0    0 -0.16938837250E+02  0.31797836067E+00  0.30399349439E+02  0.34801519563E+02  0.00000000000E+00 0. -1.
         11    1    1    2    0    0 -0.26661827136E+02 -0.99726333799E+02 -0.39005459110E+02  0.11035225652E+03  0.00000000000E+00 0.  1.
</event>
<event>
 7    1  0.2651429E-009  0.2009890E+03  0.7561462E-02  0.1148907E+00
          2   -1    0    0  501    0  0.00000000000E+00  0.00000000000E+00  0.64709080940E+03  0.64709080940E+03  0.00000000000E+00 0. -1.
         -2   -1    0    0    0  501 -0.00000000000E+00 -0.00000000000E+00 -0.67649992783E+02  0.67649992783E+02  0.00000000000E+00 0.  1.
         25    2    1    2    0    0 -0.17083207615E+03  0.45131412902E+02  0.25529386371E+03  0.33473217362E+03  0.12510087345E+03 0.  0.
          5    1    3    3  502    0 -0.13938929197E+03  0.80701841602E+02  0.15444017454E+03  0.22318468107E+03  0.41800000000E+01 0.  1.
         -5    1    3    3    0  502 -0.31442784177E+02 -0.35570428700E+02  0.10085368917E+03  0.11154749255E+03  0.41800000000E+01 0.  1.
        -11    1    1    2    0    0  0.10889983068E+03 -0.66600657725E+02  0.17072525817E+03  0.21317113901E+03  0.00000000000E+00 0.  1.
         11    1    1    2    0    0  0.61932245467E+02  0.21469244823E+02  0.15342169474E+03  0.16683748955E+03  0.00000000000E+00 0. -1.
</event>
<event>
 7    1  0.2651429E-009  0.8840088E+02  0.7561462E-02  0.1306771E+00
         -2   -1    0    0    0  501 -0.00000000000E+00  0.00000000000E+00  0.40257031267E+02  0.40257031267E+02  0.00000000000E+00 0.  1.
          2   -1    0    0  501    0  0.00000000000E+00 -0.00000000000E+00 -0.48126869020E+03  0.48126869020E+03  0.00000000000E+00 0. -1.
         25    2    1    2    0    0  0.83363147181E+01 -0.26931538363E+02 -0.88951579325E+02  0.15606705479E+03  0.12509892175E+03 0.  0.
          5    1    3    3  502    0 -0.23779339331E+02  0.23111434780E+02 -0.90462532368E+02  0.96439294684E+02  0.41800000000E+01 0. -1.
         -5    1    3    3    0  502  0.32115654049E+02 -0.50042973144E+02  0.15109530431E+01  0.59627760105E+02  0.41800000000E+01 0. -1.
        -11    1    1    2    0    0 -0.40521816220E+02  0.31416747400E+02 -0.29803298499E+03  0.30241145770E+03  0.00000000000E+00 0. -1.
         11    1    1    2    0    0  0.32185501502E+02 -0.44852090366E+01 -0.54027094619E+02  0.63047208979E+02  0.00000000000E+00 0.  1.
</event>
<event>
 7    1  0.2651429E-009  0.1132691E+03  0.7561462E-02  0.1254633E+00
         -1   -1    0    0    0  501 -0.00000000000E+00  0.00000000000E+00  0.61927883022E+02  0.61927883022E+02  0.00000000000E+00 0.  1.
          1   -1    0    0  501    0  0.00000000000E+00 -0.00000000000E+00 -0.24663592368E+03  0.24663592368E+03  0.00000000000E+00 0. -1.
         25    2    1    2    0    0  0.43764124156E+02  0.35843597980E+01 -0.54402339329E+02  0.14329917669E+03  0.12508754262E+03 0.  0.
          5    1    3    3  502    0  0.85750045644E+02 -0.32627594137E+01 -0.52132066275E+02  0.10049348566E+03  0.41800000000E+01 0. -1.
         -5    1    3    3    0  502 -0.41985921487E+02  0.68471192116E+01 -0.22702730543E+01  0.42805691028E+02  0.41800000000E+01 0. -1.
        -11    1    1    2    0    0 -0.42835765773E+02  0.37411274678E+02 -0.52918361493E+02  0.77684356761E+02  0.00000000000E+00 0.  1.
         11    1    1    2    0    0 -0.92835838350E+00 -0.40995634476E+02 -0.77387339834E+02  0.87580273246E+02  0.00000000000E+00 0. -1.
</event>
<event>
 7    1  0.2651429E-009  0.1069133E+03  0.7561462E-02  0.1266395E+00
          2   -1    0    0  501    0  0.00000000000E+00  0.00000000000E+00  0.71612404157E+02  0.71612404157E+02  0.00000000000E+00 0. -1.
         -2   -1    0    0    0  501 -0.00000000000E+00 -0.00000000000E+00 -0.26894014864E+03  0.26894014864E+03  0.00000000000E+00 0.  1.
         25    2    1    2    0    0 -0.29111517095E+02  0.63347985600E+02 -0.16976482374E+03  0.22209959111E+03  0.12509070822E+03 0.  0.
          5    1    3    3  502    0  0.10637955200E+02  0.89323459979E+02 -0.13812331477E+03  0.16488592747E+03  0.41800000000E+01 0. -1.
         -5    1    3    3    0  502 -0.39749472294E+02 -0.25975474379E+02 -0.31641508966E+02  0.57213663635E+02  0.41800000000E+01 0. -1.
        -11    1    1    2    0    0  0.24379406784E+02 -0.17486997654E+02 -0.56533812924E+02  0.64001738771E+02  0.00000000000E+00 0.  1.
         11    1    1    2    0    0  0.47321103110E+01 -0.45860987946E+02  0.28970892183E+02  0.54451222918E+02  0.00000000000E+00 0. -1.
</event>
<event>
 7    1  0.2651429E-009  0.2149708E+03  0.7561462E-02  0.1137689E+00
         -2   -1    0    0    0  501 -0.00000000000E+00  0.00000000000E+00  0.42953364531E+02  0.42953364531E+02  0.00000000000E+00 0. -1.
          2   -1    0    0  501    0  0.00000000000E+00 -0.00000000000E+00 -0.16120907521E+04  0.16120907521E+04  0.00000000000E+00 0.  1.
         25    2    1    2    0    0  0.41260130055E+02  0.18478629053E+03 -0.12665985149E+04  0.12867664358E+04  0.12509073023E+03 0.  0.
          5    1    3    3  502    0  0.64465257836E+02  0.18856966252E+03 -0.10413361504E+04  0.10602418297E+04  0.41800000000E+01 0. -1.
         -5    1    3    3    0  502 -0.23205127781E+02 -0.37833719924E+01 -0.22526236459E+03  0.22652460608E+03  0.41800000000E+01 0. -1.
        -11    1    1    2    0    0 -0.66742072108E+02 -0.14263975037E+03 -0.25573374116E+03  0.30033372928E+03  0.00000000000E+00 0.  1.
         11    1    1    2    0    0  0.25481942053E+02 -0.42146540161E+02 -0.46805131455E+02  0.67943951525E+02  0.00000000000E+00 0. -1.
</event>
<event>
 7    1  0.2651429E-009  0.1188851E+03  0.7561462E-02  0.1244948E+00
         -1   -1    0    0    0  501 -0.00000000000E+00  0.00000000000E+00  0.27489384295E+02  0.27489384295E+02  0.00000000000E+00 0.  1.
          1   -1    0    0  501    0  0.00000000000E+00 -0.00000000000E+00 -0.66755400840E+03  0.66755400840E+03  0.00000000000E+00 0. -1.
         25    2    1    2    0    0  0.36983915211E+02  0.59739870284E+02 -0.23772808049E+03  0.27766828124E+03  0.12509345333E+03 0.  0.
          5    1    3    3  502    0 -0.11229486925E+02  0.77563680119E+02 -0.19665848126E+03  0.21174101280E+03  0.41800000000E+01 0.  1.
         -5    1    3    3    0  502  0.48213402136E+02 -0.17823809835E+02 -0.41069599229E+02  0.65927268436E+02  0.41800000000E+01 0.  1.
        -11    1    1    2    0    0 -0.55880006609E+02 -0.13104585717E+02 -0.26411456552E+03  0.27027913169E+03  0.00000000000E+00 0. -1.
         11    1    1    2    0    0  0.18896091398E+02 -0.46635284567E+02 -0.13822197809E+03  0.14709597977E+03  0.00000000000E+00 0.  1.
</event>
<event>
 7    1  0.2651429E-009  0.1036870E+03  0.7561462E-02  0.1272728E+00
         -2   -1    0    0    0  501 -0.00000000000E+00  0.00000000000E+00  0.48544417878E+02  0.48544417878E+02  0.00000000000E+00 0.  1.
          2   -1    0    0  501    0  0.00000000000E+00 -0.00000000000E+00 -0.34964406097E+03  0.34964406097E+03  0.00000000000E+00 0. -1.
         25    2    1    2    0    0  0.36545706194E+02 -0.49638367555E+02 -0.25097933879E+03  0.28711977653E+03  0.12509029298E+03 0.  0.
          5    1    3    3  502    0  0.66812728467E+02 -0.24597703961E+02 -0.23308393364E+03  0.24375106204E+03  0.41800000000E+01 0.  1.
         -5    1    3    3    0  502 -0.30267022273E+02 -0.25040663594E+02 -0.17895405151E+02  0.43368714484E+02  0.41800000000E+01 0.  1.
        -11    1    1    2    0    0  0.22766691476E+02  0.82096737101E+01 -0.22262274565E+01  0.24303848911E+02  0.00000000000E+00 0.  1.
         11    1    1    2    0    0 -0.59312397671E+02  0.41428693845E+02 -0.47894076850E+02  0.86764853417E+02  0.00000000000E+00 0. -1.
</event>
<event>
 7    1  0.2651429E-009  0.1031834E+03  0.7561462E-02  0.1273741E+00
         -1   -1    0    0    0  501 -0.00000000000E+00  0.00000000000E+00  0.62103248727E+02  0.62103248727E+02  0.00000000000E+00 0.  1.
          1   -1    0    0  501    0  0.00000000000E+00 -0.00000000000E+00 -0.19528548656E+03  0.19528548656E+03  0.00000000000E+00 0. -1.
         25    2    1    2    0    0  0.15411757439E+02  0.22241492966E+02 -0.74345894293E+02  0.14800850155E+03  0.12508796208E+03 0.  0.
          5    1    3    3  502    0  0.66265067368E+02  0.50771142095E+01 -0.65586626231E+02  0.93466112481E+02  0.41800000000E+01 0. -1.
         -5    1    3    3    0  502 -0.50853309929E+02  0.17164378757E+02 -0.87592680620E+01  0.54542389073E+02  0.41800000000E+01 0. -1.
        -11    1    1    2    0    0 -0.48143072474E+02 -0.36078610432E+01 -0.52259748926E+02  0.71146703693E+02  0.00000000000E+00 0. -1.
         11    1    1    2    0    0  0.32731315035E+02 -0.18633631923E+02 -0.65765946125E+01  0.38233530039E+02  0.00000000000E+00 0.  1.
</event>
<event>
 7    1  0.2651429E-009  0.1523961E+03  0.7561462E-02  0.1197559E+00
          2   -1    0    0  501    0  0.00000000000E+00  0.00000000000E+00  0.14924959772E+03  0.14924959772E+03  0.00000000000E+00 0. -1.
         -2   -1    0    0    0  501 -0.00000000000E+00 -0.00000000000E+00 -0.20372553944E+03  0.20372553944E+03  0.00000000000E+00 0.  1.
         25    2    1    2    0    0 -0.12360662953E+03  0.44181448476E+01 -0.91624367179E+02  0.19834894467E+03  0.12509660396E+03 0.  0.
          5    1    3    3  502    0 -0.13644696197E+03  0.22440666755E+02 -0.10360750926E+03  0.17283907350E+03  0.41800000000E+01 0. -1.
         -5    1    3    3    0  502  0.12840332434E+02 -0.18022521907E+02  0.11983142077E+02  0.25509871167E+02  0.41800000000E+01 0. -1.
        -11    1    1    2    0    0  0.85818676520E+02  0.31863492754E+02  0.44397335721E+02  0.10174109705E+03  0.00000000000E+00 0. -1.
         11    1    1    2    0    0  0.37787953013E+02 -0.36281637602E+02 -0.72489102581E+01  0.52885095442E+02  0.00000000000E+00 0.  1.
</event>
<event>
 7    1  0.2651429E-009  0.9643043E+02  0.7561462E-02  0.1287987E+00
          2   -1    0    0  501    0  0.00000000000E+00  0.00000000000E+00  0.59602483256E+03  0.59602483256E+03  0.00000000000E+00 0. -1.
         -2   -1    0    0    0  501 -0.00000000000E+00 -0.00000000000E+00 -0.20388479873E+02  0.20388479873E+02  0.00000000000E+00 0.  1.
         25    2    1    2    0    0 -0.19750346443E+02 -0.11075188566E+01  0.34485560022E+03  0.36737557063E+03  0.12509245426E+03 0.  0.
          5    1    3    3  502    0 -0.64334273669E+02  0.40714089768E+01  0.10468923464E+03  0.12301537867E+03  0.41800000000E+01 0.  1.
         -5    1    3    3    0  502  0.44583927226E+02 -0.51789278334E+01  0.24016636558E+03  0.24436019196E+03  0.41800000000E+01 0.  1.
        -11    1    1    2    0    0  0.96650046517E+01  0.40955323756E+02  0.17353022711E+03  0.17855948751E+03  0.00000000000E+00 0.  1.
         11    1    1    2    0    0  0.10085341792E+02 -0.39847804899E+02  0.57250525361E+02  0.70478254295E+02  0.00000000000E+00 0. -1.
</event>
<event>
 7    1  0.2651429E-009  0.1769913E+03  0.7561462E-02  0.1170747E+00
         -2   -1    0    0    0  501 -0.00000000000E+00  0.00000000000E+00  0.49484045527E+03  0.49484045527E+03  0.00000000000E+00 0.  1.
          2   -1    0    0  501    0  0.00000000000E+00 -0.00000000000E+00 -0.70401915048E+02  0.70401915048E+02  0.00000000000E+00 0. -1.
         25    2    1    2    0    0 -0.12577004888E+03 -0.85256401950E+02  0.23125063399E+03  0.30366231985E+03  0.12508872655E+03 0.  0.
          5    1    3    3  502    0 -0.72829260120E+02  0.17493613301E+02  0.12927793083E+03  0.14946699782E+03  0.41800000000E+01 0.  1.
         -5    1    3    3    0  502 -0.52940788762E+02 -0.10275001525E+03  0.10197270315E+03  0.15419532203E+03  0.41800000000E+01 0.  1.
        -11    1    1    2    0    0  0.39907646823E+02  0.63044691490E+02  0.40226560065E+02  0.84766912971E+02  0.00000000000E+00 0.  1.
         11    1    1    2    0    0  0.85862402059E+02  0.22211710460E+02  0.15296134618E+03  0.17681313750E+03  0.00000000000E+00 0. -1.
</event>
<event>
 7    1  0.2651429E-009  0.8487064E+02  0.7561462E-02  0.1315771E+00
         -2   -1    0    0    0  501 -0.00000000000E+00  0.00000000000E+00  0.15859074515E+02  0.15859074515E+02  0.00000000000E+00 0.  1.
          2   -1    0    0  501    0  0.00000000000E+00 -0.00000000000E+00 -0.99672906588E+03  0.99672906588E+03  0.00000000000E+00 0. -1.
         25    2    1    2    0    0 -0.87357262443E+01  0.81192879293E+02 -0.66040362436E+03  0.67708877222E+03  0.12509061452E+03 0.  0.
          5    1    3    3  502    0  0.40656981673E+01  0.40368492215E+02 -0.60774209809E+03  0.60910924739E+03  0.41800000000E+01 0. -1.
         -5    1    3    3    0  502 -0.12801424412E+02  0.40824387078E+02 -0.52661526265E+02  0.67979524828E+02  0.41800000000E+01 0. -1.
        -11    1    1    2    0    0  0.16953906303E+02 -0.70328477172E+02 -0.30997548840E+03  0.31830540845E+03  0.00000000000E+00 0. -1.
         11    1    1    2    0    0 -0.82181800589E+01 -0.10864402121E+02 -0.10490878603E+02  0.17193959718E+02  0.00000000000E+00 0.  1.
</event>
<event>
 7    1  0.2651429E-009  0.1199653E+03  0.7561462E-02  0.1243154E+00
         -3   -1    0    0    0  501 -0.00000000000E+00  0.00000000000E+00  0.19899144948E+03  0.19899144948E+03  0.00000000000E+00 0.  1.
          3   -1    0    0  501    0  0.00000000000E+00 -0.00000000000E+00 -0.92290915328E+02  0.92290915328E+02  0.00000000000E+00 0. -1.
         25    2    1    2    0    0  0.47382479344E+02  0.59102658432E+02  0.88682989271E+02  0.17102904133E+03  0.12509211330E+03 0.  0.
          5    1    3    3  502    0  0.78343002024E+02  0.56616553875E+02  0.24808034619E+02  0.99879783341E+02  0.41800000000E+01 0. -1.
         -5    1    3    3    0  502 -0.30960522679E+02  0.24861045578E+01  0.63874954652E+02  0.71149257988E+02  0.41800000000E+01 0. -1.
        -11    1    1    2    0    0 -0.50815050274E+02 -0.77748356013E+02  0.30258471130E+02  0.97685982987E+02  0.00000000000E+00 0. -1.
         11    1    1    2    0    0  0.34325709294E+01  0.18645697581E+02 -0.12240926248E+02  0.22567340492E+02  0.00000000000E+00 0.  1.
</event>
<event>
 7    1  0.2651429E-009  0.1103025E+03  0.7561462E-02  0.1260011E+00
         -2   -1    0    0    0  501 -0.00000000000E+00  0.00000000000E+00  0.21991133636E+02  0.21991133636E+02  0.00000000000E+00 0.  1.
          2   -1    0    0  501    0  0.00000000000E+00 -0.00000000000E+00 -0.62859496648E+03  0.62859496648E+03  0.00000000000E+00 0. -1.
         25    2    1    2    0    0 -0.11508992106E+02 -0.39029157879E+02 -0.28897419905E+03  0.31750941052E+03  0.12510158267E+03 0.  0.
          5    1    3    3  502    0 -0.39061592961E+02 -0.73425201837E+02 -0.22317200673E+03  0.23820219415E+03  0.41800000000E+01 0. -1.
         -5    1    3    3    0  502  0.27552600855E+02  0.34396043958E+02 -0.65802192315E+02  0.79307216363E+02  0.41800000000E+01 0. -1.
        -11    1    1    2    0    0  0.26214922840E+02 -0.19526775087E+02 -0.17764609869E+03  0.18062849582E+03  0.00000000000E+00 0. -1.
         11    1    1    2    0    0 -0.14705930734E+02  0.58555932966E+02 -0.13998353511E+03  0.15244819378E+03  0.00000000000E+00 0.  1.
</event>
<event>
 7    1  0.2651429E-009  0.1095899E+03  0.7561462E-02  0.1261331E+00
         -1   -1    0    0    0  501 -0.00000000000E+00  0.00000000000E+00  0.42149034776E+03  0.42149034776E+03  0.00000000000E+00 0.  1.
          1   -1    0    0  501    0  0.00000000000E+00 -0.00000000000E+00 -0.34799895519E+02  0.34799895519E+02  0.00000000000E+00 0. -1.
         25    2    1    2    0    0 -0.26726380976E+02 -0.43652645113E+02  0.24856373002E+03  0.28294222980E+03  0.12511005017E+03 0.  0.
          5    1    3    3  502    0 -0.58087451616E+02  0.70166003815E+01  0.19168171002E+03  0.20045631711E+03  0.41800000000E+01 0.  1.
         -5    1    3    3    0  502  0.31361070640E+02 -0.50669245495E+02  0.56882020008E+02  0.82485912681E+02  0.41800000000E+01 0.  1.
        -11    1    1    2    0    0 -0.31741414265E+02  0.21120359526E+02  0.30560559067E+02  0.48862406168E+02  0.00000000000E+00 0. -1.
         11    1    1    2    0    0  0.58467795241E+02  0.22532285587E+02  0.10756616315E+03  0.12448560732E+03  0.00000000000E+00 0.  1.
</event>
<event>
 7    1  0.2651429E-009  0.1683830E+03  0.7561462E-02  0.1179545E+00
          2   -1    0    0  501    0  0.00000000000E+00  0.00000000000E+00  0.95522343370E+03  0.95522343370E+03  0.00000000000E+00 0. -1.
         -2   -1    0    0    0  501 -0.00000000000E+00 -0.00000000000E+00 -0.36010975844E+02  0.36010975844E+02  0.00000000000E+00 0.  1.
         25    2    1    2    0    0 -0.12314317083E+03 -0.86602811512E+02  0.53661567162E+03  0.57119837248E+03  0.12508762615E+03 0.  0.
          5    1    3    3  502    0 -0.13602634865E+03 -0.85964389264E+02  0.53354216734E+03  0.55729503899E+03  0.41800000000E+01 0.  1.
         -5    1    3    3    0  502  0.12883177820E+02 -0.63842224799E+00  0.30735042768E+01  0.13903333494E+02  0.41800000000E+01 0.  1.
        -11    1    1    2    0    0  0.72000439207E+02  0.13867970116E+02  0.10151797047E+03  0.12522891906E+03  0.00000000000E+00 0.  1.
         11    1    1    2    0    0  0.51142731620E+02  0.72734841396E+02  0.28107881577E+03  0.29480711801E+03  0.00000000000E+00 0. -1.
</event>
<event>
 7    1  0.2651429E-009  0.1188761E+03  0.7561462E-02  0.1244963E+00
         -1   -1    0    0    0  501 -0.00000000000E+00  0.00000000000E+00  0.18824312954E+03  0.18824312954E+03  0.00000000000E+00 0.  1.
          1   -1    0    0  501    0  0.00000000000E+00 -0.00000000000E+00 -0.12072838605E+03  0.12072838605E+03  0.00000000000E+00 0. -1.
         25    2    1    2    0    0  0.44512493405E+02  0.89689592510E+02  0.56636051527E+02  0.16995289469E+03  0.12510299360E+03 0.  0.
          5    1    3    3  502    0  0.82353853079E+01  0.99406584403E+02 -0.23945969946E+01  0.99863392134E+02  0.41800000000E+01 0.  1.
         -5    1    3    3    0  502  0.36277108097E+02 -0.97169918927E+01  0.59030648522E+02  0.70089502554E+02  0.41800000000E+01 0.  1.
        -11    1    1    2    0    0 -0.26077957303E+02 -0.53232689112E+02 -0.41670041953E+02  0.72458066794E+02  0.00000000000E+00 0. -1.
         11    1    1    2    0    0 -0.18434536102E+02 -0.36456903398E+02  0.52548733916E+02  0.66560554105E+02  0.00000000000E+00 0.  1.
</event>
<event>
 7    1  0.2651429E-009  0.2582650E+03  0.7561462E-02  0.1108190E+00
         -2   -1    0    0    0  501 -0.00000000000E+00  0.00000000000E+00  0.13339542172E+03  0.13339542172E+03  0.00000000000E+00 0.  1.
          2   -1    0    0  501    0  0.00000000000E+00 -0.00000000000E+00 -0.59651254883E+03  0.59651254883E+03  0.00000000000E+00 0. -1.
         25    2    1    2    0    0 -0.72402203192E+02 -0.23106498080E+03 -0.36211723176E+03  0.45322603070E+03  0.12510731788E+03 0.  0.
          5    1    3    3  502    0 -0.96452309002E+02 -0.99112633443E+02 -0.18362317324E+03  0.22991586324E+03  0.41800000000E+01 0. -1.
         -5    1    3    3    0  502  0.24050105810E+02 -0.13195234735E+03 -0.17849405852E+03  0.22331016746E+03  0.41800000000E+01 0. -1.
        -11    1    1    2    0    0  0.39655871616E+02  0.78620356770E+02  0.49091678206E+01  0.88192111785E+02  0.00000000000E+00 0.  1.
         11    1    1    2    0    0  0.32746331575E+02  0.15244462403E+03 -0.10590906316E+03  0.18848982807E+03  0.00000000000E+00 0. -1.
</event>
<event>
 7    1  0.2651429E-009  0.7318540E+02  0.7561462E-02  0.1349584E+00
          1   -1    0    0  501    0  0.00000000000E+00  0.00000000000E+00  0.10122051513E+03  0.10122051513E+03  0.00000000000E+00 0. -1.
         -1   -1    0    0    0  501 -0.00000000000E+00 -0.00000000000E+00 -0.15528744448E+03  0.15528744448E+03  0.00000000000E+00 0.  1.
         25    2    1    2    0    0 -0.41536179923E+02  0.46107879422E+02 -0.40318038568E+02  0.14534149113E+03  0.12508962396E+03 0.  0.
          5    1    3    3  502    0 -0.20695155106E+02  0.45221410497E+02  0.38925124608E+02  0.63292204401E+02  0.41800000000E+01 0.  1.
         -5    1    3    3    0  502 -0.20841024817E+02  0.88646892597E+00 -0.79243163176E+02  0.82049286729E+02  0.41800000000E+01 0.  1.
        -11    1    1    2    0    0 -0.88965910821E+01 -0.81846307780E+01 -0.40769712656E+02  0.42524192925E+02  0.00000000000E+00 0.  1.
         11    1    1    2    0    0  0.50432771005E+02 -0.37923248645E+02  0.27020821877E+02  0.68642275559E+02  0.00000000000E+00 0. -1.
</event>
<event>
 7    1  0.2651429E-009  0.1103103E+03  0.7561462E-02  0.1259996E+00
          1   -1    0    0  501    0  0.00000000000E+00  0.00000000000E+00  0.38044755998E+03  0.38044755998E+03  0.00000000000E+00 0. -1.
         -1   -1    0    0    0  501 -0.00000000000E+00 -0.00000000000E+00 -0.43908973207E+02  0.43908973207E+02  0.00000000000E+00 0.  1.
         25    2    1    2    0    0  0.61285338373E+02 -0.27308060235E+02  0.15073026660E+03  0.20704811231E+03  0.12509070584E+03 0.  0.
          5    1    3    3  502    0  0.37318736262E+02 -0.58063015579E+02  0.22131750937E+02  0.72603640775E+02  0.41800000000E+01 0.  1.
         -5    1    3    3    0  502  0.23966602111E+02  0.30754955344E+02  0.12859851566E+03  0.13444447153E+03  0.41800000000E+01 0.  1.
        -11    1    1    2    0    0  0.28675616640E+01 -0.27641092037E+02  0.38175409826E+02  0.47218797044E+02  0.00000000000E+00 0.  1.
         11    1    1    2    0    0 -0.64152900037E+02  0.54949152272E+02  0.14763291034E+03  0.17008962383E+03  0.00000000000E+00 0. -1.
</event>
<event>
 7    1  0.2651429E-009  0.9913843E+02  0.7561462E-02  0.1282118E+00
         -1   -1    0    0    0  501 -0.00000000000E+00  0.00000000000E+00  0.13626753719E+03  0.13626753719E+03  0.00000000000E+00 0.  1.
          1   -1    0    0  501    0  0.00000000000E+00 -0.00000000000E+00 -0.13988220586E+03  0.13988220586E+03  0.00000000000E+00 0. -1.
         25    2    1    2    0    0  0.70372426496E+02 -0.24346103387E+02  0.38641360302E+02  0.15062029909E+03  0.12509319970E+03 0.  0.
          5    1    3    3  502    0  0.37785136992E+02  0.89820610811E+01  0.79446184323E+02  0.88530009614E+02  0.41800000000E+01 0.  1.
         -5    1    3    3    0  502  0.32587289505E+02 -0.33328164469E+02 -0.40804824021E+02  0.62090289478E+02  0.41800000000E+01 0.  1.
        -11    1    1    2    0    0  0.99686163931E+01 -0.18757434395E+02  0.64004127859E+01  0.22185128841E+02  0.00000000000E+00 0.  1.
         11    1    1    2    0    0 -0.80341042890E+02  0.43103537782E+02 -0.48656441760E+02  0.10334431512E+03  0.00000000000E+00 0. -1.
</event>
<event>
 7    1  0.2651429E-009  0.1415233E+03  0.7561462E-02  0.1211294E+00
          1   -1    0    0  501    0  0.00000000000E+00  0.00000000000E+00  0.30530593923E+02  0.30530593923E+02  0.00000000000E+00 0. -1.
         -1   -1    0    0    0  501 -0.00000000000E+00 -0.00000000000E+00 -0.80120057260E+03  0.80120057260E+03  0.00000000000E+00 0.  1.
         25    2    1    2    0    0 -0.10848997215E+03  0.27445005416E+02 -0.37785487382E+03  0.41345579864E+03  0.12509232342E+03 0.  0.
          5    1    3    3  502    0 -0.37524027288E+02  0.54073617595E+02 -0.28973687571E+03  0.29714800738E+03  0.41800000000E+01 0.  1.
         -5    1    3    3    0  502 -0.70965944861E+02 -0.26628612179E+02 -0.88117998111E+02  0.11630779126E+03  0.41800000000E+01 0.  1.
        -11    1    1    2    0    0  0.66178284528E+02  0.27644495418E+02 -0.23842583787E+03  0.24897924338E+03  0.00000000000E+00 0. -1.
         11    1    1    2    0    0  0.42311687621E+02 -0.55089500834E+02 -0.15438926698E+03  0.16929612450E+03  0.00000000000E+00 0.  1.
</event>
<event>
 7    1  0.2889088E-009  0.2471613E+03  0.7561462E-02  0.1115112E+00
          1   -1    0    0  501    0  0.00000000000E+00  0.00000000000E+00  0.13302092653E+04  0.13302092653E+04  0.00000000000E+00 0. -1.
         -1   -1    0    0    0  501 -0.00000000000E+00 -0.00000000000E+00 -0.49241523078E+02  0.49241523078E+02  0.00000000000E+00 0.  1.
         25    2    1    2    0    0 -0.22915673438E+03 -0.19598065476E+02  0.58840771740E+03  0.64402523195E+03  0.12509182389E+03 0.  0.
          5    1    3    3  502    0 -0.13144430722E+03  0.50197097057E+02  0.34378453620E+03  0.37148705789E+03  0.41800000000E+01 0.  1.
         -5    1    3    3    0  502 -0.97712427161E+02 -0.69795162533E+02  0.24462318120E+03  0.27253817406E+03  0.41800000000E+01 0.  1.
        -11    1    1    2    0    0  0.79754762951E+02  0.25944459762E+02  0.37715467980E+03  0.38636716954E+03  0.00000000000E+00 0. -1.
         11    1    1    2    0    0  0.14940197143E+03 -0.63463942860E+01  0.31540534500E+03  0.34905838687E+03  0.00000000000E+00 0.  1.
</event>
<event>
 7    1  0.2651429E-009  0.1021135E+03  0.7561462E-02  0.1275913E+00
          1   -1    0    0  501    0  0.00000000000E+00  0.00000000000E+00  0.32485552829E+03  0.32485552829E+03  0.00000000000E+00 0. -1.
         -1   -1    0    0    0  501 -0.00000000000E+00 -0.00000000000E+00 -0.61403868795E+02  0.61403868795E+02  0.00000000000E+00 0.  1.
         25    2    1    2    0    0  0.30045842364E+02  0.55984915893E+02  0.51461926752E+02  0.14943933001E+03  0.12508684982E+03 0.  0.
          5    1    3    3  502    0  0.29329188404E+02  0.75069432595E+02  0.80789443388E+02  0.11419294009E+03  0.41800000000E+01 0.  1.
         -5    1    3    3    0  502  0.71665396040E+00 -0.19084516702E+02 -0.29327516636E+02  0.35246389924E+02  0.41800000000E+01 0.  1.
        -11    1    1    2    0    0  0.27963158179E+02 -0.91647545370E+01  0.42851298008E+02  0.51982349717E+02  0.00000000000E+00 0.  1.
         11    1    1    2    0    0 -0.58009000543E+02 -0.46820161356E+02  0.16913843473E+03  0.18483771736E+03  0.00000000000E+00 0. -1.
</event>
<event>
 7    1  0.2651429E-009  0.1434630E+03  0.7561462E-02  0.1208744E+00
         -2   -1    0    0    0  501 -0.00000000000E+00  0.00000000000E+00  0.22588057801E+02  0.22588057801E+02  0.00000000000E+00 0.  1.
          2   -1    0    0  501    0  0.00000000000E+00 -0.00000000000E+00 -0.10192522849E+04  0.10192522849E+04  0.00000000000E+00 0. -1.
         25    2    1    2    0    0  0.19773160824E+02 -0.10064892196E+03 -0.62707389722E+03  0.64760507285E+03  0.12509785943E+03 0.  0.
          5    1    3    3  502    0  0.64125186281E+02 -0.96842849336E+02 -0.48095339848E+03  0.49479715126E+03  0.41800000000E+01 0.  1.
         -5    1    3    3    0  502 -0.44352025457E+02 -0.38060726195E+01 -0.14612049873E+03  0.15280792159E+03  0.41800000000E+01 0.  1.
        -11    1    1    2    0    0 -0.47203310551E+02  0.73820083392E+02 -0.17287146207E+03  0.19380944156E+03  0.00000000000E+00 0. -1.
         11    1    1    2    0    0  0.27430149727E+02  0.26828838564E+02 -0.19671886782E+03  0.20042582830E+03  0.00000000000E+00 0.  1.
</event>
<event>
 7    1  0.2651429E-009  0.1506665E+03  0.7561462E-02  0.1199656E+00
          3   -1    0    0  501    0  0.00000000000E+00  0.00000000000E+00  0.22300864196E+03  0.22300864196E+03  0.00000000000E+00 0. -1.
         -3   -1    0    0    0  501 -0.00000000000E+00 -0.00000000000E+00 -0.10933695508E+03  0.10933695508E+03  0.00000000000E+00 0.  1.
         25    2    1    2    0    0  0.11090624969E+03  0.23495209781E+02  0.57392405269E+02  0.17830682025E+03  0.12508881990E+03 0.  0.
          5    1    3    3  502    0 -0.59182088386E-01 -0.33408555842E+02 -0.11743401751E+02  0.35658308859E+02  0.41800000000E+01 0.  1.
         -5    1    3    3    0  502  0.11096543177E+03  0.56903765624E+02  0.69135807020E+02  0.14264851140E+03  0.41800000000E+01 0.  1.
        -11    1    1    2    0    0 -0.28148078893E+02  0.32478704769E+02  0.11102981752E+02  0.44389827805E+02  0.00000000000E+00 0. -1.
         11    1    1    2    0    0 -0.82758170793E+02 -0.55973914550E+02  0.45176299859E+02  0.10964894898E+03  0.00000000000E+00 0.  1.
</event>
<event>
 6    1  0.2651429E-009  0.9337223E+02  0.7561462E-02  0.1294885E+00
         -1   -1    0    0    0  501 -0.00000000000E+00  0.00000000000E+00  0.23249515092E+02  0.23249515092E+02  0.00000000000E+00 0.  1.
          1   -1    0    0  501    0  0.00000000000E+00 -0.00000000000E+00 -0.66483030566E+03  0.66483030566E+03  0.00000000000E+00 0. -1.
          5    1    1    2  502    0  0.64923602909E+02  0.15032819217E+02 -0.33797125732E+03  0.34450414082E+03  0.41800000000E+01 0. -1.
         -5    1    1    2    0  502 -0.54756577626E+02 -0.12373157019E+02 -0.19071677767E+03  0.19885104851E+03  0.41800000000E+01 0. -1.
        -11    1    1    2    0    0 -0.16897194210E+02  0.27774319711E+02 -0.55912474745E+01  0.32987725837E+02  0.00000000000E+00 0.  1.
         11    1    1    2    0    0  0.67301689271E+01 -0.30433981909E+02 -0.10730150810E+03  0.11173690558E+03  0.00000000000E+00 0. -1.
</event>
<event>
 7    1  0.2651429E-009  0.1999999E+03  0.7561462E-02  0.1149739E+00
         -2   -1    0    0    0  501 -0.00000000000E+00  0.00000000000E+00  0.13626816524E+03  0.13626816524E+03  0.00000000000E+00 0.  1.
          2   -1    0    0  501    0  0.00000000000E+00 -0.00000000000E+00 -0.33613509086E+03  0.33613509086E+03  0.00000000000E+00 0. -1.
         25    2    1    2    0    0  0.85882141641E+01 -0.18315081067E+03 -0.12422603262E+03  0.25435671139E+03  0.12508897865E+03 0.  0.
          5    1    3    3  502    0 -0.30832904660E+02 -0.12804431405E+03 -0.13140605146E+03  0.18609416200E+03  0.41800000000E+01 0.  1.
         -5    1    3    3    0  502  0.39421118824E+02 -0.55106496622E+02  0.71800188414E+01  0.68262549395E+02  0.41800000000E+01 0.  1.
        -11    1    1    2    0    0 -0.37021853444E+02  0.15833438214E+03 -0.77770876326E+02  0.18024622993E+03  0.00000000000E+00 0. -1.
         11    1    1    2    0    0  0.28433639279E+02  0.24816428535E+02  0.21299833206E+01  0.37800314772E+02  0.00000000000E+00 0.  1.
</event>
<event>
 7    1  0.2651429E-009  0.8638011E+02  0.7561462E-02  0.1311862E+00
          4   -1    0    0  501    0  0.00000000000E+00  0.00000000000E+00  0.14656485303E+03  0.14656485303E+03  0.00000000000E+00 0.  1.
         -4   -1    0    0    0  501 -0.00000000000E+00 -0.00000000000E+00 -0.90717044427E+02  0.90717044427E+02  0.00000000000E+00 0. -1.
         25    2    1    2    0    0 -0.18796479336E+02 -0.14334793775E+02 -0.42462649948E+00  0.12731320851E+03  0.12509867627E+03 0.  0.
          5    1    3    3  502    0  0.13645569990E+02 -0.54151604779E+02 -0.34277262786E+02  0.65658213687E+02  0.41800000000E+01 0. -1.
         -5    1    3    3    0  502 -0.32442049327E+02  0.39816811004E+02  0.33852636287E+02  0.61654994823E+02  0.41800000000E+01 0. -1.
        -11    1    1    2    0    0 -0.21394318630E+02 -0.27266191346E+01 -0.15080536942E+02  0.26316799122E+02  0.00000000000E+00 0. -1.
         11    1    1    2    0    0  0.40190797967E+02  0.17061412910E+02  0.71352972045E+02  0.83651889825E+02  0.00000000000E+00 0.  1.
</event>
<event>
 7    1  0.2651429E-009  0.1518982E+03  0.7561462E-02  0.1198160E+00
          1   -1    0    0  501    0  0.00000000000E+00  0.00000000000E+00  0.57619575651E+03  0.57619575651E+03  0.00000000000E+00 0.  1.
         -1   -1    0    0    0  501 -0.00000000000E+00 -0.00000000000E+00 -0.54590663742E+02  0.54590663742E+02  0.00000000000E+00 0. -1.
         25    2    1    2    0    0  0.32173633615E+02 -0.11281350848E+03  0.41161678269E+03  0.44591560799E+03  0.12510125204E+03 0.  0.
          5    1    3    3  502    0  0.78978151007E+02 -0.72400358929E+02  0.22428614305E+03  0.24859828373E+03  0.41800000000E+01 0. -1.
         -5    1    3    3    0  502 -0.46804517392E+02 -0.40413149552E+02  0.18733063964E+03  0.19731732426E+03  0.41800000000E+01 0. -1.
        -11    1    1    2    0    0 -0.36082801094E+02  0.19150479831E+02  0.66102353767E+00  0.40855187733E+02  0.00000000000E+00 0.  1.
         11    1    1    2    0    0  0.39091674789E+01  0.93663028650E+02  0.10932728655E+03  0.14401562453E+03  0.00000000000E+00 0. -1.
</event>
<event>
 7    1  0.2651429E-009  0.1092197E+03  0.7561462E-02  0.1262022E+00
         -1   -1    0    0    0  501 -0.00000000000E+00  0.00000000000E+00  0.43357337348E+03  0.43357337348E+03  0.00000000000E+00 0.  1.
          1   -1    0    0  501    0  0.00000000000E+00 -0.00000000000E+00 -0.43370704687E+02  0.43370704687E+02  0.00000000000E+00 0. -1.
         25    2    1    2    0    0 -0.48365131151E+02  0.63215316326E+02  0.25630524907E+03  0.29609965285E+03  0.12508901466E+03 0.  0.
          5    1    3    3  502    0 -0.28068703130E+02 -0.10238119096E+02  0.16058281616E+01  0.30211293619E+02  0.41800000000E+01 0.  1.
         -5    1    3    3    0  502 -0.20296428021E+02  0.73453435422E+02  0.25469942091E+03  0.26588835923E+03  0.41800000000E+01 0.  1.
        -11    1    1    2    0    0  0.19765135356E+02  0.17449323167E+02  0.67679567255E+02  0.72633761285E+02  0.00000000000E+00 0.  1.
         11    1    1    2    0    0  0.28599995796E+02 -0.80664639494E+02  0.66217852471E+02  0.10821066403E+03  0.00000000000E+00 0. -1.
</event>
<event>
 7    1  0.2651429E-009  0.1787959E+03  0.7561462E-02  0.1168974E+00
         -1   -1    0    0    0  501 -0.00000000000E+00  0.00000000000E+00  0.27293458195E+02  0.27293458195E+02  0.00000000000E+00 0.  1.
          1   -1    0    0  501    0  0.00000000000E+00 -0.00000000000E+00 -0.21449246615E+04  0.21449246615E+04  0.00000000000E+00 0. -1.
         25    2    1    2    0    0  0.13626145304E+03 -0.87821893558E+02 -0.17011626408E+04  0.17134414073E+04  0.12508899704E+03 0.  0.
          5    1    3    3  502    0  0.13897868535E+02  0.25000513728E+02 -0.49486364456E+03  0.49570724782E+03  0.41800000000E+01 0. -1.
         -5    1    3    3    0  502  0.12236358450E+03 -0.11282240729E+03 -0.12062989963E+04  0.12177341595E+04  0.41800000000E+01 0. -1.
        -11    1    1    2    0    0 -0.82311659718E+02  0.56047751331E+02 -0.12081275870E+03  0.15656398826E+03  0.00000000000E+00 0.  1.
         11    1    1    2    0    0 -0.53949793317E+02  0.31774142227E+02 -0.29565580376E+03  0.30221272411E+03  0.00000000000E+00 0. -1.
</event>
<event>
 7    1  0.2651429E-009  0.3847204E+03  0.7561462E-02  0.1049203E+00
          1   -1    0    0  501    0  0.00000000000E+00  0.00000000000E+00  0.11382448682E+04  0.11382448682E+04  0.00000000000E+00 0. -1.
         -1   -1    0    0    0  501 -0.00000000000E+00 -0.00000000000E+00 -0.19675086388E+03  0.19675086388E+03  0.00000000000E+00 0.  1.
         25    2    1    2    0    0  0.12006732778E+03  0.35236585886E+03  0.92340410713E+02  0.40342493258E+03  0.12508822122E+03 0.  0.
          5    1    3    3  502    0 -0.20739854402E+02  0.30418289404E+02 -0.81160005086E+01  0.37930934014E+02  0.41800000000E+01 0. -1.
         -5    1    3    3    0  502  0.14080718219E+03  0.32194756946E+03  0.10045641122E+03  0.36549399857E+03  0.41800000000E+01 0. -1.
        -11    1    1    2    0    0 -0.57075480615E+02 -0.27665706696E+03  0.58439267998E+03  0.64908516206E+03  0.00000000000E+00 0. -1.
         11    1    1    2    0    0 -0.62991847168E+02 -0.75708791899E+02  0.26476091364E+03  0.28248563746E+03  0.00000000000E+00 0.  1.
</event>
<event>
 7    1  0.2651429E-009  0.1242194E+03  0.7561462E-02  0.1236294E+00
          2   -1    0    0  501    0  0.00000000000E+00  0.00000000000E+00  0.15616564191E+04  0.15616564191E+04  0.00000000000E+00 0. -1.
         -2   -1    0    0    0  501 -0.00000000000E+00 -0.00000000000E+00 -0.15227521045E+02  0.15227521045E+02  0.00000000000E+00 0.  1.
         25    2    1    2    0    0 -0.45505544798E+02  0.53094088382E+02  0.11950933912E+04  0.12036555630E+04  0.12509501939E+03 0.  0.
          5    1    3    3  502    0  0.19565441275E+02 -0.22883173313E+02  0.54995235108E+03  0.55079170924E+03  0.41800000000E+01 0. -1.
         -5    1    3    3    0  502 -0.65070986073E+02  0.75977261695E+02  0.64514104008E+03  0.65286385374E+03  0.41800000000E+01 0. -1.
        -11    1    1    2    0    0 -0.54564743365E+01 -0.65292407694E+02  0.12760417160E+03  0.14344230974E+03  0.00000000000E+00 0.  1.
         11    1    1    2    0    0  0.50962019135E+02  0.12198319312E+02  0.22373133535E+03  0.22978606747E+03  0.00000000000E+00 0. -1.
</event>
<event>
 7    1  0.2651429E-009  0.1323874E+03  0.7561462E-02  0.1223956E+00
          1   -1    0    0  501    0  0.00000000000E+00  0.00000000000E+00  0.21373923994E+03  0.21373923994E+03  0.00000000000E+00 0. -1.
         -1   -1    0    0    0  501 -0.00000000000E+00 -0.00000000000E+00 -0.10085140758E+03  0.10085140758E+03  0.00000000000E+00 0.  1.
         25    2    1    2    0    0 -0.74126784137E+02 -0.54498649635E+02  0.57660767409E+02  0.16564141229E+03  0.12508968954E+03 0.  0.
          5    1    3    3  502    0 -0.62303486741E+02 -0.91221490094E+02  0.21537395268E+02  0.11262511492E+03  0.41800000000E+01 0. -1.
         -5    1    3    3    0  502 -0.11823297396E+02  0.36722840460E+02  0.36123372142E+02  0.53016297378E+02  0.41800000000E+01 0. -1.
        -11    1    1    2    0    0  0.17168671827E+02 -0.16898475003E+02  0.52285928619E+02  0.57568568518E+02  0.00000000000E+00 0. -1.
         11    1    1    2    0    0  0.56958112311E+02  0.71397124638E+02  0.29411363264E+01  0.91380666705E+02  0.00000000000E+00 0.  1.
</event>
<event>
 7    1  0.2651429E-009  0.9840300E+02  0.7561462E-02  0.1283691E+00
         -2   -1    0    0    0  501 -0.00000000000E+00  0.00000000000E+00  0.22820416394E+02  0.22820416394E+02  0.00000000000E+00 0.  1.
          2   -1    0    0  501    0  0.00000000000E+00 -0.00000000000E+00 -0.78860896473E+03  0.78860896473E+03  0.00000000000E+00 0. -1.
         25    2    1    2    0    0 -0.72911523349E+01  0.77100939225E+02 -0.48060676963E+03  0.50262090828E+03  0.12508874727E+03 0.  0.
          5    1    3    3  502    0  0.25375612881E+02  0.21595870761E+02 -0.23518631167E+02  0.40998802117E+02  0.41800000000E+01 0.  1.
         -5    1    3    3    0  502 -0.32666765216E+02  0.55505068464E+02 -0.45708813846E+03  0.46162210616E+03  0.41800000000E+01 0.  1.
        -11    1    1    2    0    0  0.33579925459E+02 -0.31468334332E+02 -0.22121922838E+03  0.22595533733E+03  0.00000000000E+00 0. -1.
         11    1    1    2    0    0 -0.26288773124E+02 -0.45632604893E+02 -0.63962550325E+02  0.82853135522E+02  0.00000000000E+00 0.  1.
</event>
<event>
 7    1  0.2651429E-009  0.1278306E+03  0.7561462E-02  0.1230711E+00
          1   -1    0    0  501    0  0.00000000000E+00  0.00000000000E+00  0.43681109361E+03  0.43681109361E+03  0.00000000000E+00 0. -1.
         -1   -1    0    0    0  501 -0.00000000000E+00 -0.00000000000E+00 -0.44750172228E+02  0.44750172228E+02  0.00000000000E+00 0.  1.
         25    2    1    2    0    0  0.65522930896E+02  0.51277470303E+02  0.27708128616E+03  0.31519042362E+03  0.12509328745E+03 0.  0.
          5    1    3    3  502    0  0.31849093173E+02  0.91563225452E+02  0.16666883552E+03  0.19285788064E+03  0.41800000000E+01 0. -1.
         -5    1    3    3    0  502  0.33673837723E+02 -0.40285755149E+02  0.11041245064E+03  0.12233254298E+03  0.41800000000E+01 0. -1.
        -11    1    1    2    0    0 -0.73092413499E+02 -0.22915993225E+02  0.41224901278E+02  0.86989287513E+02  0.00000000000E+00 0.  1.
         11    1    1    2    0    0  0.75694826033E+01 -0.28361477078E+02  0.73754733936E+02  0.79381554702E+02  0.00000000000E+00 0. -1.
</event>
<event>
 7    1  0.2651429E-009  0.2482245E+03  0.7561462E-02  0.1114432E+00
          2   -1    0    0  501    0  0.00000000000E+00  0.00000000000E+00  0.12506787852E+04  0.12506787852E+04  0.00000000000E+00 0. -1.
         -2   -1    0    0    0  501 -0.00000000000E+00 -0.00000000000E+00 -0.57733059435E+02  0.57733059435E+02  0.00000000000E+00 0.  1.
         25    2    1    2    0    0  0.23089452822E+03 -0.61441787470E+02  0.74712483774E+03  0.79430779928E+03  0.12506790325E+03 0.  0.
          5    1    3    3  502    0  0.45400703147E+02  0.11884486166E+02  0.31311156378E+03  0.31663668239E+03  0.41800000000E+01 0. -1.
         -5    1    3    3    0  502  0.18549382508E+03 -0.73326273637E+02  0.43401327395E+03  0.47767111689E+03  0.41800000000E+01 0. -1.
        -11    1    1    2    0    0 -0.93344440253E+02 -0.11642008911E+02  0.11595551273E+03  0.14931309999E+03  0.00000000000E+00 0.  1.
         11    1    1    2    0    0 -0.13755008797E+03  0.73083796381E+02  0.32986537528E+03  0.36479094534E+03  0.00000000000E+00 0. -1.
</event>
<event>
 7    1  0.2651429E-009  0.9764960E+02  0.7561462E-02  0.1285318E+00
          2   -1    0    0  501    0  0.00000000000E+00  0.00000000000E+00  0.55531256314E+03  0.55531256314E+03  0.00000000000E+00 0. -1.
         -2   -1    0    0    0  501 -0.00000000000E+00 -0.00000000000E+00 -0.18440736163E+02  0.18440736163E+02  0.00000000000E+00 0.  1.
         25    2    1    2    0    0 -0.37240144530E+01  0.13085573446E+02  0.31259247804E+03  0.33696687696E+03  0.12509004087E+03 0.  0.
          5    1    3    3  502    0  0.50305309064E+02 -0.26835497762E+02  0.11928989552E+03  0.13228121421E+03  0.41800000000E+01 0.  1.
         -5    1    3    3    0  502 -0.54029323517E+02  0.39921071208E+02  0.19330258252E+03  0.20468566275E+03  0.41800000000E+01 0.  1.
        -11    1    1    2    0    0 -0.12773694730E+02  0.25686236911E+02  0.13565899208E+03  0.13865897799E+03  0.00000000000E+00 0. -1.
         11    1    1    2    0    0  0.16497709183E+02 -0.38771810357E+02  0.88620356857E+02  0.98127444357E+02  0.00000000000E+00 0.  1.
</event>
<event>
 7    1  0.2651429E-009  0.1099485E+03  0.7561462E-02  0.1260665E+00
          2   -1    0    0  501    0  0.00000000000E+00  0.00000000000E+00  0.21276172888E+02  0.21276172888E+02  0.00000000000E+00 0.  1.
         -2   -1    0    0    0  501 -0.00000000000E+00 -0.00000000000E+00 -0.58995157417E+03  0.58995157417E+03  0.00000000000E+00 0. -1.
         25    2    1    2    0    0  0.21086714391E+02 -0.18917247387E+02 -0.35950223845E+03  0.38169576702E+03  0.12508911757E+03 0.  0.
          5    1    3    3  502    0 -0.30169915942E+01  0.52094889485E+02 -0.12711394747E+03  0.13747147991E+03  0.41800000000E+01 0. -1.
         -5    1    3    3    0  502  0.24103705985E+02 -0.71012136872E+02 -0.23238829099E+03  0.24422428711E+03  0.41800000000E+01 0. -1.
        -11    1    1    2    0    0  0.24231515437E+02  0.36515919737E+02 -0.12324089950E+03  0.13080098641E+03  0.00000000000E+00 0. -1.
         11    1    1    2    0    0 -0.45318229828E+02 -0.17598672350E+02 -0.85932263322E+02  0.98730993629E+02  0.00000000000E+00 0.  1.
</event>
<event>
 6    1  0.2651429E-009  0.1858044E+03  0.7561462E-02  0.1162301E+00
         -2   -1    0    0    0  501 -0.00000000000E+00  0.00000000000E+00  0.10013537236E+03  0.10013537236E+03  0.00000000000E+00 0. -1.
          2   -1    0    0  501    0  0.00000000000E+00 -0.00000000000E+00 -0.39623285870E+03  0.39623285870E+03  0.00000000000E+00 0.  1.
          5    1    1    2  502    0 -0.63404229803E+02 -0.10307457803E+03 -0.83646006603E+02  0.14716858297E+03  0.41800000000E+01 0. -1.
         -5    1    1    2    0  502 -0.67403038116E+02  0.17056196669E+02  0.68962763028E+00  0.69656524305E+02  0.41800000000E+01 0. -1.
        -11    1    1    2    0    0 -0.44816805110E+01  0.36543942915E+02 -0.42611030668E+02  0.56313809661E+02  0.00000000000E+00 0. -1.
         11    1    1    2    0    0  0.13528894843E+03  0.49474438443E+02 -0.17053007670E+03  0.22322931412E+03  0.00000000000E+00 0.  1.
</event>
<event>
 7    1  0.2651429E-009  0.9480653E+02  0.7561462E-02  0.1291612E+00
         -1   -1    0    0    0  501 -0.00000000000E+00  0.00000000000E+00  0.14566406622E+03  0.14566406622E+03  0.00000000000E+00 0.  1.
          1   -1    0    0  501    0  0.00000000000E+00 -0.00000000000E+00 -0.85472716612E+02  0.85472716612E+02  0.00000000000E+00 0. -1.
         25    2    1    2    0    0  0.22472614667E+02  0.12320808389E+02  0.18943926069E+02  0.12908292725E+03  0.12508680604E+03 0.  0.
          5    1    3    3  502    0  0.73928757742E+02  0.24927375319E+01  0.19173790764E+02  0.76529612660E+02  0.41800000000E+01 0. -1.
         -5    1    3    3    0  502 -0.51456143076E+02  0.98280708567E+01 -0.22986469463E+00  0.52553314593E+02  0.41800000000E+01 0. -1.
        -11    1    1    2    0    0  0.87479013725E+01  0.17646671969E+02 -0.19336511888E+02  0.27601295296E+02  0.00000000000E+00 0. -1.
         11    1    1    2    0    0 -0.31220516039E+02 -0.29967480358E+02  0.60583935426E+02  0.74452560281E+02  0.00000000000E+00 0.  1.
</event>
<event>
 7    1  0.2651429E-009  0.1268908E+03  0.7561462E-02  0.1232144E+00
          3   -1    0    0  501    0  0.00000000000E+00  0.00000000000E+00  0.18469001196E+02  0.18469001196E+02  0.00000000000E+00 0. -1.
         -3   -1    0    0    0  501 -0.00000000000E+00 -0.00000000000E+00 -0.96165219311E+03  0.96165219311E+03  0.00000000000E+00 0.  1.
         25    2    1    2    0    0  0.27202278848E+02 -0.69543171824E+02 -0.56932202720E+03  0.58766593481E+03  0.12508982199E+03 0.  0.
          5    1    3    3  502    0  0.31523724385E+01  0.32256406500E+02 -0.23708039005E+03  0.23932195252E+03  0.41800000000E+01 0.  1.
         -5    1    3    3    0  502  0.24049906409E+02 -0.10179957832E+03 -0.33224163715E+03  0.34834398230E+03  0.41800000000E+01 0.  1.
        -11    1    1    2    0    0 -0.44351238215E+02 -0.45082832487E+00 -0.18678875157E+03  0.19198248173E+03  0.00000000000E+00 0.  1.
         11    1    1    2    0    0  0.17148959367E+02  0.69994000149E+02 -0.18707241314E+03  0.20047277776E+03  0.00000000000E+00 0. -1.
</event>
<event>
 7    1  0.2651429E-009  0.1416076E+03  0.7561462E-02  0.1211182E+00
         -1   -1    0    0    0  501 -0.00000000000E+00  0.00000000000E+00  0.25412133831E+02  0.25412133831E+02  0.00000000000E+00 0.  1.
          1   -1    0    0  501    0  0.00000000000E+00 -0.00000000000E+00 -0.95718422161E+03  0.95718422161E+03  0.00000000000E+00 0. -1.
         25    2    1    2    0    0 -0.24428535056E+02  0.10649907530E+03 -0.56172775682E+03  0.58576804291E+03  0.12508925192E+03 0.  0.
          5    1    3    3  502    0 -0.57570700124E+02  0.68343102254E+02 -0.18337644515E+03  0.20403322811E+03  0.41800000000E+01 0.  1.
         -5    1    3    3    0  502  0.33142165069E+02  0.38155973045E+02 -0.37835131167E+03  0.38173481479E+03  0.41800000000E+01 0.  1.
        -11    1    1    2    0    0 -0.35054101789E+02 -0.49552207039E+02 -0.16920730639E+03  0.17976463448E+03  0.00000000000E+00 0.  1.
         11    1    1    2    0    0  0.59482636845E+02 -0.56946868260E+02 -0.20083702458E+03  0.21706367806E+03  0.00000000000E+00 0. -1.
</event>
<event>
 7    1  0.2651429E-009  0.8839271E+02  0.7561462E-02  0.1306791E+00
         -1   -1    0    0    0  501 -0.00000000000E+00  0.00000000000E+00  0.29635139766E+02  0.29635139766E+02  0.00000000000E+00 0.  1.
          1   -1    0    0  501    0  0.00000000000E+00 -0.00000000000E+00 -0.48888720277E+03  0.48888720277E+03  0.00000000000E+00 0. -1.
         25    2    1    2    0    0 -0.34110145059E+02 -0.16530292234E+02 -0.18859782258E+03  0.22946314740E+03  0.12508974688E+03 0.  0.
          5    1    3    3  502    0  0.17497704707E+02 -0.23784865869E+02  0.38227533269E+01  0.30066182954E+02  0.41800000000E+01 0. -1.
         -5    1    3    3    0  502 -0.51607849766E+02  0.72545736349E+01 -0.19242057591E+03  0.19939696444E+03  0.41800000000E+01 0. -1.
        -11    1    1    2    0    0  0.35728883834E+02 -0.30891182158E+02 -0.18712609238E+03  0.19299479974E+03  0.00000000000E+00 0. -1.
         11    1    1    2    0    0 -0.16187387745E+01  0.47421474393E+02 -0.83528148040E+02  0.96064395401E+02  0.00000000000E+00 0.  1.
</event>
<event>
 7    1  0.2651429E-009  0.1215510E+03  0.7561462E-02  0.1240560E+00
          2   -1    0    0  501    0  0.00000000000E+00  0.00000000000E+00  0.18743092132E+03  0.18743092132E+03  0.00000000000E+00 0. -1.
         -2   -1    0    0    0  501 -0.00000000000E+00 -0.00000000000E+00 -0.14020512822E+03  0.14020512822E+03  0.00000000000E+00 0.  1.
         25    2    1    2    0    0  0.92527404246E+02 -0.46488566944E+02  0.85943622225E+02  0.18372773677E+03  0.12508823951E+03 0.  0.
          5    1    3    3  502    0  0.71725076023E+02 -0.16101635443E+02 -0.15920849155E+02  0.75330571697E+02  0.41800000000E+01 0. -1.
         -5    1    3    3    0  502  0.20802328223E+02 -0.30386931501E+02  0.10186447138E+03  0.10839716507E+03  0.41800000000E+01 0. -1.
        -11    1    1    2    0    0  0.15713178031E+02  0.49589921055E+01  0.87223876988E+01  0.18643379889E+02  0.00000000000E+00 0.  1.
         11    1    1    2    0    0 -0.10824058228E+03  0.41529574839E+02 -0.47440216825E+02  0.12526493288E+03  0.00000000000E+00 0. -1.
</event>
<event>
 7    1  0.2651429E-009  0.3333715E+03  0.7561462E-02  0.1069655E+00
         -2   -1    0    0    0  501 -0.00000000000E+00  0.00000000000E+00  0.26759250512E+03  0.26759250512E+03  0.00000000000E+00 0. -1.
          2   -1    0    0  501    0  0.00000000000E+00 -0.00000000000E+00 -0.48061373494E+03  0.48061373494E+03  0.00000000000E+00 0.  1.
         25    2    1    2    0    0  0.90262095612E+02  0.30914966097E+03 -0.22703572699E+03  0.41341622780E+03  0.12508795825E+03 0.  0.
          5    1    3    3  502    0  0.12087439004E+03  0.24592652358E+03 -0.16710920177E+03  0.32098820989E+03  0.41800000000E+01 0. -1.
         -5    1    3    3    0  502 -0.30612294428E+02  0.63223137383E+02 -0.59926525218E+02  0.92428017914E+02  0.41800000000E+01 0. -1.
        -11    1    1    2    0    0 -0.37233953346E+02 -0.15056050752E+03 -0.37969378989E+02  0.15967625824E+03  0.00000000000E+00 0.  1.
         11    1    1    2    0    0 -0.53028142266E+02 -0.15858915345E+03  0.51983876159E+02  0.17511375401E+03  0.00000000000E+00 0. -1.
</event>
<event>
 7    1  0.2651429E-009  0.1113756E+03  0.7561462E-02  0.1258043E+00
         -1   -1    0    0    0  501 -0.00000000000E+00  0.00000000000E+00  0.69525878758E+02  0.69525878758E+02  0.00000000000E+00 0.  1.
          1   -1    0    0  501    0  0.00000000000E+00 -0.00000000000E+00 -0.20187668191E+03  0.20187668191E+03  0.00000000000E+00 0. -1.
         25    2    1    2    0    0  0.48417359609E+02 -0.27423717568E+02 -0.55530305820E+02  0.14774092944E+03  0.12508983320E+03 0.  0.
          5    1    3    3  502    0 -0.41757226571E+02  0.15526706812E+01 -0.19734377077E+02  0.46400374953E+02  0.41800000000E+01 0. -1.
         -5    1    3    3    0  502  0.90174586180E+02 -0.28976388249E+02 -0.35795928743E+02  0.10134055448E+03  0.41800000000E+01 0. -1.
        -11    1    1    2    0    0 -0.11131254119E+02  0.43823626666E+02 -0.68515620716E+02  0.82090226913E+02  0.00000000000E+00 0. -1.
         11    1    1    2    0    0 -0.37286105490E+02 -0.16399909098E+02 -0.83048766119E+01  0.41571404313E+02  0.00000000000E+00 0.  1.
</event>
<event>
 7    1  0.2651429E-009  0.1421213E+03  0.7561462E-02  0.1210503E+00
         -1   -1    0    0    0  501 -0.00000000000E+00  0.00000000000E+00  0.51685394862E+02  0.51685394862E+02  0.00000000000E+00 0.  1.
          1   -1    0    0  501    0  0.00000000000E+00 -0.00000000000E+00 -0.41191946006E+03  0.41191946006E+03  0.00000000000E+00 0. -1.
         25    2    1    2    0    0 -0.84213118123E+02 -0.47054211973E+02 -0.20567303158E+03  0.25933678998E+03  0.12509287185E+03 0.  0.
          5    1    3    3  502    0 -0.11181571730E+03 -0.20828719842E+02 -0.11946750045E+03  0.16500468560E+03  0.41800000000E+01 0. -1.
         -5    1    3    3    0  502  0.27602599179E+02 -0.26225492131E+02 -0.86205531135E+02  0.94332104382E+02  0.41800000000E+01 0. -1.
        -11    1    1    2    0    0  0.66401010142E+02  0.74252270463E+02 -0.10280724861E+03  0.14314965660E+03  0.00000000000E+00 0.  1.
         11    1    1    2    0    0  0.17812107981E+02 -0.27198058490E+02 -0.51753785004E+02  0.61118408345E+02  0.00000000000E+00 0. -1.
</event>
<event>
 7    1  0.2911842E-009  0.1298724E+03  0.7561462E-02  0.1227645E+00
          2   -1    0    0  501    0  0.00000000000E+00  0.00000000000E+00  0.35308078068E+03  0.35308078068E+03  0.00000000000E+00 0. -1.
         -2   -1    0    0    0  501 -0.00000000000E+00 -0.00000000000E+00 -0.10666412843E+03  0.10666412843E+03  0.00000000000E+00 0.  1.
         25    2    1    2    0    0  0.31429319152E+02  0.10932643554E+03 -0.50586056430E+01  0.16915460006E+03  0.12509043776E+03 0.  0.
          5    1    3    3  502    0 -0.23032205667E+01  0.62016822760E+02  0.56765284747E+02  0.84209032073E+02  0.41800000000E+01 0.  1.
         -5    1    3    3    0  502  0.33732539719E+02  0.47309612782E+02 -0.61823890390E+02  0.84945567986E+02  0.41800000000E+01 0.  1.
        -11    1    1    2    0    0  0.22453747834E+02 -0.67326986708E+02  0.17027031706E+03  0.18446971243E+03  0.00000000000E+00 0. -1.
         11    1    1    2    0    0 -0.53883066987E+02 -0.41999448835E+02  0.81204940830E+02  0.10612059661E+03  0.00000000000E+00 0.  1.
</event>
<event>
 7    1  0.2651429E-009  0.1126499E+03  0.7561462E-02  0.1255740E+00
         -1   -1    0    0    0  501 -0.00000000000E+00  0.00000000000E+00  0.16872952574E+03  0.16872952574E+03  0.00000000000E+00 0.  1.
          1   -1    0    0  501    0  0.00000000000E+00 -0.00000000000E+00 -0.13255316841E+03  0.13255316841E+03  0.00000000000E+00 0. -1.
         25    2    1    2    0    0 -0.64813929310E+02 -0.79064402367E+02  0.88125027368E+01  0.16179997693E+03  0.12509815017E+03 0.  0.
          5    1    3    3  502    0 -0.65047904925E+02 -0.77465172209E+02 -0.42856186904E+02  0.10993729120E+03  0.41800000000E+01 0.  1.
         -5    1    3    3    0  502  0.23397561496E+00 -0.15992301577E+01  0.51668689641E+02  0.51862685728E+02  0.41800000000E+01 0.  1.
        -11    1    1    2    0    0  0.61048892526E+02  0.25958033708E+02  0.48525125844E+02  0.82191694415E+02  0.00000000000E+00 0.  1.
         11    1    1    2    0    0  0.37650367836E+01  0.53106368659E+02 -0.21161271248E+02  0.57291022813E+02  0.00000000000E+00 0. -1.
</event>
<event>
 6    1  0.2651429E-009  0.1189353E+03  0.7561462E-02  0.1244864E+00
         -2   -1    0    0    0  501 -0.00000000000E+00  0.00000000000E+00  0.49970303606E+02  0.49970303606E+02  0.00000000000E+00 0.  1.
          2   -1    0    0  501    0  0.00000000000E+00 -0.00000000000E+00 -0.30803449492E+03  0.30803449492E+03  0.00000000000E+00 0. -1.
          5    1    1    2  502    0 -0.85890757766E+02 -0.10553667687E-01 -0.57734479603E+02  0.10357588965E+03  0.41800000000E+01 0. -1.
         -5    1    1    2    0  502  0.35916856174E+02  0.15176134548E+02 -0.82803474885E+02  0.91619994926E+02  0.41800000000E+01 0. -1.
        -11    1    1    2    0    0 -0.16909988580E+02  0.28249772340E+02 -0.33600481096E+02  0.47042424267E+02  0.00000000000E+00 0.  1.
         11    1    1    2    0    0  0.66883890172E+02 -0.43415353220E+02 -0.83925755729E+02  0.11576648969E+03  0.00000000000E+00 0. -1.
</event>
<event>
 7    1  0.2651429E-009  0.7977459E+02  0.7561462E-02  0.1329692E+00
          1   -1    0    0  501    0  0.00000000000E+00  0.00000000000E+00  0.77452416772E+02  0.77452416772E+02  0.00000000000E+00 0. -1.
         -1   -1    0    0    0  501 -0.00000000000E+00 -0.00000000000E+00 -0.18241787522E+03  0.18241787522E+03  0.00000000000E+00 0.  1.
         25    2    1    2    0    0 -0.22819155938E+02 -0.30066795711E+02 -0.94829047958E+02  0.16144672053E+03  0.12509104344E+03 0.  0.
          5    1    3    3  502    0 -0.20349862777E+02  0.14615002145E+02  0.23664349061E+02  0.34715832400E+02  0.41800000000E+01 0. -1.
         -5    1    3    3    0  502 -0.24692931610E+01 -0.44681797856E+02 -0.11849339702E+03  0.12673088813E+03  0.41800000000E+01 0. -1.
        -11    1    1    2    0    0 -0.49231843564E+01 -0.26099461856E+02  0.15482963524E+02  0.30743158798E+02  0.00000000000E+00 0. -1.
         11    1    1    2    0    0  0.27742340294E+02  0.56166257567E+02 -0.25619374016E+02  0.67680412669E+02  0.00000000000E+00 0.  1.
</event>
<event>
 7    1  0.2651429E-009  0.9071509E+02  0.7561462E-02  0.1301129E+00
          3   -1    0    0  501    0  0.00000000000E+00  0.00000000000E+00  0.29291179385E+02  0.29291179385E+02  0.00000000000E+00 0. -1.
         -3   -1    0    0    0  501 -0.00000000000E+00 -0.00000000000E+00 -0.46023602549E+03  0.46023602549E+03  0.00000000000E+00 0.  1.
         25    2    1    2    0    0  0.37816380911E+02 -0.89345206170E+00 -0.28256251606E+03  0.31131928576E+03  0.12508894947E+03 0.  0.
          5    1    3    3  502    0 -0.16178970980E+02 -0.45497710564E+02 -0.55604046250E+02  0.73763697900E+02  0.41800000000E+01 0. -1.
         -5    1    3    3    0  502  0.53995351892E+02  0.44604258502E+02 -0.22695846981E+03  0.23755558786E+03  0.41800000000E+01 0. -1.
        -11    1    1    2    0    0 -0.50116247652E+01  0.22805991990E+02  0.13272054485E+01  0.23387841451E+02  0.00000000000E+00 0. -1.
         11    1    1    2    0    0 -0.32804756146E+02 -0.21912539928E+02 -0.14970953549E+03  0.15482007767E+03  0.00000000000E+00 0.  1.
</event>
<event>
 7    1  0.2651429E-009  0.1934061E+03  0.7561462E-02  0.1155425E+00
          2   -1    0    0  501    0  0.00000000000E+00  0.00000000000E+00  0.27010772966E+04  0.27010772966E+04  0.00000000000E+00 0. -1.
         -2   -1    0    0    0  501 -0.00000000000E+00 -0.00000000000E+00 -0.49275844813E+02  0.49275844813E+02  0.00000000000E+00 0.  1.
         25    2    1    2    0    0  0.18065838705E+03 -0.26863438880E+02  0.24598232723E+04  0.24697644228E+04  0.12508667312E+03 0.  0.
          5    1    3    3  502    0  0.11784640054E+03 -0.60589412610E+02  0.20039987292E+04  0.20083792546E+04  0.41800000000E+01 0.  1.
         -5    1    3    3    0  502  0.62811986509E+02  0.33725973730E+02  0.45582454309E+03  0.46138516821E+03  0.41800000000E+01 0.  1.
        -11    1    1    2    0    0 -0.92214983099E+02  0.17759718598E+02  0.35076255100E+02  0.10024646819E+03  0.00000000000E+00 0.  1.
         11    1    1    2    0    0 -0.88443403948E+02  0.91037202826E+01  0.15690192432E+03  0.18034225040E+03  0.00000000000E+00 0. -1.
</event>
<event>
 7    1  0.2651429E-009  0.2064146E+03  0.7561462E-02  0.1144437E+00
         -3   -1    0    0    0  501 -0.00000000000E+00  0.00000000000E+00  0.32137923408E+03  0.32137923408E+03  0.00000000000E+00 0.  1.
          3   -1    0    0  501    0  0.00000000000E+00 -0.00000000000E+00 -0.19535679410E+03  0.19535679410E+03  0.00000000000E+00 0. -1.
         25    2    1    2    0    0 -0.16933783822E+03  0.10026673959E+03  0.17891590904E+03  0.29391465025E+03  0.12508475767E+03 0.  0.
          5    1    3    3  502    0 -0.10559446756E+03  0.55333428771E+02  0.25822064321E+02  0.12205011809E+03  0.41800000000E+01 0.  1.
         -5    1    3    3    0  502 -0.63743370661E+02  0.44933310822E+02  0.15309384472E+03  0.17186453216E+03  0.41800000000E+01 0.  1.
        -11    1    1    2    0    0  0.56777434608E+02  0.10250325763E+02 -0.23816449284E+02  0.62417701940E+02  0.00000000000E+00 0. -1.
         11    1    1    2    0    0  0.11256040361E+03 -0.11051706536E+03 -0.29077019774E+02  0.16040367600E+03  0.00000000000E+00 0.  1.
</event>
<event>
 7    1  0.2651429E-009  0.1083725E+03  0.7561462E-02  0.1263614E+00
         -3   -1    0    0    0  501 -0.00000000000E+00  0.00000000000E+00  0.41761898759E+02  0.41761898759E+02  0.00000000000E+00 0.  1.
          3   -1    0    0  501    0  0.00000000000E+00 -0.00000000000E+00 -0.53708046491E+03  0.53708046491E+03  0.00000000000E+00 0. -1.
         25    2    1    2    0    0 -0.37110889901E+01 -0.12932038574E+02 -0.46635734158E+03  0.48303137558E+03  0.12509648255E+03 0.  0.
          5    1    3    3  502    0  0.21896197818E+02 -0.64228999025E+02 -0.23477707689E+03  0.24442290406E+03  0.41800000000E+01 0.  1.
         -5    1    3    3    0  502 -0.25607286808E+02  0.51296960450E+02 -0.23158026469E+03  0.23860847152E+03  0.41800000000E+01 0.  1.
        -11    1    1    2    0    0 -0.29226220737E+02 -0.26806458143E+02 -0.10909457802E+02  0.41131185812E+02  0.00000000000E+00 0.  1.
         11    1    1    2    0    0  0.32937309728E+02  0.39738496718E+02 -0.18051766769E+02  0.54679802276E+02  0.00000000000E+00 0. -1.
</event>
<event>
 7    1  0.2651429E-009  0.1352845E+03  0.7561462E-02  0.1219819E+00
          1   -1    0    0  501    0  0.00000000000E+00  0.00000000000E+00  0.30030907387E+03  0.30030907387E+03  0.00000000000E+00 0. -1.
         -1   -1    0    0    0  501 -0.00000000000E+00 -0.00000000000E+00 -0.68773149079E+02  0.68773149079E+02  0.00000000000E+00 0.  1.
         25    2    1    2    0    0  0.30076750322E+02  0.86946250360E+02  0.10827618619E+03  0.18927241681E+03  0.12504420782E+03 0.  0.
          5    1    3    3  502    0  0.25844169621E+02  0.11554602480E+03  0.10761362100E+03  0.16005301864E+03  0.41800000000E+01 0.  1.
         -5    1    3    3    0  502  0.42325807014E+01 -0.28599774436E+02  0.66256518383E+00  0.29219398177E+02  0.41800000000E+01 0.  1.
        -11    1    1    2    0    0  0.15522403097E+02 -0.73815873870E+02  0.10428335692E+03  0.12870410546E+03  0.00000000000E+00 0. -1.
         11    1    1    2    0    0 -0.45599153419E+02 -0.13130376490E+02  0.18976381690E+02  0.51105700674E+02  0.00000000000E+00 0.  1.
</event>
<event>
 7    1  0.2651429E-009  0.7487406E+02  0.7561462E-02  0.1344261E+00
         -2   -1    0    0    0  501 -0.00000000000E+00  0.00000000000E+00  0.23173085741E+03  0.23173085741E+03  0.00000000000E+00 0.  1.
          2   -1    0    0  501    0  0.00000000000E+00 -0.00000000000E+00 -0.51923441991E+02  0.51923441991E+02  0.00000000000E+00 0. -1.
         25    2    1    2    0    0 -0.20818803084E+02  0.10991734890E+02  0.10014929439E+03  0.16196234860E+03  0.12509068869E+03 0.  0.
          5    1    3    3  502    0 -0.43427763642E+02  0.46523086131E+02  0.10120728292E+03  0.11962756670E+03  0.41800000000E+01 0. -1.
         -5    1    3    3    0  502  0.22608960558E+02 -0.35531351241E+02 -0.10579885315E+01  0.42334781897E+02  0.41800000000E+01 0. -1.
        -11    1    1    2    0    0 -0.72411552240E+01  0.71955670197E+01 -0.16768818975E+02  0.19631704041E+02  0.00000000000E+00 0. -1.
         11    1    1    2    0    0  0.28059958308E+02 -0.18187301910E+02  0.96426940009E+02  0.10206024677E+03  0.00000000000E+00 0.  1.
</event>
<event>
 7    1  0.2651429E-009  0.1116036E+03  0.7561462E-02  0.1257629E+00
          2   -1    0    0  501    0  0.00000000000E+00  0.00000000000E+00  0.44485852562E+03  0.44485852562E+03  0.00000000000E+00 0. -1.
         -2   -1    0    0    0  501 -0.00000000000E+00 -0.00000000000E+00 -0.41743207840E+02  0.41743207840E+02  0.00000000000E+00 0.  1.
         25    2    1    2    0    0 -0.66722655557E+02 -0.48257453153E+02  0.23225599855E+03  0.27635206903E+03  0.12508765985E+03 0.  0.
          5    1    3    3  502    0 -0.48559670023E+02  0.61456220567E+00  0.21621668942E+03  0.22164283977E+03  0.41800000000E+01 0. -1.
         -5    1    3    3    0  502 -0.18162985534E+02 -0.48872015359E+02  0.16039309130E+02  0.54709229259E+02  0.41800000000E+01 0. -1.
        -11    1    1    2    0    0  0.63259672537E+02 -0.97860770238E+01  0.97602311821E+02  0.11672088393E+03  0.00000000000E+00 0.  1.
         11    1    1    2    0    0  0.34629830208E+01  0.58043530177E+02  0.73257007415E+02  0.93528780502E+02  0.00000000000E+00 0. -1.
</event>
<event>
 7    1  0.2651429E-009  0.9942698E+02  0.7561462E-02  0.1281506E+00
          2   -1    0    0  501    0  0.00000000000E+00  0.00000000000E+00  0.45711984987E+02  0.45711984987E+02  0.00000000000E+00 0. -1.
         -2   -1    0    0    0  501 -0.00000000000E+00 -0.00000000000E+00 -0.28741534377E+03  0.28741534377E+03  0.00000000000E+00 0.  1.
         25    2    1    2    0    0  0.40035238179E+02 -0.76219868851E+01 -0.15368213452E+03  0.20230248424E+03  0.12508869525E+03 0.  0.
          5    1    3    3  502    0  0.48668920963E+02 -0.46123023278E+02 -0.14758770477E+03  0.16215918149E+03  0.41800000000E+01 0. -1.
         -5    1    3    3    0  502 -0.86336827848E+01  0.38501036393E+02 -0.60944297569E+01  0.40143302752E+02  0.41800000000E+01 0. -1.
        -11    1    1    2    0    0 -0.53865721262E+02 -0.22863804180E+02 -0.35198642972E+02  0.68287729027E+02  0.00000000000E+00 0. -1.
         11    1    1    2    0    0  0.13830483083E+02  0.30485791065E+02 -0.52822581285E+02  0.62537115482E+02  0.00000000000E+00 0.  1.
</event>
<event>
 7    1  0.2651429E-009  0.1872238E+03  0.7561462E-02  0.1160989E+00
          3   -1    0    0  501    0  0.00000000000E+00  0.00000000000E+00  0.14063838727E+03  0.14063838727E+03  0.00000000000E+00 0. -1.
         -3   -1    0    0    0  501 -0.00000000000E+00 -0.00000000000E+00 -0.80110231839E+03  0.80110231839E+03  0.00000000000E+00 0.  1.
         25    2    1    2    0    0  0.29254398853E+02 -0.17125316175E+03 -0.71062284582E+03  0.74216995489E+03  0.12509175705E+03 0.  0.
          5    1    3    3  502    0 -0.19336990917E+02 -0.17988646927E+02 -0.29972436641E+03  0.30091473686E+03  0.41800000000E+01 0.  1.
         -5    1    3    3    0  502  0.48591389770E+02 -0.15326451483E+03 -0.41089847940E+03  0.44125521803E+03  0.41800000000E+01 0.  1.
        -11    1    1    2    0    0 -0.51407472966E+02  0.10305700509E+03  0.59229377339E+01  0.11531936423E+03  0.00000000000E+00 0.  1.
         11    1    1    2    0    0  0.22153074113E+02  0.68196156657E+02  0.44235976969E+02  0.84251386540E+02  0.00000000000E+00 0. -1.
</event>
<event>
 7    1  0.2651429E-009  0.1458235E+03  0.7561462E-02  0.1205701E+00
          2   -1    0    0  501    0  0.00000000000E+00  0.00000000000E+00  0.52432006723E+03  0.52432006723E+03  0.00000000000E+00 0. -1.
         -2   -1    0    0    0  501 -0.00000000000E+00 -0.00000000000E+00 -0.54072656837E+02  0.54072656837E+02  0.00000000000E+00 0.  1.
         25    2    1    2    0    0  0.30536701249E+01  0.11466850823E+03  0.15057425509E+03  0.22688980051E+03  0.12509270002E+03 0.  0.
          5    1    3    3  502    0 -0.28250139764E+02  0.12509823077E+03  0.14419989698E+03  0.19302518081E+03  0.41800000000E+01 0. -1.
         -5    1    3    3    0  502  0.31303809889E+02 -0.10429722539E+02  0.63743581099E+01  0.33864619696E+02  0.41800000000E+01 0. -1.
        -11    1    1    2    0    0  0.24955852970E+02 -0.22021000760E+02  0.25830363301E+02  0.42129879423E+02  0.00000000000E+00 0.  1.
         11    1    1    2    0    0 -0.28009523095E+02 -0.92647507474E+02  0.29384279200E+03  0.30937304413E+03  0.00000000000E+00 0. -1.
</event>
<event>
 7    1  0.2651429E-009  0.9077425E+02  0.7561462E-02  0.1300987E+00
         -1   -1    0    0    0  501 -0.00000000000E+00  0.00000000000E+00  0.75903920727E+02  0.75903920727E+02  0.00000000000E+00 0.  1.
          1   -1    0    0  501    0  0.00000000000E+00 -0.00000000000E+00 -0.20346936588E+03  0.20346936588E+03  0.00000000000E+00 0. -1.
         25    2    1    2    0    0  0.46255485537E+02  0.29849363804E+02 -0.44930699779E+02  0.14386484389E+03  0.12509105109E+03 0.  0.
          5    1    3    3  502    0  0.73743971532E+01  0.33987272377E+02  0.38244964704E+02  0.51861991306E+02  0.41800000000E+01 0. -1.
         -5    1    3    3    0  502  0.38881088384E+02 -0.41379085728E+01 -0.83175664483E+02  0.92002852583E+02  0.41800000000E+01 0. -1.
        -11    1    1    2    0    0  0.77415435069E+01  0.27416170035E+02 -0.18379643298E+02  0.33902642419E+02  0.00000000000E+00 0. -1.
         11    1    1    2    0    0 -0.53997029044E+02 -0.57265533839E+02 -0.64255102071E+02  0.10160580029E+03  0.00000000000E+00 0.  1.
</event>
<event>
 7    1  0.2651429E-009  0.7402992E+02  0.7561462E-02  0.1346902E+00
          2   -1    0    0  501    0  0.00000000000E+00  0.00000000000E+00  0.16854865666E+03  0.16854865666E+03  0.00000000000E+00 0.  1.
         -2   -1    0    0    0  501 -0.00000000000E+00 -0.00000000000E+00 -0.10258739649E+03  0.10258739649E+03  0.00000000000E+00 0. -1.
         25    2    1    2    0    0 -0.13440553875E+02  0.37770019984E+02 -0.26987026097E+02  0.13410101183E+03  0.12509020304E+03 0.  0.
          5    1    3    3  502    0 -0.19729561786E+02  0.44649277520E+02 -0.72474577066E+02  0.87480571055E+02  0.41800000000E+01 0. -1.
         -5    1    3    3    0  502  0.62890079109E+01 -0.68792575361E+01  0.45487550969E+02  0.46620440773E+02  0.41800000000E+01 0. -1.
        -11    1    1    2    0    0 -0.26047677493E+02 -0.41702055072E+02  0.82431280708E+02  0.95981555203E+02  0.00000000000E+00 0.  1.
         11    1    1    2    0    0  0.39488231368E+02  0.39320350882E+01  0.10517005567E+02  0.41053486120E+02  0.00000000000E+00 0. -1.
</event>
<event>
 7    1  0.2651429E-009  0.9817845E+02  0.7561462E-02  0.1284174E+00
         -2   -1    0    0    0  501 -0.00000000000E+00  0.00000000000E+00  0.32286003123E+03  0.32286003123E+03  0.00000000000E+00 0. -1.
          2   -1    0    0  501    0  0.00000000000E+00 -0.00000000000E+00 -0.63003621017E+02  0.63003621017E+02  0.00000000000E+00 0.  1.
         25    2    1    2    0    0  0.36729074121E+02  0.83842503684E+02  0.15387148025E+03  0.21841119702E+03  0.12509367785E+03 0.  0.
          5    1    3    3  502    0  0.15318780333E+02  0.77692649784E+02  0.17199239991E+03  0.18939290084E+03  0.41800000000E+01 0. -1.
         -5    1    3    3    0  502  0.21410293788E+02  0.61498539004E+01 -0.18120919669E+02  0.29018296173E+02  0.41800000000E+01 0. -1.
        -11    1    1    2    0    0 -0.26190308649E+02 -0.31335848715E+02 -0.79069047628E+01  0.41597918515E+02  0.00000000000E+00 0.  1.
         11    1    1    2    0    0 -0.10538765472E+02 -0.52506654969E+02  0.11389183473E+03  0.12585453672E+03  0.00000000000E+00 0. -1.
</event>
<event>
 7    1  0.2651429E-009  0.1175975E+03  0.7561462E-02  0.1247114E+00
         -2   -1    0    0    0  501 -0.00000000000E+00  0.00000000000E+00  0.49145867689E+02  0.49145867689E+02  0.00000000000E+00 0.  1.
          2   -1    0    0  501    0  0.00000000000E+00 -0.00000000000E+00 -0.45585111768E+03  0.45585111768E+03  0.00000000000E+00 0. -1.
         25    2    1    2    0    0 -0.60021448663E+02  0.78491295110E+02 -0.17126484283E+03  0.23397336922E+03  0.12509369851E+03 0.  0.
          5    1    3    3  502    0 -0.23686294252E+02  0.47784911813E+02 -0.17789040037E+03  0.18576034365E+03  0.41800000000E+01 0. -1.
         -5    1    3    3    0  502 -0.36335154411E+02  0.30706383296E+02  0.66255575388E+01  0.48213025562E+02  0.41800000000E+01 0. -1.
        -11    1    1    2    0    0  0.29411195896E+02  0.16789105668E+02 -0.67694376995E+02  0.75692940159E+02  0.00000000000E+00 0. -1.
         11    1    1    2    0    0  0.30610252767E+02 -0.95280400777E+02 -0.16774603017E+03  0.19533067599E+03  0.00000000000E+00 0.  1.
</event>
<event>
 7    1  0.2651429E-009  0.1301379E+03  0.7561462E-02  0.1227251E+00
         -1   -1    0    0    0  501 -0.00000000000E+00  0.00000000000E+00  0.53987853001E+03  0.53987853001E+03  0.00000000000E+00 0.  1.
          1   -1    0    0  501    0  0.00000000000E+00 -0.00000000000E+00 -0.39301357056E+02  0.39301357056E+02  0.00000000000E+00 0. -1.
         25    2    1    2    0    0  0.71524695510E+01  0.90169087277E+02  0.35100493293E+03  0.38344884774E+03  0.12508770433E+03 0.  0.
          5    1    3    3  502    0  0.38446233173E+02 -0.94407963959E+01  0.44930259840E+02  0.60028677573E+02  0.41800000000E+01 0. -1.
         -5    1    3    3    0  502 -0.31293763622E+02  0.99609883673E+02  0.30607467309E+03  0.32342017017E+03  0.41800000000E+01 0. -1.
        -11    1    1    2    0    0  0.32879311761E+02 -0.39203325627E+02  0.10580900515E+03  0.11753082767E+03  0.00000000000E+00 0.  1.
         11    1    1    2    0    0 -0.40031781312E+02 -0.50965761650E+02  0.43763234876E+02  0.78200211652E+02  0.00000000000E+00 0. -1.
</event>
<event>
 7    1  0.2651429E-009  0.2006027E+03  0.7561462E-02  0.1149232E+00
         -2   -1    0    0    0  501 -0.00000000000E+00  0.00000000000E+00  0.46176753533E+02  0.46176753533E+02  0.00000000000E+00 0.  1.
          2   -1    0    0  501    0  0.00000000000E+00 -0.00000000000E+00 -0.10423531930E+04  0.10423531930E+04  0.00000000000E+00 0. -1.
         25    2    1    2    0    0 -0.11285153873E+03 -0.15102014245E+03 -0.46042113946E+03  0.51300764937E+03  0.12508664769E+03 0.  0.
          5    1    3    3  502    0 -0.41097227046E+02 -0.15587965055E+02 -0.24290369685E+03  0.24688386960E+03  0.41800000000E+01 0. -1.
         -5    1    3    3    0  502 -0.71754311689E+02 -0.13543217739E+03 -0.21751744261E+03  0.26612377977E+03  0.41800000000E+01 0. -1.
        -11    1    1    2    0    0  0.54146091097E+02  0.15938912461E+02 -0.21967427868E+03  0.22680969297E+03  0.00000000000E+00 0. -1.
         11    1    1    2    0    0  0.58705447638E+02  0.13508122999E+03 -0.31608102129E+03  0.34871260415E+03  0.00000000000E+00 0.  1.
</event>
<event>
 7    1  0.2651429E-009  0.1154142E+03  0.7561462E-02  0.1250860E+00
          1   -1    0    0  501    0  0.00000000000E+00  0.00000000000E+00  0.41418183446E+03  0.41418183446E+03  0.00000000000E+00 0. -1.
         -1   -1    0    0    0  501 -0.00000000000E+00 -0.00000000000E+00 -0.41123178877E+02  0.41123178877E+02  0.00000000000E+00 0.  1.
         25    2    1    2    0    0 -0.30961571489E+02  0.32053391108E+02  0.30358985218E+03  0.33136037321E+03  0.12508740864E+03 0.  0.
          5    1    3    3  502    0 -0.50120072956E+02  0.72254161515E+02  0.19821374501E+03  0.21688440857E+03  0.41800000000E+01 0.  1.
         -5    1    3    3    0  502  0.19158501467E+02 -0.40200770407E+02  0.10537610717E+03  0.11447596464E+03  0.41800000000E+01 0.  1.
        -11    1    1    2    0    0 -0.16245655340E+02  0.21323966206E+02  0.38615259951E+01  0.27084021769E+02  0.00000000000E+00 0.  1.
         11    1    1    2    0    0  0.47207226829E+02 -0.53377357315E+02  0.65607277415E+02  0.96860618357E+02  0.00000000000E+00 0. -1.
</event>
<event>
 7    1  0.2651429E-009  0.1076276E+03  0.7561462E-02  0.1265027E+00
         -2   -1    0    0    0  501 -0.00000000000E+00  0.00000000000E+00  0.21914844304E+02  0.21914844304E+02  0.00000000000E+00 0. -1.
          2   -1    0    0  501    0  0.00000000000E+00 -0.00000000000E+00 -0.60548931050E+03  0.60548931050E+03  0.00000000000E+00 0.  1.
         25    2    1    2    0    0  0.33838979944E+02 -0.20037894327E+02 -0.32872297834E+03  0.35390949794E+03  0.12508614021E+03 0.  0.
          5    1    3    3  502    0  0.41989989970E+01 -0.68405224998E+02 -0.12763128706E+03  0.14492799673E+03  0.41800000000E+01 0. -1.
         -5    1    3    3    0  502  0.29639980947E+02  0.48367330671E+02 -0.20109169127E+03  0.20898150121E+03  0.41800000000E+01 0. -1.
        -11    1    1    2    0    0  0.12301816352E+01 -0.29220518595E+02 -0.14670558867E+03  0.14959238550E+03  0.00000000000E+00 0.  1.
         11    1    1    2    0    0 -0.35069161579E+02  0.49258412922E+02 -0.10814589919E+03  0.12390227137E+03  0.00000000000E+00 0. -1.
</event>
<event>
 7    1  0.2651429E-009  0.1902058E+03  0.7561462E-02  0.1158276E+00
          2   -1    0    0  501    0  0.00000000000E+00  0.00000000000E+00  0.23319399178E+03  0.23319399178E+03  0.00000000000E+00 0. -1.
         -2   -1    0    0    0  501 -0.00000000000E+00 -0.00000000000E+00 -0.16118911704E+03  0.16118911704E+03  0.00000000000E+00 0.  1.
         25    2    1    2    0    0  0.15196834006E+03 -0.46477696110E+02  0.17188542115E+02  0.20297325506E+03  0.12509254044E+03 0.  0.
          5    1    3    3  502    0  0.10804693770E+03  0.31507201396E+02  0.81825888923E+01  0.11292152872E+03  0.41800000000E+01 0. -1.
         -5    1    3    3    0  502  0.43921402354E+02 -0.77984897507E+02  0.90059532228E+01  0.90051726343E+02  0.41800000000E+01 0. -1.
        -11    1    1    2    0    0 -0.12617381108E+03  0.13194532911E+01  0.17471889864E+02  0.12738460855E+03  0.00000000000E+00 0.  1.
         11    1    1    2    0    0 -0.25794528972E+02  0.45158242819E+02  0.37344442755E+02  0.64025245209E+02  0.00000000000E+00 0. -1.
</event>
<event>
 7    1  0.2651429E-009  0.7849422E+02  0.7561462E-02  0.1333380E+00
         -1   -1    0    0    0  501 -0.00000000000E+00  0.00000000000E+00  0.98530442152E+01  0.98530442152E+01  0.00000000000E+00 0.  1.
          1   -1    0    0  501    0  0.00000000000E+00 -0.00000000000E+00 -0.13458872330E+04  0.13458872330E+04  0.00000000000E+00 0. -1.
         25    2    1    2    0    0 -0.22293406987E+02 -0.19990567484E+01 -0.96158551328E+03  0.96994539043E+03  0.12508544623E+03 0.  0.
          5    1    3    3  502    0 -0.13609805037E+02  0.30936809524E+02 -0.71475087666E+02  0.79173692180E+02  0.41800000000E+01 0. -1.
         -5    1    3    3    0  502 -0.86836019509E+01 -0.32935866273E+02 -0.89011042561E+03  0.89077169825E+03  0.41800000000E+01 0. -1.
        -11    1    1    2    0    0  0.78798118294E+01 -0.41784448397E+02 -0.12264406308E+03  0.12980600052E+03  0.00000000000E+00 0.  1.
         11    1    1    2    0    0  0.14413595158E+02  0.43783505145E+02 -0.25180461239E+03  0.25598888622E+03  0.00000000000E+00 0. -1.
</event>
<event>
 7    1  0.2651429E-009  0.1149115E+03  0.7561462E-02  0.1251736E+00
          3   -1    0    0  501    0  0.00000000000E+00  0.00000000000E+00  0.20607301530E+02  0.20607301530E+02  0.00000000000E+00 0. -1.
         -3   -1    0    0    0  501 -0.00000000000E+00 -0.00000000000E+00 -0.71945144638E+03  0.71945144638E+03  0.00000000000E+00 0.  1.
         25    2    1    2    0    0  0.93994146362E+01 -0.45638514524E+02 -0.31220865720E+03  0.33954962426E+03  0.12509387954E+03 0.  0.
          5    1    3    3  502    0  0.66820437166E+02 -0.21977028716E+02 -0.14738062981E+03  0.16335997998E+03  0.41800000000E+01 0. -1.
         -5    1    3    3    0  502 -0.57421022530E+02 -0.23661485808E+02 -0.16482802739E+03  0.17618964428E+03  0.41800000000E+01 0. -1.
        -11    1    1    2    0    0 -0.47124004251E+02  0.32157229005E+02 -0.29550709224E+03  0.30096378639E+03  0.00000000000E+00 0.  1.
         11    1    1    2    0    0  0.37724589614E+02  0.13481285519E+02 -0.91128395406E+02  0.99545337259E+02  0.00000000000E+00 0. -1.
</event>
<event>
 7    1  0.2651429E-009  0.1142365E+03  0.7561462E-02  0.1252920E+00
          2   -1    0    0  501    0  0.00000000000E+00  0.00000000000E+00  0.42814119255E+03  0.42814119255E+03  0.00000000000E+00 0. -1.
         -2   -1    0    0    0  501 -0.00000000000E+00 -0.00000000000E+00 -0.33262438119E+02  0.33262438119E+02  0.00000000000E+00 0.  1.
         25    2    1    2    0    0 -0.39450915972E+02  0.15781503098E+02  0.27609431468E+03  0.30607817094E+03  0.12510134100E+03 0.  0.
          5    1    3    3  502    0 -0.82391424916E+02  0.20568434735E+02  0.14622957949E+03  0.16915073078E+03  0.41800000000E+01 0.  1.
         -5    1    3    3    0  502  0.42940508944E+02 -0.47869316369E+01  0.12986473519E+03  0.13692744016E+03  0.41800000000E+01 0.  1.
        -11    1    1    2    0    0  0.11253383352E+02 -0.52529969663E+02  0.65953599551E+02  0.85064173678E+02  0.00000000000E+00 0. -1.
         11    1    1    2    0    0  0.28197532619E+02  0.36748466565E+02  0.52830840200E+02  0.70261286046E+02  0.00000000000E+00 0.  1.
</event>
<event>
 7    1  0.2651429E-009  0.1043593E+03  0.7561462E-02  0.1271387E+00
          1   -1    0    0  501    0  0.00000000000E+00  0.00000000000E+00  0.54995688897E+03  0.54995688897E+03  0.00000000000E+00 0. -1.
         -1   -1    0    0    0  501 -0.00000000000E+00 -0.00000000000E+00 -0.26926723234E+02  0.26926723234E+02  0.00000000000E+00 0.  1.
         25    2    1    2    0    0  0.24371727083E+02  0.43306564945E+02  0.23302495369E+03  0.26909918076E+03  0.12507717775E+03 0.  0.
          5    1    3    3  502    0 -0.37320030479E+02  0.15945975191E+02  0.17593946771E+03  0.18060793863E+03  0.41800000000E+01 0. -1.
         -5    1    3    3    0  502  0.61691757562E+02  0.27360589754E+02  0.57085485980E+02  0.88491242122E+02  0.41800000000E+01 0. -1.
        -11    1    1    2    0    0 -0.14827179137E+01  0.26653427645E+02  0.49140073181E+02  0.55922718549E+02  0.00000000000E+00 0.  1.
         11    1    1    2    0    0 -0.22889009169E+02 -0.69959992590E+02  0.24086513886E+03  0.25186171290E+03  0.00000000000E+00 0. -1.
</event>
<event>
 7    1  0.2651429E-009  0.2036187E+03  0.7561462E-02  0.1146721E+00
         -2   -1    0    0    0  501 -0.00000000000E+00  0.00000000000E+00  0.13102737558E+03  0.13102737558E+03  0.00000000000E+00 0.  1.
          2   -1    0    0  501    0  0.00000000000E+00 -0.00000000000E+00 -0.35958105805E+03  0.35958105805E+03  0.00000000000E+00 0. -1.
         25    2    1    2    0    0  0.11633181293E+03 -0.14610039817E+03 -0.14432160414E+03  0.26712036399E+03  0.12508455696E+03 0.  0.
          5    1    3    3  502    0  0.38288363794E+02 -0.46256235811E+01 -0.87641010809E+02  0.95842654236E+02  0.41800000000E+01 0.  1.
         -5    1    3    3    0  502  0.78043449133E+02 -0.14147477459E+03 -0.56680593334E+02  0.17127770975E+03  0.41800000000E+01 0.  1.
        -11    1    1    2    0    0 -0.20480981250E+02  0.96969157282E+02 -0.45141775531E+02  0.10890485735E+03  0.00000000000E+00 0.  1.
         11    1    1    2    0    0 -0.95850831678E+02  0.49131240886E+02 -0.39090302796E+02  0.11458321228E+03  0.00000000000E+00 0. -1.
</event>
<event>
 7    1  0.2651429E-009  0.8895521E+02  0.7561462E-02  0.1305402E+00
         -2   -1    0    0    0  501 -0.00000000000E+00  0.00000000000E+00  0.35818900702E+03  0.35818900702E+03  0.00000000000E+00 0. -1.
          2   -1    0    0  501    0  0.00000000000E+00 -0.00000000000E+00 -0.68713051227E+02  0.68713051227E+02  0.00000000000E+00 0.  1.
         25    2    1    2    0    0  0.18458430774E+02 -0.44706634038E+02  0.16086200846E+02  0.13507317942E+03  0.12508637475E+03 0.  0.
          5    1    3    3  502    0  0.40177167930E+02 -0.34609489238E+02  0.62867081645E+02  0.82351465821E+02  0.41800000000E+01 0. -1.
         -5    1    3    3    0  502 -0.21718737156E+02 -0.10097144799E+02 -0.46780880799E+02  0.52721713602E+02  0.41800000000E+01 0. -1.
        -11    1    1    2    0    0 -0.49345421565E+02  0.42826912326E+01  0.16132255399E+03  0.16875508437E+03  0.00000000000E+00 0. -1.
         11    1    1    2    0    0  0.30886990792E+02  0.40423942805E+02  0.11206720096E+03  0.12307379446E+03  0.00000000000E+00 0.  1.
</event>
<event>
 7    1  0.2651429E-009  0.6773304E+02  0.7561462E-02  0.1367976E+00
          2   -1    0    0  501    0  0.00000000000E+00  0.00000000000E+00  0.29243255930E+03  0.29243255930E+03  0.00000000000E+00 0.  1.
         -2   -1    0    0    0  501 -0.00000000000E+00 -0.00000000000E+00 -0.65365287902E+02  0.65365287902E+02  0.00000000000E+00 0. -1.
         25    2    1    2    0    0  0.38418945829E+01 -0.65833843669E+01  0.14400324703E+02  0.12613970965E+03  0.12508299603E+03 0.  0.
          5    1    3    3  502    0  0.74828949582E+01 -0.30936606304E+02 -0.48670269621E+02  0.58303815240E+02  0.41800000000E+01 0. -1.
         -5    1    3    3    0  502 -0.36410003752E+01  0.24353221938E+02  0.63070594324E+02  0.67835894414E+02  0.41800000000E+01 0. -1.
        -11    1    1    2    0    0  0.17943605905E+02  0.36914050766E+02  0.17032753608E+03  0.17520299565E+03  0.00000000000E+00 0.  1.
         11    1    1    2    0    0 -0.21785500488E+02 -0.30330666399E+02  0.42339410607E+02  0.56455141894E+02  0.00000000000E+00 0. -1.
</event>
<event>
 7    1  0.2651429E-009  0.1074184E+03  0.7561462E-02  0.1265427E+00
          2   -1    0    0  501    0  0.00000000000E+00  0.00000000000E+00  0.24249930079E+03  0.24249930079E+03  0.00000000000E+00 0. -1.
         -2   -1    0    0    0  501 -0.00000000000E+00 -0.00000000000E+00 -0.63785779425E+02  0.63785779425E+02  0.00000000000E+00 0.  1.
         25    2    1    2    0    0 -0.29997048942E+02 -0.42453573245E+02  0.14061340622E+03  0.19524860471E+03  0.12509100210E+03 0.  0.
          5    1    3    3  502    0 -0.66717389043E+02 -0.35001026964E+02  0.35137186052E+02  0.83236867630E+02  0.41800000000E+01 0.  1.
         -5    1    3    3    0  502  0.36720340101E+02 -0.74525462809E+01  0.10547622016E+03  0.11201173708E+03  0.41800000000E+01 0.  1.
        -11    1    1    2    0    0 -0.15945573690E+02 -0.19092705360E+02  0.20521019878E+02  0.32247557661E+02  0.00000000000E+00 0. -1.
         11    1    1    2    0    0  0.45942622632E+02  0.61546278605E+02  0.17579095269E+02  0.78788917843E+02  0.00000000000E+00 0.  1.
</event>
<event>
 7    1  0.2651429E-009  0.1115828E+03  0.7561462E-02  0.1257666E+00
          2   -1    0    0  501    0  0.00000000000E+00  0.00000000000E+00  0.10437775162E+03  0.10437775162E+03  0.00000000000E+00 0. -1.
         -2   -1    0    0    0  501 -0.00000000000E+00 -0.00000000000E+00 -0.13220173861E+03  0.13220173861E+03  0.00000000000E+00 0.  1.
         25    2    1    2    0    0  0.26954252114E+02 -0.96127034831E+01  0.20581051508E+02  0.12996178875E+03  0.12509017179E+03 0.  0.
          5    1    3    3  502    0  0.31268986773E+02  0.54953716367E+02  0.74645366292E+01  0.63803230196E+02  0.41800000000E+01 0.  1.
         -5    1    3    3    0  502 -0.43147346590E+01 -0.64566419850E+02  0.13116514879E+02  0.66158558554E+02  0.41800000000E+01 0.  1.
        -11    1    1    2    0    0  0.11686293792E+02  0.42584763612E+02 -0.24073331130E+02  0.50294699782E+02  0.00000000000E+00 0.  1.
         11    1    1    2    0    0 -0.38640545906E+02 -0.32972060129E+02 -0.24331707373E+02  0.56323001702E+02  0.00000000000E+00 0. -1.
</event>
<event>
 7    1  0.2651429E-009  0.6570214E+02  0.7561462E-02  0.1375350E+00
         -2   -1    0    0    0  501 -0.00000000000E+00  0.00000000000E+00  0.69735451166E+02  0.69735451166E+02  0.00000000000E+00 0.  1.
          2   -1    0    0  501    0  0.00000000000E+00 -0.00000000000E+00 -0.19283165428E+03  0.19283165428E+03  0.00000000000E+00 0. -1.
         25    2    1    2    0    0  0.80527514030E+01  0.15934232283E+02 -0.11281161701E+03  0.16938742560E+03  0.12508753917E+03 0.  0.
          5    1    3    3  502    0 -0.11510032323E+02  0.50844332782E+02 -0.29404850941E+01  0.52380777703E+02  0.41800000000E+01 0. -1.
         -5    1    3    3    0  502  0.19562783726E+02 -0.34910100499E+02 -0.10987113192E+03  0.11700664790E+03  0.41800000000E+01 0. -1.
        -11    1    1    2    0    0  0.13688350700E+02 -0.54460704498E+01 -0.46991736997E+02  0.49246867659E+02  0.00000000000E+00 0. -1.
         11    1    1    2    0    0 -0.21741102103E+02 -0.10488161833E+02  0.36707150896E+02  0.43932812182E+02  0.00000000000E+00 0.  1.
</event>
<event>
 7    1  0.2651429E-009  0.7621753E+02  0.7561462E-02  0.1340142E+00
          3   -1    0    0  501    0  0.00000000000E+00  0.00000000000E+00  0.33626408259E+03  0.33626408259E+03  0.00000000000E+00 0. -1.
         -3   -1    0    0    0  501 -0.00000000000E+00 -0.00000000000E+00 -0.36594227286E+02  0.36594227286E+02  0.00000000000E+00 0.  1.
         25    2    1    2    0    0  0.20998807800E+02  0.21336494126E+01  0.18600569223E+03  0.22513377899E+03  0.12506637642E+03 0.  0.
          5    1    3    3  502    0 -0.76490237867E+01 -0.19969912649E+02  0.18741956693E+03  0.18868193195E+03  0.41800000000E+01 0.  1.
         -5    1    3    3    0  502  0.28647831586E+02  0.22103562062E+02 -0.14138747064E+01  0.36451847033E+02  0.41800000000E+01 0.  1.
        -11    1    1    2    0    0 -0.12370861811E+01  0.44008252083E+02  0.57053916624E+02  0.72065290091E+02  0.00000000000E+00 0.  1.
         11    1    1    2    0    0 -0.19761721618E+02 -0.46141901496E+02  0.56610246455E+02  0.75659240802E+02  0.00000000000E+00 0. -1.
</event>
<event>
 7    1  0.2651429E-009  0.2793504E+03  0.7561462E-02  0.1096044E+00
          3   -1    0    0  501    0  0.00000000000E+00  0.00000000000E+00  0.20910269086E+04  0.20910269086E+04  0.00000000000E+00 0. -1.
         -3   -1    0    0    0  501 -0.00000000000E+00 -0.00000000000E+00 -0.38915159551E+02  0.38915159551E+02  0.00000000000E+00 0.  1.
         25    2    1    2    0    0  0.10144555790E+03  0.24268716846E+03  0.99930004934E+03  0.10408822603E+04  0.12508808175E+03 0.  0.
          5    1    3    3  502    0  0.11742631274E+03  0.23911503897E+03  0.97828251130E+03  0.10139127601E+04  0.41800000000E+01 0. -1.
         -5    1    3    3    0  502 -0.15980754840E+02  0.35721294846E+01  0.21017538039E+02  0.26969500172E+02  0.41800000000E+01 0. -1.
        -11    1    1    2    0    0 -0.16966954538E+02 -0.14599472543E+03  0.64398768038E+03  0.66054709891E+03  0.00000000000E+00 0.  1.
         11    1    1    2    0    0 -0.84478603357E+02 -0.96692443023E+02  0.40882401936E+03  0.42851270899E+03  0.00000000000E+00 0. -1.
</event>
<event>
 7    1  0.2651429E-009  0.1292204E+03  0.7561462E-02  0.1228617E+00
         -3   -1    0    0    0  501 -0.00000000000E+00  0.00000000000E+00  0.40438877610E+02  0.40438877610E+02  0.00000000000E+00 0.  1.
          3   -1    0    0  501    0  0.00000000000E+00 -0.00000000000E+00 -0.47557197583E+03  0.47557197583E+03  0.00000000000E+00 0. -1.
         25    2    1    2    0    0 -0.69884726175E+02  0.33267495863E+02 -0.30414363166E+03  0.33784891308E+03  0.12509171898E+03 0.  0.
          5    1    3    3  502    0 -0.10605520219E+03  0.30348747028E+02 -0.22108850191E+03  0.24711606673E+03  0.41800000000E+01 0.  1.
         -5    1    3    3    0  502  0.36170476015E+02  0.29187488346E+01 -0.83055129752E+02  0.90732846357E+02  0.41800000000E+01 0.  1.
        -11    1    1    2    0    0  0.76470978020E+02  0.11499556871E+01 -0.54148662059E+02  0.93708113204E+02  0.00000000000E+00 0.  1.
         11    1    1    2    0    0 -0.65862518448E+01 -0.34417451550E+02 -0.76840804495E+02  0.84453827148E+02  0.00000000000E+00 0. -1.
</event>
<event>
 7    1  0.2651429E-009  0.1084813E+03  0.7561462E-02  0.1263408E+00
          2   -1    0    0  501    0  0.00000000000E+00  0.00000000000E+00  0.20813409302E+03  0.20813409302E+03  0.00000000000E+00 0. -1.
         -2   -1    0    0    0  501 -0.00000000000E+00 -0.00000000000E+00 -0.96711777150E+02  0.96711777150E+02  0.00000000000E+00 0.  1.
         25    2    1    2    0    0 -0.81323811351E+02  0.33371019883E+02  0.76674199274E+02  0.17103704943E+03  0.12509017620E+03 0.  0.
          5    1    3    3  502    0 -0.15751824905E+02  0.82183519013E+01  0.96285334208E+02  0.97999996324E+02  0.41800000000E+01 0. -1.
         -5    1    3    3    0  502 -0.65571986445E+02  0.25152667982E+02 -0.19611134934E+02  0.73037053106E+02  0.41800000000E+01 0. -1.
        -11    1    1    2    0    0  0.47878096952E+02  0.30140992443E+02  0.76793070377E+01  0.57094337283E+02  0.00000000000E+00 0. -1.
         11    1    1    2    0    0  0.33445714399E+02 -0.63512012326E+02  0.27068809557E+02  0.76714483457E+02  0.00000000000E+00 0.  1.
</event>
<event>
 7    1  0.2651429E-009  0.2876612E+03  0.7561462E-02  0.1091577E+00
          2   -1    0    0  501    0  0.00000000000E+00  0.00000000000E+00  0.20555783741E+04  0.20555783741E+04  0.00000000000E+00 0. -1.
         -2   -1    0    0    0  501 -0.00000000000E+00 -0.00000000000E+00 -0.42650261467E+02  0.42650261467E+02  0.00000000000E+00 0.  1.
         25    2    1    2    0    0 -0.54254663003E+02 -0.26707023102E+03  0.91366509367E+03  0.96161345899E+03  0.12508582801E+03 0.  0.
          5    1    3    3  502    0 -0.17544201420E+02  0.97957517349E+01  0.60027435697E+02  0.63439114054E+02  0.41800000000E+01 0. -1.
         -5    1    3    3    0  502 -0.36710461583E+02 -0.27686598276E+03  0.85363765797E+03  0.89817434494E+03  0.41800000000E+01 0. -1.
        -11    1    1    2    0    0  0.55376482014E+02  0.17831493131E+03  0.88879254159E+03  0.90819323466E+03  0.00000000000E+00 0.  1.
         11    1    1    2    0    0 -0.11218190115E+01  0.88755299711E+02  0.21047047742E+03  0.22842194196E+03  0.00000000000E+00 0. -1.
</event>
<event>
 7    1  0.2651429E-009  0.8668081E+02  0.7561462E-02  0.1311095E+00
         -2   -1    0    0    0  501 -0.00000000000E+00  0.00000000000E+00  0.33853618896E+03  0.33853618896E+03  0.00000000000E+00 0.  1.
          2   -1    0    0  501    0  0.00000000000E+00 -0.00000000000E+00 -0.57146213203E+02  0.57146213203E+02  0.00000000000E+00 0. -1.
         25    2    1    2    0    0 -0.31813392178E+02 -0.29666812260E+02  0.26167927414E+03  0.29327380046E+03  0.12506505446E+03 0.  0.
          5    1    3    3  502    0  0.11553753744E+02  0.18238327772E+02 -0.16949159505E+01  0.22056086815E+02  0.41800000000E+01 0. -1.
         -5    1    3    3    0  502 -0.43367145921E+02 -0.47905140032E+02  0.26337419009E+03  0.27121771364E+03  0.41800000000E+01 0. -1.
        -11    1    1    2    0    0  0.55453046755E+02  0.11089622736E+02 -0.12951628664E+02  0.58015211900E+02  0.00000000000E+00 0. -1.
         11    1    1    2    0    0 -0.23639654577E+02  0.18577189524E+02  0.32662330281E+02  0.44393389807E+02  0.00000000000E+00 0.  1.
</event>
<event>
 7    1  0.2651429E-009  0.9118023E+02  0.7561462E-02  0.1300019E+00
         -1   -1    0    0    0  501 -0.00000000000E+00  0.00000000000E+00  0.26262469245E+02  0.26262469245E+02  0.00000000000E+00 0.  1.
          1   -1    0    0  501    0  0.00000000000E+00 -0.00000000000E+00 -0.12591094326E+04  0.12591094326E+04  0.00000000000E+00 0. -1.
         25    2    1    2    0    0 -0.60664807466E+01 -0.68893675276E+02 -0.11097258059E+04  0.11188935647E+04  0.12509318128E+03 0.  0.
          5    1    3    3  502    0 -0.43276705674E+01 -0.11100013349E+02 -0.92925207745E+03  0.92933784754E+03  0.41800000000E+01 0. -1.
         -5    1    3    3    0  502 -0.17388101793E+01 -0.57793661927E+02 -0.18047372848E+03  0.18955571712E+03  0.41800000000E+01 0. -1.
        -11    1    1    2    0    0 -0.21791313558E+02 -0.12922697219E+02 -0.33105889289E+02  0.41687616334E+02  0.00000000000E+00 0. -1.
         11    1    1    2    0    0  0.27857794305E+02  0.81816372495E+02 -0.90015268113E+02  0.12479072083E+03  0.00000000000E+00 0.  1.
</event>
<event>
 7    1  0.2651429E-009  0.2958739E+03  0.7561462E-02  0.1087322E+00
          2   -1    0    0  501    0  0.00000000000E+00  0.00000000000E+00  0.84099077502E+03  0.84099077502E+03  0.00000000000E+00 0. -1.
         -2   -1    0    0    0  501 -0.00000000000E+00 -0.00000000000E+00 -0.12050406830E+03  0.12050406830E+03  0.00000000000E+00 0.  1.
         25    2    1    2    0    0 -0.24153797439E+03 -0.14490916766E+03  0.51435509279E+03  0.59962283722E+03  0.12508847067E+03 0.  0.
          5    1    3    3  502    0 -0.17055675756E+03 -0.32796464502E+02  0.32241379464E+03  0.36624219174E+03  0.41800000000E+01 0. -1.
         -5    1    3    3    0  502 -0.70981216824E+02 -0.11211270316E+03  0.19194129815E+03  0.23338064548E+03  0.41800000000E+01 0. -1.
        -11    1    1    2    0    0  0.11473592407E+03  0.42821339487E+02  0.14041406227E+03  0.18631722484E+03  0.00000000000E+00 0.  1.
         11    1    1    2    0    0  0.12680205032E+03  0.10208782817E+03  0.65717551659E+02  0.17555478125E+03  0.00000000000E+00 0. -1.
</event>
<event>
 7    1  0.2651429E-009  0.1148187E+03  0.7561462E-02  0.1251898E+00
         -3   -1    0    0    0  501 -0.00000000000E+00  0.00000000000E+00  0.95326260250E+02  0.95326260250E+02  0.00000000000E+00 0.  1.
          3   -1    0    0  501    0  0.00000000000E+00 -0.00000000000E+00 -0.17240477024E+03  0.17240477024E+03  0.00000000000E+00 0. -1.
         25    2    1    2    0    0  0.59019557158E+02  0.77923146606E+01 -0.57128968501E+01  0.13864765637E+03  0.12508599895E+03 0.  0.
          5    1    3    3  502    0 -0.32808745989E+02  0.47305556343E+01 -0.28474881438E+02  0.43898556273E+02  0.41800000000E+01 0.  1.
         -5    1    3    3    0  502  0.91828303146E+02  0.30617590263E+01  0.22761984588E+02  0.94749100099E+02  0.41800000000E+01 0.  1.
        -11    1    1    2    0    0 -0.81378601110E+02 -0.32933277095E+01 -0.41219425843E+02  0.91281782371E+02  0.00000000000E+00 0. -1.
         11    1    1    2    0    0  0.22359043952E+02 -0.44989869511E+01 -0.30146187293E+02  0.37801591743E+02  0.00000000000E+00 0.  1.
</event>
<event>
 7    1  0.2651429E-009  0.9230651E+02  0.7561462E-02  0.1297360E+00
         -3   -1    0    0    0  501 -0.00000000000E+00  0.00000000000E+00  0.17591744509E+03  0.17591744509E+03  0.00000000000E+00 0.  1.
          3   -1    0    0  501    0  0.00000000000E+00 -0.00000000000E+00 -0.83073106253E+02  0.83073106253E+02  0.00000000000E+00 0. -1.
         25    2    1    2    0    0  0.23700522826E+02  0.30782396855E+02  0.10313738535E+02  0.13139343705E+03  0.12509432984E+03 0.  0.
          5    1    3    3  502    0 -0.29705921044E+01 -0.41894278564E+02 -0.21767123717E+02  0.47489315311E+02  0.41800000000E+01 0. -1.
         -5    1    3    3    0  502  0.26671114930E+02  0.72676675419E+02  0.32080862252E+02  0.83904121736E+02  0.41800000000E+01 0. -1.
        -11    1    1    2    0    0 -0.39566487676E+02 -0.28690743412E+02  0.95314578559E+02  0.10711458626E+03  0.00000000000E+00 0.  1.
         11    1    1    2    0    0  0.15865964850E+02 -0.20916534435E+01 -0.12783978253E+02  0.20482528036E+02  0.00000000000E+00 0. -1.
</event>
<event>
 7    1  0.2651429E-009  0.8803578E+02  0.7561462E-02  0.1307679E+00
          2   -1    0    0  501    0  0.00000000000E+00  0.00000000000E+00  0.13642900028E+04  0.13642900028E+04  0.00000000000E+00 0. -1.
         -2   -1    0    0    0  501 -0.00000000000E+00 -0.00000000000E+00 -0.10241715554E+02  0.10241715554E+02  0.00000000000E+00 0.  1.
         25    2    1    2    0    0 -0.40246163651E+02  0.29204017015E+01  0.88381221470E+03  0.89353211456E+03  0.12508927395E+03 0.  0.
          5    1    3    3  502    0 -0.23129747029E+02  0.32923877079E+02  0.81876398821E+03  0.81976271425E+03  0.41800000000E+01 0. -1.
         -5    1    3    3    0  502 -0.17116416622E+02 -0.30003475377E+02  0.65048226496E+02  0.73769400316E+02  0.41800000000E+01 0. -1.
        -11    1    1    2    0    0 -0.16271841776E+02  0.30926724635E+02  0.14414793449E+03  0.14832350504E+03  0.00000000000E+00 0. -1.
         11    1    1    2    0    0  0.56518005427E+02 -0.33847126337E+02  0.32608813802E+03  0.33267609872E+03  0.00000000000E+00 0.  1.
</event>
<event>
 7    1  0.2651429E-009  0.1669977E+03  0.7561462E-02  0.1181015E+00
         -2   -1    0    0    0  501 -0.00000000000E+00  0.00000000000E+00  0.47914959618E+02  0.47914959618E+02  0.00000000000E+00 0.  1.
          2   -1    0    0  501    0  0.00000000000E+00 -0.00000000000E+00 -0.68070602141E+03  0.68070602141E+03  0.00000000000E+00 0. -1.
         25    2    1    2    0    0 -0.13733349837E+03  0.36020652103E+02 -0.27314382791E+03  0.33228546992E+03  0.12509238843E+03 0.  0.
          5    1    3    3  502    0 -0.11157429857E+03 -0.31804863307E+02 -0.17908206069E+03  0.21342031368E+03  0.41800000000E+01 0. -1.
         -5    1    3    3    0  502 -0.25759199799E+02  0.67825515410E+02 -0.94061767222E+02  0.11886515624E+03  0.41800000000E+01 0. -1.
        -11    1    1    2    0    0  0.23309697277E+02 -0.18727670196E+02 -0.16126577087E+02  0.33972549310E+02  0.00000000000E+00 0.  1.
         11    1    1    2    0    0  0.11402380109E+03 -0.17292981907E+02 -0.34352065679E+03  0.36236296179E+03  0.00000000000E+00 0. -1.
</event>
<event>
 7    1  0.2651429E-009  0.1230905E+03  0.7561462E-02  0.1238084E+00
         -1   -1    0    0    0  501 -0.00000000000E+00  0.00000000000E+00  0.42068697936E+02  0.42068697936E+02  0.00000000000E+00 0. -1.
          1   -1    0    0  501    0  0.00000000000E+00 -0.00000000000E+00 -0.50846891531E+03  0.50846891531E+03  0.00000000000E+00 0.  1.
         25    2    1    2    0    0  0.22107353490E+02 -0.87374349889E+02 -0.18168395624E+03  0.23828368302E+03  0.12508813510E+03 0.  0.
          5    1    3    3  502    0  0.31053249677E+01  0.27646076134E+02 -0.83396324837E+01  0.29342297775E+02  0.41800000000E+01 0.  1.
         -5    1    3    3    0  502  0.19002028522E+02 -0.11502042602E+03 -0.17334432375E+03  0.20894138524E+03  0.41800000000E+01 0.  1.
        -11    1    1    2    0    0  0.10519741874E+02  0.52871135248E+02 -0.24343458983E+03  0.24933195029E+03  0.00000000000E+00 0.  1.
         11    1    1    2    0    0 -0.32627095363E+02  0.34503214642E+02 -0.41281671304E+02  0.62921979928E+02  0.00000000000E+00 0. -1.
</event>
<event>
 7    1  0.2651429E-009  0.1592294E+03  0.7561462E-02  0.1189569E+00
         -1   -1    0    0    0  501 -0.00000000000E+00  0.00000000000E+00  0.14112940781E+03  0.14112940781E+03  0.00000000000E+00 0.  1.
          1   -1    0    0  501    0  0.00000000000E+00 -0.00000000000E+00 -0.19275953778E+03  0.19275953778E+03  0.00000000000E+00 0. -1.
         25    2    1    2    0    0 -0.10899133541E+03 -0.50654412359E+02  0.27461967854E+01  0.17349158059E+03  0.12508719460E+03 0.  0.
          5    1    3    3  502    0  0.46153915684E+01 -0.57909801965E+02 -0.91470942902E+01  0.58957516374E+02  0.41800000000E+01 0. -1.
         -5    1    3    3    0  502 -0.11360672698E+03  0.72553896061E+01  0.11893291076E+02  0.11453406422E+03  0.41800000000E+01 0. -1.
        -11    1    1    2    0    0  0.12626806173E+02  0.48282916348E+02 -0.37760199918E+02  0.62582017729E+02  0.00000000000E+00 0. -1.
         11    1    1    2    0    0  0.96364529241E+02  0.23714960115E+01 -0.16616126837E+02  0.97815347263E+02  0.00000000000E+00 0.  1.
</event>
<event>
 7    1  0.2651429E-009  0.1343862E+03  0.7561462E-02  0.1221089E+00
         -1   -1    0    0    0  501 -0.00000000000E+00  0.00000000000E+00  0.67723977197E+02  0.67723977197E+02  0.00000000000E+00 0.  1.
          1   -1    0    0  501    0  0.00000000000E+00 -0.00000000000E+00 -0.45402191896E+03  0.45402191896E+03  0.00000000000E+00 0. -1.
         25    2    1    2    0    0 -0.89254676642E+02 -0.21944935516E+02 -0.35478673589E+03  0.38725773546E+03  0.12508776205E+03 0.  0.
          5    1    3    3  502    0 -0.25762637593E+02  0.51682994483E+02 -0.12989538486E+03  0.14221507945E+03  0.41800000000E+01 0. -1.
         -5    1    3    3    0  502 -0.63492039049E+02 -0.73627929999E+02 -0.22489135102E+03  0.24504265601E+03  0.41800000000E+01 0. -1.
        -11    1    1    2    0    0  0.35961777951E+02  0.43178776758E+02  0.17690199139E+02  0.58911793228E+02  0.00000000000E+00 0.  1.
         11    1    1    2    0    0  0.53292898691E+02 -0.21233841242E+02 -0.49201405019E+02  0.75576367475E+02  0.00000000000E+00 0. -1.
</event>
<event>
 7    1  0.2651429E-009  0.1324208E+03  0.7561462E-02  0.1223907E+00
         -2   -1    0    0    0  501 -0.00000000000E+00  0.00000000000E+00  0.24306657742E+02  0.24306657742E+02  0.00000000000E+00 0. -1.
          2   -1    0    0  501    0  0.00000000000E+00 -0.00000000000E+00 -0.94586624333E+03  0.94586624333E+03  0.00000000000E+00 0.  1.
         25    2    1    2    0    0 -0.64935329313E+02 -0.73380977214E+02 -0.39040547125E+03  0.42150355682E+03  0.12508977423E+03 0.  0.
          5    1    3    3  502    0 -0.13741087893E+02 -0.80261246319E+02 -0.33840385709E+03  0.34808810386E+03  0.41800000000E+01 0. -1.
         -5    1    3    3    0  502 -0.51194241420E+02  0.68802691053E+01 -0.52001614165E+02  0.73415452960E+02  0.41800000000E+01 0. -1.
        -11    1    1    2    0    0  0.73636651128E+02  0.18512842138E+02 -0.22364695736E+03  0.23618434167E+03  0.00000000000E+00 0.  1.
         11    1    1    2    0    0 -0.87013218147E+01  0.54868135076E+02 -0.30750715698E+03  0.31248500258E+03  0.00000000000E+00 0. -1.
</event>
<event>
 7    1  0.2651429E-009  0.2347016E+03  0.7561462E-02  0.1123374E+00
         -1   -1    0    0    0  501 -0.00000000000E+00  0.00000000000E+00  0.11062929746E+03  0.11062929746E+03  0.00000000000E+00 0. -1.
          1   -1    0    0  501    0  0.00000000000E+00 -0.00000000000E+00 -0.65673805638E+03  0.65673805638E+03  0.00000000000E+00 0.  1.
         25    2    1    2    0    0 -0.12449228811E+03 -0.19387371407E+03 -0.15747422280E+03  0.30582876007E+03  0.12509097822E+03 0.  0.
          5    1    3    3  502    0 -0.10251062154E+03 -0.10804610241E+03 -0.32368821074E+02  0.15247163917E+03  0.41800000000E+01 0.  1.
         -5    1    3    3    0  502 -0.21981666568E+02 -0.85827611665E+02 -0.12510540172E+03  0.15335712089E+03  0.41800000000E+01 0.  1.
        -11    1    1    2    0    0  0.22125068700E+02  0.19411578182E+02 -0.80104071905E+01  0.30504010488E+02  0.00000000000E+00 0. -1.
         11    1    1    2    0    0  0.10236721941E+03  0.17446213589E+03 -0.38062412893E+03  0.43103458329E+03  0.00000000000E+00 0.  1.
</event>
<event>
 7    1  0.2651429E-009  0.9292377E+02  0.7561462E-02  0.1295922E+00
         -2   -1    0    0    0  501 -0.00000000000E+00  0.00000000000E+00  0.53603563055E+02  0.53603563055E+02  0.00000000000E+00 0.  1.
          2   -1    0    0  501    0  0.00000000000E+00 -0.00000000000E+00 -0.24168105799E+03  0.24168105799E+03  0.00000000000E+00 0. -1.
         25    2    1    2    0    0  0.32140749245E+02  0.22350434931E+01 -0.11966781497E+03  0.17608473672E+03  0.12508966937E+03 0.  0.
          5    1    3    3  502    0  0.49855588882E+02  0.29258360977E+02 -0.65011702825E+01  0.58321257230E+02  0.41800000000E+01 0.  1.
         -5    1    3    3    0  502 -0.17714839637E+02 -0.27023317484E+02 -0.11316664469E+03  0.11776347949E+03  0.41800000000E+01 0.  1.
        -11    1    1    2    0    0  0.16418000517E+02 -0.33672238042E+02 -0.39827005467E+02  0.54676875553E+02  0.00000000000E+00 0. -1.
         11    1    1    2    0    0 -0.48558749761E+02  0.31437194549E+02 -0.28582674490E+02  0.64523008768E+02  0.00000000000E+00 0.  1.
</event>
<event>
 7    1  0.2651429E-009  0.1010223E+03  0.7561462E-02  0.1278161E+00
          2   -1    0    0  501    0  0.00000000000E+00  0.00000000000E+00  0.35038215736E+03  0.35038215736E+03  0.00000000000E+00 0. -1.
         -2   -1    0    0    0  501 -0.00000000000E+00 -0.00000000000E+00 -0.39985594075E+02  0.39985594075E+02  0.00000000000E+00 0.  1.
         25    2    1    2    0    0  0.40517904038E+02  0.79562353942E+01  0.13793138892E+03  0.19072627153E+03  0.12508573209E+03 0.  0.
          5    1    3    3  502    0  0.59600005197E+01 -0.47156593461E+02  0.10981932614E+03  0.11973730708E+03  0.41800000000E+01 0. -1.
         -5    1    3    3    0  502  0.34557903519E+02  0.55112828855E+02  0.28112062782E+02  0.70988964452E+02  0.41800000000E+01 0. -1.
        -11    1    1    2    0    0  0.18906057403E+02  0.16297562151E+02  0.13880135099E+02  0.28560596789E+02  0.00000000000E+00 0.  1.
         11    1    1    2    0    0 -0.59423961441E+02 -0.24253797545E+02  0.15858503926E+03  0.17108088311E+03  0.00000000000E+00 0. -1.
</event>
<event>
 7    1  0.2651429E-009  0.7764568E+02  0.7561462E-02  0.1335869E+00
          3   -1    0    0  501    0  0.00000000000E+00  0.00000000000E+00  0.82149581574E+02  0.82149581574E+02  0.00000000000E+00 0. -1.
         -3   -1    0    0    0  501 -0.00000000000E+00 -0.00000000000E+00 -0.18010993624E+03  0.18010993624E+03  0.00000000000E+00 0.  1.
         25    2    1    2    0    0 -0.37407933370E+02  0.40366691473E+02 -0.57750235407E+02  0.14836394565E+03  0.12509175600E+03 0.  0.
          5    1    3    3  502    0  0.17309309235E+02  0.89501280255E+01  0.32525214574E+02  0.38145497257E+02  0.41800000000E+01 0. -1.
         -5    1    3    3    0  502 -0.54717242605E+02  0.31416563448E+02 -0.90275449981E+02  0.11021844839E+03  0.41800000000E+01 0. -1.
        -11    1    1    2    0    0  0.42110171458E+02 -0.12583419035E+02 -0.63576840886E+02  0.77289220930E+02  0.00000000000E+00 0.  1.
         11    1    1    2    0    0 -0.47022380876E+01 -0.27783272438E+02  0.23366721632E+02  0.36606351228E+02  0.00000000000E+00 0. -1.
</event>
<event>
 7    1  0.2651429E-009  0.1469409E+03  0.7561462E-02  0.1204283E+00
          1   -1    0    0  501    0  0.00000000000E+00  0.00000000000E+00  0.20326934802E+03  0.20326934802E+03  0.00000000000E+00 0. -1.
         -1   -1    0    0    0  501 -0.00000000000E+00 -0.00000000000E+00 -0.15502739463E+03  0.15502739463E+03  0.00000000000E+00 0.  1.
         25    2    1    2    0    0  0.13619746275E+03  0.45085423402E+02  0.52398276473E+00  0.19033692137E+03  0.12508167258E+03 0.  0.
          5    1    3    3  502    0  0.70007649876E+02  0.18709377165E+02  0.62519050673E+02  0.95797786677E+02  0.41800000000E+01 0. -1.
         -5    1    3    3    0  502  0.66189812874E+02  0.26376046238E+02 -0.61995067909E+02  0.94539134693E+02  0.41800000000E+01 0. -1.
        -11    1    1    2    0    0 -0.66701349113E+02  0.69120851503E+00  0.52079812810E+02  0.84627741580E+02  0.00000000000E+00 0. -1.
         11    1    1    2    0    0 -0.69496113638E+02 -0.45776631917E+02 -0.43618421825E+01  0.83332079703E+02  0.00000000000E+00 0.  1.
</event>
<event>
 7    1  0.2651429E-009  0.1141611E+03  0.7561462E-02  0.1253053E+00
          2   -1    0    0  501    0  0.00000000000E+00  0.00000000000E+00  0.26586720645E+03  0.26586720645E+03  0.00000000000E+00 0. -1.
         -2   -1    0    0    0  501 -0.00000000000E+00 -0.00000000000E+00 -0.63510464219E+02  0.63510464219E+02  0.00000000000E+00 0.  1.
         25    2    1    2    0    0  0.70256913337E+02  0.12865408712E+02  0.12121826445E+03  0.18826052087E+03  0.12508638402E+03 0.  0.
          5    1    3    3  502    0  0.10079427934E+03 -0.15275503296E+02  0.91211759557E+02  0.13685717091E+03  0.41800000000E+01 0.  1.
         -5    1    3    3    0  502 -0.30537366001E+02  0.28140912008E+02  0.30006504895E+02  0.51403349958E+02  0.41800000000E+01 0.  1.
        -11    1    1    2    0    0 -0.32596252235E+02  0.16746976296E+02  0.85487978355E+02  0.93011673020E+02  0.00000000000E+00 0. -1.
         11    1    1    2    0    0 -0.37660661102E+02 -0.29612385008E+02 -0.43495005790E+01  0.48105476776E+02  0.00000000000E+00 0.  1.
</event>
<event>
 7    1  0.2651429E-009  0.1070174E+03  0.7561462E-02  0.1266195E+00
         -1   -1    0    0    0  501 -0.00000000000E+00  0.00000000000E+00  0.35831230292E+03  0.35831230292E+03  0.00000000000E+00 0.  1.
          1   -1    0    0  501    0  0.00000000000E+00 -0.00000000000E+00 -0.12112950203E+03  0.12112950203E+03  0.00000000000E+00 0. -1.
         25    2    1    2    0    0  0.10539516811E+03 -0.14694432784E+02  0.28777815553E+03  0.33134371224E+03  0.12509324933E+03 0.  0.
          5    1    3    3  502    0  0.48818191413E+02 -0.30931112418E+00  0.13405791807E+02  0.50798613566E+02  0.41800000000E+01 0.  1.
         -5    1    3    3    0  502  0.56576976699E+02 -0.14385121660E+02  0.27437236372E+03  0.28054509867E+03  0.41800000000E+01 0.  1.
        -11    1    1    2    0    0 -0.43646691933E+02  0.83337836698E+01 -0.70129490294E+02  0.83021871069E+02  0.00000000000E+00 0. -1.
         11    1    1    2    0    0 -0.61748476178E+02  0.63606491147E+01  0.19534135660E+02  0.65076221644E+02  0.00000000000E+00 0.  1.
</event>
<event>
 7    1  0.2651429E-009  0.1345521E+03  0.7561462E-02  0.1220853E+00
         -2   -1    0    0    0  501 -0.00000000000E+00  0.00000000000E+00  0.20037424833E+02  0.20037424833E+02  0.00000000000E+00 0.  1.
          2   -1    0    0  501    0  0.00000000000E+00 -0.00000000000E+00 -0.99614691531E+03  0.99614691531E+03  0.00000000000E+00 0. -1.
         25    2    1    2    0    0 -0.84877260339E+02 -0.26781717308E+01 -0.43376581975E+03  0.45936359822E+03  0.12510318566E+03 0.  0.
          5    1    3    3  502    0 -0.34083173105E+02  0.56973147879E+02 -0.13545712480E+03  0.15090959985E+03  0.41800000000E+01 0.  1.
         -5    1    3    3    0  502 -0.50794087233E+02 -0.59651319610E+02 -0.29830869495E+03  0.30845399837E+03  0.41800000000E+01 0.  1.
        -11    1    1    2    0    0  0.20101410799E+02 -0.41230050491E+02 -0.25064466422E+03  0.25480724378E+03  0.00000000000E+00 0.  1.
         11    1    1    2    0    0  0.64775849540E+02  0.43908222222E+02 -0.29169900650E+03  0.30201349814E+03  0.00000000000E+00 0. -1.
</event>
<event>
 7    1  0.2651429E-009  0.8484319E+02  0.7561462E-02  0.1315843E+00
         -4   -1    0    0    0  501 -0.00000000000E+00  0.00000000000E+00  0.99731412033E+02  0.99731412033E+02  0.00000000000E+00 0.  1.
          4   -1    0    0  501    0  0.00000000000E+00 -0.00000000000E+00 -0.14016398455E+03  0.14016398455E+03  0.00000000000E+00 0. -1.
         25    2    1    2    0    0 -0.16131430407E+02 -0.18994979356E+02  0.17720947958E+02  0.12877114200E+03  0.12508774012E+03 0.  0.
          5    1    3    3  502    0  0.10865542578E+02  0.39484067629E+02  0.42930527107E+02  0.59477341650E+02  0.41800000000E+01 0.  1.
         -5    1    3    3    0  502 -0.26996972985E+02 -0.58479046986E+02 -0.25209579149E+02  0.69293800354E+02  0.41800000000E+01 0.  1.
        -11    1    1    2    0    0 -0.11265290462E+02  0.31798863769E+02 -0.70737026317E+02  0.78369645899E+02  0.00000000000E+00 0. -1.
         11    1    1    2    0    0  0.27396720868E+02 -0.12803884413E+02  0.12583505843E+02  0.32754608679E+02  0.00000000000E+00 0.  1.
</event>
<event>
 7    1  0.2651429E-009  0.1062777E+03  0.7561462E-02  0.1267622E+00
         -2   -1    0    0    0  501 -0.00000000000E+00  0.00000000000E+00  0.24253611527E+03  0.24253611527E+03  0.00000000000E+00 0. -1.
          2   -1    0    0  501    0  0.00000000000E+00 -0.00000000000E+00 -0.82305247487E+02  0.82305247487E+02  0.00000000000E+00 0.  1.
         25    2    1    2    0    0  0.16568375449E+02  0.44439941424E+02  0.61446188866E-01  0.13377899127E+03  0.12508954901E+03 0.  0.
          5    1    3    3  502    0 -0.15162187523E+02  0.67265919782E+02  0.38258633573E+02  0.78967026900E+02  0.41800000000E+01 0.  1.
         -5    1    3    3    0  502  0.31730562972E+02 -0.22825978357E+02 -0.38197187384E+02  0.54811964374E+02  0.41800000000E+01 0.  1.
        -11    1    1    2    0    0 -0.51673710529E+02 -0.45776705086E+02  0.10662984771E+03  0.12702599542E+03  0.00000000000E+00 0.  1.
         11    1    1    2    0    0  0.35105335080E+02  0.13367636613E+01  0.53539573878E+02  0.64036376063E+02  0.00000000000E+00 0. -1.
</event>
<event>
 6    1  0.2651429E-009  0.8001990E+02  0.7561462E-02  0.1328995E+00
         -2   -1    0    0    0  501 -0.00000000000E+00  0.00000000000E+00  0.79944967886E+02  0.79944967886E+02  0.00000000000E+00 0.  1.
          2   -1    0    0  501    0  0.00000000000E+00 -0.00000000000E+00 -0.22072446265E+03  0.22072446265E+03  0.00000000000E+00 0. -1.
          5    1    1    2  502    0  0.77641353044E+01 -0.15385018449E+02  0.50372274613E+02  0.53402425408E+02  0.41800000000E+01 0. -1.
         -5    1    1    2    0  502  0.43119666427E+02 -0.15238988539E+02 -0.73856679187E+02  0.86970189519E+02  0.41800000000E+01 0. -1.
        -11    1    1    2    0    0 -0.41623406037E+02  0.55767638896E+02 -0.11364014035E+03  0.13325396420E+03  0.00000000000E+00 0. -1.
         11    1    1    2    0    0 -0.92603956943E+01 -0.25143631908E+02 -0.36549498471E+01  0.27042851409E+02  0.00000000000E+00 0.  1.
</event>
<event>
 7    1  0.2651429E-009  0.1892217E+03  0.7561462E-02  0.1159165E+00
          1   -1    0    0  501    0  0.00000000000E+00  0.00000000000E+00  0.49715158056E+02  0.49715158056E+02  0.00000000000E+00 0. -1.
         -1   -1    0    0    0  501 -0.00000000000E+00 -0.00000000000E+00 -0.89461511709E+03  0.89461511709E+03  0.00000000000E+00 0.  1.
         25    2    1    2    0    0  0.35173404544E+02 -0.17358836825E+03 -0.51320906773E+03  0.55713701877E+03  0.12509204816E+03 0.  0.
          5    1    3    3  502    0  0.37618242727E+02 -0.93883982293E+02 -0.43022669002E+03  0.44197489920E+03  0.41800000000E+01 0.  1.
         -5    1    3    3    0  502 -0.24448381834E+01 -0.79704385961E+02 -0.82982377702E+02  0.11516211957E+03  0.41800000000E+01 0.  1.
        -11    1    1    2    0    0 -0.59017029314E+02  0.72403021114E+02 -0.18697041865E+03  0.20900513071E+03  0.00000000000E+00 0. -1.
         11    1    1    2    0    0  0.23843624770E+02  0.10118534714E+03 -0.14472047266E+03  0.17818812566E+03  0.00000000000E+00 0.  1.
</event>
<event>
 7    1  0.2651429E-009  0.3651856E+03  0.7561462E-02  0.1056549E+00
          2   -1    0    0  501    0  0.00000000000E+00  0.00000000000E+00  0.20764694820E+04  0.20764694820E+04  0.00000000000E+00 0. -1.
         -2   -1    0    0    0  501 -0.00000000000E+00 -0.00000000000E+00 -0.67852972663E+02  0.67852972663E+02  0.00000000000E+00 0.  1.
         25    2    1    2    0    0 -0.19385725199E+03  0.30205145213E+03  0.10148478512E+04  0.10836871380E+04  0.12508372429E+03 0.  0.
          5    1    3    3  502    0  0.86751653057E+01  0.32414362293E+02  0.18255288378E+03  0.18565822673E+03  0.41800000000E+01 0.  1.
         -5    1    3    3    0  502 -0.20253241730E+03  0.26963708984E+03  0.83229496745E+03  0.89802891129E+03  0.41800000000E+01 0.  1.
        -11    1    1    2    0    0  0.13289099038E+03 -0.22104603993E+03  0.58234916246E+03  0.63690808922E+03  0.00000000000E+00 0.  1.
         11    1    1    2    0    0  0.60966261614E+02 -0.81005412198E+02  0.41141949564E+03  0.42372722742E+03  0.00000000000E+00 0. -1.
</event>
<event>
 7    1  0.2651429E-009  0.1265838E+03  0.7561462E-02  0.1232615E+00
          2   -1    0    0  501    0  0.00000000000E+00  0.00000000000E+00  0.96689080885E+03  0.96689080885E+03  0.00000000000E+00 0. -1.
         -2   -1    0    0    0  501 -0.00000000000E+00 -0.00000000000E+00 -0.18846209780E+02  0.18846209780E+02  0.00000000000E+00 0.  1.
         25    2    1    2    0    0  0.24019809379E+02 -0.71076446929E+02  0.61528867598E+03  0.63234187193E+03  0.12508907087E+03 0.  0.
          5    1    3    3  502    0 -0.45003891627E+02 -0.37263469505E+02  0.15575861618E+03  0.16640954100E+03  0.41800000000E+01 0.  1.
         -5    1    3    3    0  502  0.69023701007E+02 -0.33812977424E+02  0.45953005981E+03  0.46593233093E+03  0.41800000000E+01 0.  1.
        -11    1    1    2    0    0 -0.20900191950E+02 -0.18543651229E+02  0.58073574602E+02  0.64445520337E+02  0.00000000000E+00 0. -1.
         11    1    1    2    0    0 -0.31196174293E+01  0.89620098158E+02  0.27468234849E+03  0.28894962637E+03  0.00000000000E+00 0.  1.
</event>
<event>
 7    1  0.2651429E-009  0.9251633E+02  0.7561462E-02  0.1296870E+00
          1   -1    0    0  501    0  0.00000000000E+00  0.00000000000E+00  0.25787223520E+03  0.25787223520E+03  0.00000000000E+00 0. -1.
         -1   -1    0    0    0  501 -0.00000000000E+00 -0.00000000000E+00 -0.67099849534E+02  0.67099849534E+02  0.00000000000E+00 0.  1.
         25    2    1    2    0    0 -0.12554961450E+02  0.31342386765E+02  0.25509176820E+02  0.13201727676E+03  0.12505147338E+03 0.  0.
          5    1    3    3  502    0  0.19894805452E+02 -0.40520498544E+02  0.27516304286E+02  0.53031438674E+02  0.41800000000E+01 0. -1.
         -5    1    3    3    0  502 -0.32449766902E+02  0.71862885309E+02 -0.20071274661E+01  0.78985838083E+02  0.41800000000E+01 0. -1.
        -11    1    1    2    0    0  0.17011574206E+01  0.14006016579E+02 -0.60923930962E+01  0.15368138815E+02  0.00000000000E+00 0.  1.
         11    1    1    2    0    0  0.10853804030E+02 -0.45348403345E+02  0.17135560194E+03  0.17758666916E+03  0.00000000000E+00 0. -1.
</event>
<event>
 7    1  0.3274549E-009  0.9471975E+02  0.7561462E-02  0.1291809E+00
         -2   -1    0    0    0  501 -0.00000000000E+00  0.00000000000E+00  0.22195818602E+02  0.22195818602E+02  0.00000000000E+00 0. -1.
          2   -1    0    0  501    0  0.00000000000E+00 -0.00000000000E+00 -0.69878445873E+03  0.69878445873E+03  0.00000000000E+00 0.  1.
         25    2    1    2    0    0  0.43789518957E+02  0.40095302582E+02 -0.41704404805E+03  0.43942930535E+03  0.12508885294E+03 0.  0.
          5    1    3    3  502    0 -0.76820937100E+01 -0.21585235806E+02 -0.27659470804E+03  0.27757348916E+03  0.41800000000E+01 0.  1.
         -5    1    3    3    0  502  0.51471612667E+02  0.61680538388E+02 -0.14044934001E+03  0.16185581619E+03  0.41800000000E+01 0.  1.
        -11    1    1    2    0    0  0.26305522393E+01 -0.39188386415E+02 -0.21004060034E+03  0.21368131230E+03  0.00000000000E+00 0.  1.
         11    1    1    2    0    0 -0.46420071197E+02 -0.90691616679E+00 -0.49503991730E+02  0.67869659672E+02  0.00000000000E+00 0. -1.
</event>
<event>
 7    1  0.2651429E-009  0.2148919E+03  0.7561462E-02  0.1137750E+00
          1   -1    0    0  501    0  0.00000000000E+00  0.00000000000E+00  0.23737239410E+04  0.23737239410E+04  0.00000000000E+00 0. -1.
         -1   -1    0    0    0  501 -0.00000000000E+00 -0.00000000000E+00 -0.27343166705E+02  0.27343166705E+02  0.00000000000E+00 0.  1.
         25    2    1    2    0    0  0.18381119019E+03  0.10367495244E+03  0.16442584587E+04  0.16624589190E+04  0.12509487930E+03 0.  0.
          5    1    3    3  502    0  0.80996231336E+02  0.22141469895E+02  0.10738892613E+04  0.10771751260E+04  0.41800000000E+01 0.  1.
         -5    1    3    3    0  502  0.10281495885E+03  0.81533482544E+02  0.57036919747E+03  0.58528379301E+03  0.41800000000E+01 0.  1.
        -11    1    1    2    0    0 -0.11574331437E+03 -0.43743578390E+02  0.26900289119E+03  0.29609554360E+03  0.00000000000E+00 0. -1.
         11    1    1    2    0    0 -0.68067875815E+02 -0.59931374050E+02  0.43311942439E+03  0.44251264513E+03  0.00000000000E+00 0.  1.
</event>
<event>
 7    1  0.2651429E-009  0.1009535E+03  0.7561462E-02  0.1278304E+00
          1   -1    0    0  501    0  0.00000000000E+00  0.00000000000E+00  0.79526128810E+03  0.79526128810E+03  0.00000000000E+00 0. -1.
         -1   -1    0    0    0  501 -0.00000000000E+00 -0.00000000000E+00 -0.16064205304E+02  0.16064205304E+02  0.00000000000E+00 0.  1.
         25    2    1    2    0    0 -0.39216123509E+02 -0.38721828814E+02  0.47549487621E+03  0.49475474007E+03  0.12509832592E+03 0.  0.
          5    1    3    3  502    0 -0.23533883850E+02 -0.73722671067E+02  0.42046566518E+03  0.42754850475E+03  0.41800000000E+01 0.  1.
         -5    1    3    3    0  502 -0.15682239659E+02  0.35000842253E+02  0.55029211037E+02  0.67206235324E+02  0.41800000000E+01 0.  1.
        -11    1    1    2    0    0  0.33948189906E+02 -0.11107236647E+02  0.17175531605E+03  0.17543015389E+03  0.00000000000E+00 0. -1.
         11    1    1    2    0    0  0.52679336033E+01  0.49829065461E+02  0.13194689053E+03  0.14114059944E+03  0.00000000000E+00 0.  1.
</event>
<event>
 7    1  0.2651429E-009  0.1566752E+03  0.7561462E-02  0.1192502E+00
          1   -1    0    0  501    0  0.00000000000E+00  0.00000000000E+00  0.88975671765E+03  0.88975671765E+03  0.00000000000E+00 0. -1.
         -1   -1    0    0    0  501 -0.00000000000E+00 -0.00000000000E+00 -0.29691461248E+02  0.29691461248E+02  0.00000000000E+00 0.  1.
         25    2    1    2    0    0  0.60613381018E+02  0.10365802417E+03  0.50447654536E+03  0.53344384698E+03  0.12508711015E+03 0.  0.
          5    1    3    3  502    0  0.29895533770E+02 -0.20785067052E+02  0.19555326614E+03  0.19895807159E+03  0.41800000000E+01 0.  1.
         -5    1    3    3    0  502  0.30717847247E+02  0.12444309123E+03  0.30892327922E+03  0.33448577539E+03  0.41800000000E+01 0.  1.
        -11    1    1    2    0    0 -0.75169018219E+01 -0.94226951558E+02  0.25344610827E+03  0.27049981887E+03  0.00000000000E+00 0.  1.
         11    1    1    2    0    0 -0.53096479196E+02 -0.94310726165E+01  0.10214260277E+03  0.11550451305E+03  0.00000000000E+00 0. -1.
</event>
<event>
 7    1  0.2651429E-009  0.1260371E+03  0.7561462E-02  0.1233457E+00
         -2   -1    0    0    0  501 -0.00000000000E+00  0.00000000000E+00  0.29242817885E+02  0.29242817885E+02  0.00000000000E+00 0.  1.
          2   -1    0    0  501    0  0.00000000000E+00 -0.00000000000E+00 -0.79971663982E+03  0.79971663982E+03  0.00000000000E+00 0. -1.
         25    2    1    2    0    0 -0.82717881512E+02  0.58486178883E+02 -0.51186693589E+03  0.53657994359E+03  0.12508954700E+03 0.  0.
          5    1    3    3  502    0 -0.33085703235E+02 -0.82616978892E+01 -0.24622073896E+02  0.42268644803E+02  0.41800000000E+01 0. -1.
         -5    1    3    3    0  502 -0.49632178277E+02  0.66747876773E+02 -0.48724486199E+03  0.49431129879E+03  0.41800000000E+01 0. -1.
        -11    1    1    2    0    0  0.38641389165E+02  0.20678393138E+02 -0.62302569460E+02  0.76173243732E+02  0.00000000000E+00 0. -1.
         11    1    1    2    0    0  0.44076492346E+02 -0.79164572021E+02 -0.19630431659E+03  0.21620627039E+03  0.00000000000E+00 0.  1.
</event>
<event>
 7    1  0.2651429E-009  0.1231506E+03  0.7561462E-02  0.1237988E+00
         -1   -1    0    0    0  501 -0.00000000000E+00  0.00000000000E+00  0.20948154525E+03  0.20948154525E+03  0.00000000000E+00 0.  1.
          1   -1    0    0  501    0  0.00000000000E+00 -0.00000000000E+00 -0.75092930476E+02  0.75092930476E+02  0.00000000000E+00 0. -1.
         25    2    1    2    0    0 -0.22965441773E+02 -0.55613240520E+02  0.50642851311E+02  0.14777748897E+03  0.12511292428E+03 0.  0.
          5    1    3    3  502    0  0.42036404912E+02  0.12574979269E+02  0.21757967863E+02  0.49153545214E+02  0.41800000000E+01 0. -1.
         -5    1    3    3    0  502 -0.65001846685E+02 -0.68188219789E+02  0.28884883447E+02  0.98623943758E+02  0.41800000000E+01 0. -1.
        -11    1    1    2    0    0 -0.63378952228E+01  0.73382942596E+02  0.52840330064E+02  0.90649465862E+02  0.00000000000E+00 0. -1.
         11    1    1    2    0    0  0.29303336996E+02 -0.17769702076E+02  0.30905433400E+02  0.46147520894E+02  0.00000000000E+00 0.  1.
</event>
<event>
 7    1  0.2651429E-009  0.1370221E+03  0.7561462E-02  0.1217393E+00
          1   -1    0    0  501    0  0.00000000000E+00  0.00000000000E+00  0.56162790590E+03  0.56162790590E+03  0.00000000000E+00 0. -1.
         -1   -1    0    0    0  501 -0.00000000000E+00 -0.00000000000E+00 -0.40073682322E+02  0.40073682322E+02  0.00000000000E+00 0.  1.
         25    2    1    2    0    0 -0.20807623207E+02 -0.84772751442E+02  0.39513097781E+03  0.42355224281E+03  0.12509450907E+03 0.  0.
          5    1    3    3  502    0  0.44022038969E+02 -0.70799749753E+02  0.18044432249E+03  0.19881692684E+03  0.41800000000E+01 0. -1.
         -5    1    3    3    0  502 -0.64829662175E+02 -0.13973001689E+02  0.21468665531E+03  0.22473531597E+03  0.41800000000E+01 0. -1.
        -11    1    1    2    0    0 -0.26481978822E+02  0.69580370903E+02  0.88543021733E+02  0.11568314447E+03  0.00000000000E+00 0. -1.
         11    1    1    2    0    0  0.47289602029E+02  0.15192380539E+02  0.37880224044E+02  0.62466200942E+02  0.00000000000E+00 0.  1.
</event>
<event>
 7    1  0.2651429E-009  0.1175700E+03  0.7561462E-02  0.1247160E+00
         -4   -1    0    0    0  501 -0.00000000000E+00  0.00000000000E+00  0.33095898547E+03  0.33095898547E+03  0.00000000000E+00 0.  1.
          4   -1    0    0  501    0  0.00000000000E+00 -0.00000000000E+00 -0.54472290300E+02  0.54472290300E+02  0.00000000000E+00 0. -1.
         25    2    1    2    0    0  0.44914497277E+02  0.39237247367E+02  0.22704719370E+03  0.26599815447E+03  0.12509083248E+03 0.  0.
          5    1    3    3  502    0  0.86907726523E+02  0.18507049825E+02  0.12275240703E+03  0.15159515050E+03  0.41800000000E+01 0.  1.
         -5    1    3    3    0  502 -0.41993229246E+02  0.20730197541E+02  0.10429478667E+03  0.11440300397E+03  0.41800000000E+01 0.  1.
        -11    1    1    2    0    0  0.65831452303E+01 -0.46674080999E+02  0.48155888653E+02  0.67385437969E+02  0.00000000000E+00 0.  1.
         11    1    1    2    0    0 -0.51497642507E+02  0.74368336326E+01  0.12836128214E+01  0.52047683331E+02  0.00000000000E+00 0. -1.
</event>
<event>
 7    1  0.2651429E-009  0.1113512E+03  0.7561462E-02  0.1258088E+00
          1   -1    0    0  501    0  0.00000000000E+00  0.00000000000E+00  0.17650829251E+03  0.17650829251E+03  0.00000000000E+00 0. -1.
         -1   -1    0    0    0  501 -0.00000000000E+00 -0.00000000000E+00 -0.11206036469E+03  0.11206036469E+03  0.00000000000E+00 0.  1.
         25    2    1    2    0    0  0.22979225989E+02 -0.86948130972E+02  0.40029757003E+02  0.15918036147E+03  0.12509190112E+03 0.  0.
          5    1    3    3  502    0  0.10465566360E+02  0.18151372811E+02 -0.26542463757E+02  0.34073086101E+02  0.41800000000E+01 0. -1.
         -5    1    3    3    0  502  0.12513659629E+02 -0.10509950378E+03  0.66572220760E+02  0.12510727537E+03  0.41800000000E+01 0. -1.
        -11    1    1    2    0    0  0.77048577433E+01  0.10394782143E+02 -0.28567226702E+02  0.31360847726E+02  0.00000000000E+00 0.  1.
         11    1    1    2    0    0 -0.30684083732E+02  0.76553348829E+02  0.52985397524E+02  0.98027448004E+02  0.00000000000E+00 0. -1.
</event>
<event>
 7    1  0.2651429E-009  0.1268909E+03  0.7561462E-02  0.1232143E+00
          4   -1    0    0  501    0  0.00000000000E+00  0.00000000000E+00  0.54833572880E+02  0.54833572880E+02  0.00000000000E+00 0. -1.
         -4   -1    0    0    0  501 -0.00000000000E+00 -0.00000000000E+00 -0.36631541172E+03  0.36631541172E+03  0.00000000000E+00 0.  1.
         25    2    1    2    0    0 -0.75399758110E+02  0.50735011074E+02 -0.16178330966E+03  0.22378557095E+03  0.12508787955E+03 0.  0.
          5    1    3    3  502    0  0.12839182280E+02  0.33478213919E+02 -0.11856713148E+03  0.12394060059E+03  0.41800000000E+01 0.  1.
         -5    1    3    3    0  502 -0.88238940390E+02  0.17256797155E+02 -0.43216178180E+02  0.99844970357E+02  0.41800000000E+01 0.  1.
        -11    1    1    2    0    0  0.93589445497E+02 -0.26301972297E+02 -0.12360642816E+03  0.15725561083E+03  0.00000000000E+00 0.  1.
         11    1    1    2    0    0 -0.18189687387E+02 -0.24433038777E+02 -0.26092101026E+02  0.40107802820E+02  0.00000000000E+00 0. -1.
</event>
<event>
 7    1  0.2651429E-009  0.1517262E+03  0.7561462E-02  0.1198368E+00
          1   -1    0    0  501    0  0.00000000000E+00  0.00000000000E+00  0.52998197994E+03  0.52998197994E+03  0.00000000000E+00 0. -1.
         -1   -1    0    0    0  501 -0.00000000000E+00 -0.00000000000E+00 -0.65034035914E+02  0.65034035914E+02  0.00000000000E+00 0.  1.
         25    2    1    2    0    0 -0.70199604682E+02 -0.11460399759E+03  0.27203611715E+03  0.32819786112E+03  0.12509247079E+03 0.  0.
          5    1    3    3  502    0 -0.14352787151E+02 -0.97307092019E+02  0.24422523191E+03  0.26332130365E+03  0.41800000000E+01 0.  1.
         -5    1    3    3    0  502 -0.55846817531E+02 -0.17296905570E+02  0.27810885240E+02  0.64876557465E+02  0.41800000000E+01 0.  1.
        -11    1    1    2    0    0  0.64057883916E+02  0.49389214745E+02  0.22061946655E+02  0.83841734925E+02  0.00000000000E+00 0.  1.
         11    1    1    2    0    0  0.61417207656E+01  0.65214782844E+02  0.17084988023E+03  0.18297641982E+03  0.00000000000E+00 0. -1.
</event>
<event>
 7    1  0.2651429E-009  0.2079011E+03  0.7561462E-02  0.1143239E+00
         -1   -1    0    0    0  501 -0.00000000000E+00  0.00000000000E+00  0.10710407062E+04  0.10710407062E+04  0.00000000000E+00 0.  1.
          1   -1    0    0  501    0  0.00000000000E+00 -0.00000000000E+00 -0.45623397879E+02  0.45623397879E+02  0.00000000000E+00 0. -1.
         25    2    1    2    0    0  0.41392528252E+02 -0.17835900204E+03  0.38380796399E+03  0.44326103574E+03  0.12508604068E+03 0.  0.
          5    1    3    3  502    0 -0.31971195770E+02 -0.90391458811E+01  0.92761983169E+02  0.98621100372E+02  0.41800000000E+01 0. -1.
         -5    1    3    3    0  502  0.73363724022E+02 -0.16931985616E+03  0.29104598082E+03  0.34463993536E+03  0.41800000000E+01 0. -1.
        -11    1    1    2    0    0 -0.51826378088E+02  0.61547686401E+02  0.18064481038E+03  0.19775398525E+03  0.00000000000E+00 0. -1.
         11    1    1    2    0    0  0.10433849836E+02  0.11681131564E+03  0.46096453395E+03  0.47564908309E+03  0.00000000000E+00 0.  1.
</event>
<event>
 7    1  0.2651429E-009  0.1845911E+03  0.7561462E-02  0.1163432E+00
          2   -1    0    0  501    0  0.00000000000E+00  0.00000000000E+00  0.58207596372E+03  0.58207596372E+03  0.00000000000E+00 0. -1.
         -2   -1    0    0    0  501 -0.00000000000E+00 -0.00000000000E+00 -0.63135089589E+02  0.63135089589E+02  0.00000000000E+00 0.  1.
         25    2    1    2    0    0 -0.15073557813E+03 -0.38987648368E+01  0.32927041742E+03  0.38315060127E+03  0.12509580563E+03 0.  0.
          5    1    3    3  502    0 -0.12143413180E+03  0.50649698659E+02  0.19555327940E+03  0.23573331929E+03  0.41800000000E+01 0. -1.
         -5    1    3    3    0  502 -0.29301446334E+02 -0.54548463496E+02  0.13371713802E+03  0.14741728198E+03  0.41800000000E+01 0. -1.
        -11    1    1    2    0    0  0.10651443657E+03 -0.39422666129E+02  0.90806340850E+02  0.14541410984E+03  0.00000000000E+00 0.  1.
         11    1    1    2    0    0  0.44221141558E+02  0.43321430965E+02  0.98864115863E+02  0.11664634219E+03  0.00000000000E+00 0. -1.
</event>
<event>
 7    1  0.2651429E-009  0.8373205E+02  0.7561462E-02  0.1318782E+00
          1   -1    0    0  501    0  0.00000000000E+00  0.00000000000E+00  0.64313100156E+03  0.64313100156E+03  0.00000000000E+00 0. -1.
         -1   -1    0    0    0  501 -0.00000000000E+00 -0.00000000000E+00 -0.19749203742E+02  0.19749203742E+02  0.00000000000E+00 0.  1.
         25    2    1    2    0    0  0.68877573702E+01  0.43562278288E+01  0.27522605371E+03  0.30242884320E+03  0.12508959442E+03 0.  0.
          5    1    3    3  502    0  0.30214344207E+02  0.29732868561E+02  0.26173508969E+03  0.26517858067E+03  0.41800000000E+01 0. -1.
         -5    1    3    3    0  502 -0.23326586837E+02 -0.25376640732E+02  0.13490964022E+02  0.37250262530E+02  0.41800000000E+01 0. -1.
        -11    1    1    2    0    0 -0.34102461932E+02  0.30618623468E+02  0.13005970802E+03  0.13789853394E+03  0.00000000000E+00 0.  1.
         11    1    1    2    0    0  0.27214704561E+02 -0.34974851296E+02  0.21809603608E+03  0.22255282816E+03  0.00000000000E+00 0. -1.
</event>
<event>
 7    1  0.2651429E-009  0.4662646E+02  0.7561462E-02  0.1464436E+00
          2   -1    0    0  501    0  0.00000000000E+00  0.00000000000E+00  0.23123466910E+03  0.23123466910E+03  0.00000000000E+00 0. -1.
         -2   -1    0    0    0  501 -0.00000000000E+00 -0.00000000000E+00 -0.52197681342E+02  0.52197681342E+02  0.00000000000E+00 0.  1.
         25    2    1    2    0    0 -0.61244816464E+01  0.16195758767E+02  0.84767271397E+02  0.15210089291E+03  0.12509747977E+03 0.  0.
          5    1    3    3  502    0  0.22181259895E+02 -0.43425963313E+01  0.10766491980E+03  0.11009120668E+03  0.41800000000E+01 0.  1.
         -5    1    3    3    0  502 -0.28305741541E+02  0.20538355098E+02 -0.22897648401E+02  0.42009686224E+02  0.41800000000E+01 0.  1.
        -11    1    1    2    0    0  0.87932358093E+01  0.72822566275E+01 -0.15385656640E+02  0.19159088909E+02  0.00000000000E+00 0.  1.
         11    1    1    2    0    0 -0.26687541630E+01 -0.23478015394E+02  0.10965537301E+03  0.11217236863E+03  0.00000000000E+00 0. -1.
</event>
<event>
 7    1  0.2651429E-009  0.1012516E+03  0.7561462E-02  0.1277686E+00
          2   -1    0    0  501    0  0.00000000000E+00  0.00000000000E+00  0.39040745028E+03  0.39040745028E+03  0.00000000000E+00 0. -1.
         -2   -1    0    0    0  501 -0.00000000000E+00 -0.00000000000E+00 -0.51790134323E+02  0.51790134323E+02  0.00000000000E+00 0.  1.
         25    2    1    2    0    0  0.90622370686E+02  0.11254784413E+02  0.15726646983E+03  0.22072409946E+03  0.12508917343E+03 0.  0.
          5    1    3    3  502    0  0.40668750711E+02  0.13969466385E+02 -0.11451617202E+02  0.44695695677E+02  0.41800000000E+01 0.  1.
         -5    1    3    3    0  502  0.49953619975E+02 -0.27146819717E+01  0.16871808703E+03  0.17602840378E+03  0.41800000000E+01 0.  1.
        -11    1    1    2    0    0 -0.51241628191E+02  0.23685684557E+02  0.14983058064E+03  0.16011220755E+03  0.00000000000E+00 0. -1.
         11    1    1    2    0    0 -0.39380742495E+02 -0.34940468970E+02  0.31520265491E+02  0.61361277593E+02  0.00000000000E+00 0.  1.
</event>
<event>
 7    1  0.2651429E-009  0.1400249E+03  0.7561462E-02  0.1213296E+00
         -1   -1    0    0    0  501 -0.00000000000E+00  0.00000000000E+00  0.16653715541E+03  0.16653715541E+03  0.00000000000E+00 0.  1.
          1   -1    0    0  501    0  0.00000000000E+00 -0.00000000000E+00 -0.15382630469E+03  0.15382630469E+03  0.00000000000E+00 0. -1.
         25    2    1    2    0    0 -0.36940552022E+02  0.10463024201E+03 -0.29109029444E+02  0.16972449613E+03  0.12508787736E+03 0.  0.
          5    1    3    3  502    0  0.82979923872E+01 -0.12987050820E+02 -0.40097309505E+02  0.43160013857E+02  0.41800000000E+01 0.  1.
         -5    1    3    3    0  502 -0.45238544409E+02  0.11761729283E+03  0.10988280060E+02  0.12656448227E+03  0.41800000000E+01 0.  1.
        -11    1    1    2    0    0  0.57266921081E+02 -0.38991867954E+02  0.43678197830E+02  0.81900250197E+02  0.00000000000E+00 0.  1.
         11    1    1    2    0    0 -0.20326369060E+02 -0.65638374057E+02 -0.18583176704E+01  0.68738713783E+02  0.00000000000E+00 0. -1.
</event>
<event>
 7    1  0.2651429E-009  0.1613883E+03  0.7561462E-02  0.1187138E+00
         -2   -1    0    0    0  501 -0.00000000000E+00  0.00000000000E+00  0.55231435868E+02  0.55231435868E+02  0.00000000000E+00 0.  1.
          2   -1    0    0  501    0  0.00000000000E+00 -0.00000000000E+00 -0.77838553668E+03  0.77838553668E+03  0.00000000000E+00 0. -1.
         25    2    1    2    0    0  0.11097897251E+03 -0.10540477024E+03 -0.20285885197E+03  0.28324256193E+03  0.12509251431E+03 0.  0.
          5    1    3    3  502    0  0.44045953484E+01 -0.18051045397E+02  0.15803459203E+02  0.24747978157E+02  0.41800000000E+01 0. -1.
         -5    1    3    3    0  502  0.10657437717E+03 -0.87353724847E+02 -0.21866231117E+03  0.25849458377E+03  0.41800000000E+01 0. -1.
        -11    1    1    2    0    0 -0.18604871369E+02  0.60233479830E+02 -0.10441041077E+03  0.12196617240E+03  0.00000000000E+00 0.  1.
         11    1    1    2    0    0 -0.92374101145E+02  0.45171290414E+02 -0.41588483807E+03  0.42840823823E+03  0.00000000000E+00 0. -1.
</event>
<event>
 7    1  0.2651429E-009  0.1067882E+03  0.7561462E-02  0.1266636E+00
         -1   -1    0    0    0  501 -0.00000000000E+00  0.00000000000E+00  0.20394262467E+03  0.20394262467E+03  0.00000000000E+00 0.  1.
          1   -1    0    0  501    0  0.00000000000E+00 -0.00000000000E+00 -0.10262247994E+03  0.10262247994E+03  0.00000000000E+00 0. -1.
         25    2    1    2    0    0 -0.90221737829E+02  0.94858202654E+01  0.25157053671E+02  0.15655817971E+03  0.12509054129E+03 0.  0.
          5    1    3    3  502    0 -0.52167547567E+01 -0.18992140304E+01  0.62527596572E+02  0.62912592358E+02  0.41800000000E+01 0.  1.
         -5    1    3    3    0  502 -0.85004983073E+02  0.11385034296E+02 -0.37370542901E+02  0.93645587348E+02  0.41800000000E+01 0.  1.
        -11    1    1    2    0    0  0.31384858079E+02 -0.42856534657E+02  0.60623415507E+02  0.80603290176E+02  0.00000000000E+00 0.  1.
         11    1    1    2    0    0  0.58836879751E+02  0.33370714391E+02  0.15539675557E+02  0.69403634733E+02  0.00000000000E+00 0. -1.
</event>
<event>
 7    1  0.2651429E-009  0.7804213E+02  0.7561462E-02  0.1334701E+00
         -2   -1    0    0    0  501 -0.00000000000E+00  0.00000000000E+00  0.16282352993E+03  0.16282352993E+03  0.00000000000E+00 0.  1.
          2   -1    0    0  501    0  0.00000000000E+00 -0.00000000000E+00 -0.81607871573E+02  0.81607871573E+02  0.00000000000E+00 0. -1.
         25    2    1    2    0    0  0.32828396464E+02 -0.27108659950E+02  0.45927675960E+02  0.13989567137E+03  0.12509542114E+03 0.  0.
          5    1    3    3  502    0  0.65319335895E+01  0.28636615842E+02 -0.29877544196E+02  0.42105367478E+02  0.41800000000E+01 0. -1.
         -5    1    3    3    0  502  0.26296462874E+02 -0.55745275793E+02  0.75805220156E+02  0.97790303894E+02  0.41800000000E+01 0. -1.
        -11    1    1    2    0    0 -0.43310715978E+02  0.98042263988E+01 -0.17709664023E+02  0.47807668565E+02  0.00000000000E+00 0. -1.
         11    1    1    2    0    0  0.10482319515E+02  0.17304433552E+02  0.52997646423E+02  0.56728061568E+02  0.00000000000E+00 0.  1.
</event>
<event>
 7    1  0.2651429E-009  0.1158438E+03  0.7561462E-02  0.1250115E+00
         -2   -1    0    0    0  501 -0.00000000000E+00  0.00000000000E+00  0.39981422609E+03  0.39981422609E+03  0.00000000000E+00 0.  1.
          2   -1    0    0  501    0  0.00000000000E+00 -0.00000000000E+00 -0.36573120933E+02  0.36573120933E+02  0.00000000000E+00 0. -1.
         25    2    1    2    0    0 -0.34537271294E+02  0.40048492286E+02  0.18339705262E+03  0.22820892819E+03  0.12509249041E+03 0.  0.
          5    1    3    3  502    0 -0.19749040858E+02  0.82508914257E+02  0.14874291703E+03  0.17128827547E+03  0.41800000000E+01 0. -1.
         -5    1    3    3    0  502 -0.14788230436E+02 -0.42460421971E+02  0.34654135590E+02  0.56920652727E+02  0.41800000000E+01 0. -1.
        -11    1    1    2    0    0  0.23043027881E+02  0.25888303865E+02  0.38585843042E+02  0.51865717909E+02  0.00000000000E+00 0. -1.
         11    1    1    2    0    0  0.11494243412E+02 -0.65936796151E+02  0.14125820950E+03  0.15631270092E+03  0.00000000000E+00 0.  1.
</event>
<event>
 7    1  0.2651429E-009  0.8405753E+02  0.7561462E-02  0.1317916E+00
         -1   -1    0    0    0  501 -0.00000000000E+00  0.00000000000E+00  0.43061568761E+03  0.43061568761E+03  0.00000000000E+00 0.  1.
          1   -1    0    0  501    0  0.00000000000E+00 -0.00000000000E+00 -0.52831388156E+02  0.52831388156E+02  0.00000000000E+00 0. -1.
         25    2    1    2    0    0 -0.31630288801E+02  0.71538700159E+01  0.36912674261E+03  0.39109484654E+03  0.12509585866E+03 0.  0.
          5    1    3    3  502    0 -0.40722485575E+00  0.34675300855E+02  0.33579986778E+03  0.33761156071E+03  0.41800000000E+01 0.  1.
         -5    1    3    3    0  502 -0.31223063945E+02 -0.27521430839E+02  0.33326874827E+02  0.53483285831E+02  0.41800000000E+01 0.  1.
        -11    1    1    2    0    0  0.25433150788E+02 -0.45707744511E+02 -0.21726983886E+00  0.52307650238E+02  0.00000000000E+00 0.  1.
         11    1    1    2    0    0  0.61971380125E+01  0.38553874495E+02  0.88748266912E+01  0.40044578995E+02  0.00000000000E+00 0. -1.
</event>
<event>
 7    1  0.2651429E-009  0.7134480E+02  0.7561462E-02  0.1355579E+00
          1   -1    0    0  501    0  0.00000000000E+00  0.00000000000E+00  0.26679849034E+03  0.26679849034E+03  0.00000000000E+00 0. -1.
         -1   -1    0    0    0  501 -0.00000000000E+00 -0.00000000000E+00 -0.48463753004E+02  0.48463753004E+02  0.00000000000E+00 0.  1.
         25    2    1    2    0    0 -0.17841031157E+02  0.63953459694E+01  0.16338593395E+03  0.20664212872E+03  0.12508718202E+03 0.  0.
          5    1    3    3  502    0  0.37422951299E+01 -0.37841476700E+02  0.15092282225E+03  0.15569570581E+03  0.41800000000E+01 0.  1.
         -5    1    3    3    0  502 -0.21583326287E+02  0.44236822670E+02  0.12463111694E+02  0.50946422903E+02  0.41800000000E+01 0.  1.
        -11    1    1    2    0    0  0.23202387424E+01  0.22295594794E+02 -0.17975106018E+02  0.28732933915E+02  0.00000000000E+00 0.  1.
         11    1    1    2    0    0  0.15520792415E+02 -0.28690940763E+02  0.72923909408E+02  0.79887180714E+02  0.00000000000E+00 0. -1.
</event>
<event>
 7    1  0.2651429E-009  0.8310634E+02  0.7561462E-02  0.1320460E+00
          1   -1    0    0  501    0  0.00000000000E+00  0.00000000000E+00  0.26155127320E+03  0.26155127320E+03  0.00000000000E+00 0. -1.
         -1   -1    0    0    0  501 -0.00000000000E+00 -0.00000000000E+00 -0.76015258330E+02  0.76015258330E+02  0.00000000000E+00 0.  1.
         25    2    1    2    0    0  0.63306871115E+02 -0.11774129349E+02  0.25933480116E+02  0.14305740110E+03  0.12508590875E+03 0.  0.
          5    1    3    3  502    0  0.56008553319E+02 -0.64696680712E+01 -0.44485903560E+02  0.71939437483E+02  0.41800000000E+01 0.  1.
         -5    1    3    3    0  502  0.72983177957E+01 -0.53044612777E+01  0.70419383677E+02  0.71117963620E+02  0.41800000000E+01 0.  1.
        -11    1    1    2    0    0 -0.54968418812E+02 -0.26172596611E+02  0.13611285315E+03  0.14910815093E+03  0.00000000000E+00 0. -1.
         11    1    1    2    0    0 -0.83384523026E+01  0.37946725959E+02  0.23489681607E+02  0.45400979503E+02  0.00000000000E+00 0.  1.
</event>
<event>
 7    1  0.2651429E-009  0.1031843E+03  0.7561462E-02  0.1273739E+00
          1   -1    0    0  501    0  0.00000000000E+00  0.00000000000E+00  0.18820508135E+03  0.18820508135E+03  0.00000000000E+00 0. -1.
         -1   -1    0    0    0  501 -0.00000000000E+00 -0.00000000000E+00 -0.82202749535E+02  0.82202749535E+02  0.00000000000E+00 0.  1.
         25    2    1    2    0    0  0.45637666278E+02 -0.34201263525E+02  0.37564765417E+02  0.14251529143E+03  0.12508786384E+03 0.  0.
          5    1    3    3  502    0 -0.22439421068E+02 -0.60272662507E+02  0.16886312107E+02  0.66625381051E+02  0.41800000000E+01 0.  1.
         -5    1    3    3    0  502  0.68077087345E+02  0.26071398982E+02  0.20678453310E+02  0.75889910381E+02  0.41800000000E+01 0.  1.
        -11    1    1    2    0    0 -0.51644002252E+02  0.23744034376E+02 -0.15614779964E+01  0.56862292871E+02  0.00000000000E+00 0.  1.
         11    1    1    2    0    0  0.60063359745E+01  0.10457229149E+02  0.69999044398E+02  0.71030246585E+02  0.00000000000E+00 0. -1.
</event>
<event>
 7    1  0.2651429E-009  0.1317376E+03  0.7561462E-02  0.1224900E+00
         -2   -1    0    0    0  501 -0.00000000000E+00  0.00000000000E+00  0.38363830267E+02  0.38363830267E+02  0.00000000000E+00 0. -1.
          2   -1    0    0  501    0  0.00000000000E+00 -0.00000000000E+00 -0.65379280906E+03  0.65379280906E+03  0.00000000000E+00 0.  1.
         25    2    1    2    0    0  0.92687598705E+02  0.57750510381E+02 -0.40270054394E+03  0.43559290656E+03  0.12508932710E+03 0.  0.
          5    1    3    3  502    0  0.49089094772E+02  0.64721100276E+02 -0.96544609433E+02  0.12624141182E+03  0.41800000000E+01 0. -1.
         -5    1    3    3    0  502  0.43598503932E+02 -0.69705898953E+01 -0.30615593450E+03  0.30935149474E+03  0.41800000000E+01 0. -1.
        -11    1    1    2    0    0  0.11386249415E+02 -0.26940823321E+02 -0.79561424740E+02  0.84767180816E+02  0.00000000000E+00 0.  1.
         11    1    1    2    0    0 -0.10407384812E+03 -0.30809687059E+02 -0.13316701012E+03  0.17179655195E+03  0.00000000000E+00 0. -1.
</event>
<event>
 7    1  0.2651429E-009  0.2126553E+03  0.7561462E-02  0.1139480E+00
          1   -1    0    0  501    0  0.00000000000E+00  0.00000000000E+00  0.40611516574E+03  0.40611516574E+03  0.00000000000E+00 0. -1.
         -1   -1    0    0    0  501 -0.00000000000E+00 -0.00000000000E+00 -0.13740308742E+03  0.13740308742E+03  0.00000000000E+00 0.  1.
         25    2    1    2    0    0  0.76915926028E+02  0.18929027589E+03  0.19350591680E+03  0.30796013805E+03  0.12509212034E+03 0.  0.
          5    1    3    3  502    0  0.32507524480E+02  0.15339420181E+03  0.69877516674E+02  0.17171738419E+03  0.41800000000E+01 0.  1.
         -5    1    3    3    0  502  0.44408401548E+02  0.35896074079E+02  0.12362840013E+03  0.13624275386E+03  0.41800000000E+01 0.  1.
        -11    1    1    2    0    0 -0.71211310506E+02 -0.10591139164E+03  0.82017138488E+02  0.15170723328E+03  0.00000000000E+00 0. -1.
         11    1    1    2    0    0 -0.57046155229E+01 -0.83378884248E+02 -0.68109769619E+01  0.83850881831E+02  0.00000000000E+00 0.  1.
</event>
<event>
 7    1  0.2651429E-009  0.1081710E+03  0.7561462E-02  0.1263995E+00
         -1   -1    0    0    0  501 -0.00000000000E+00  0.00000000000E+00  0.49569433971E+02  0.49569433971E+02  0.00000000000E+00 0.  1.
          1   -1    0    0  501    0  0.00000000000E+00 -0.00000000000E+00 -0.24331714550E+03  0.24331714550E+03  0.00000000000E+00 0. -1.
         25    2    1    2    0    0  0.16004743217E+02 -0.99471396858E+01 -0.11912721575E+03  0.17376387335E+03  0.12508993867E+03 0.  0.
          5    1    3    3  502    0  0.20881009264E+02  0.56170774446E+02 -0.56732183333E+02  0.82626784250E+02  0.41800000000E+01 0. -1.
         -5    1    3    3    0  502 -0.48762660468E+01 -0.66117914132E+02 -0.62395032420E+02  0.91137089104E+02  0.41800000000E+01 0. -1.
        -11    1    1    2    0    0 -0.46841868145E+02 -0.16041943808E+02 -0.25902924585E+02  0.55879030723E+02  0.00000000000E+00 0.  1.
         11    1    1    2    0    0  0.30837124928E+02  0.25989083493E+02 -0.48717571187E+02  0.63243675392E+02  0.00000000000E+00 0. -1.
</event>
<event>
 7    1  0.2651429E-009  0.2204713E+03  0.7561462E-02  0.1133532E+00
         -1   -1    0    0    0  501 -0.00000000000E+00  0.00000000000E+00  0.10484157189E+03  0.10484157189E+03  0.00000000000E+00 0.  1.
          1   -1    0    0  501    0  0.00000000000E+00 -0.00000000000E+00 -0.51075896445E+03  0.51075896445E+03  0.00000000000E+00 0. -1.
         25    2    1    2    0    0  0.14357230497E+03 -0.11113635423E+03 -0.19423493857E+03  0.29383495162E+03  0.12508985347E+03 0.  0.
          5    1    3    3  502    0 -0.22571202010E+02 -0.13413891148E+02 -0.14653888146E+02  0.30357873340E+02  0.41800000000E+01 0.  1.
         -5    1    3    3    0  502  0.16614350699E+03 -0.97722463083E+02 -0.17958105043E+03  0.26347707828E+03  0.41800000000E+01 0.  1.
        -11    1    1    2    0    0 -0.57889999843E+02  0.12214769399E+03 -0.18915695541E+03  0.23249013959E+03  0.00000000000E+00 0.  1.
         11    1    1    2    0    0 -0.85682305132E+02 -0.11011339760E+02 -0.22525498581E+02  0.89275445125E+02  0.00000000000E+00 0. -1.
</event>
<event>
 7    1  0.2651429E-009  0.1104908E+03  0.7561462E-02  0.1259664E+00
          2   -1    0    0  501    0  0.00000000000E+00  0.00000000000E+00  0.59298912207E+03  0.59298912207E+03  0.00000000000E+00 0. -1.
         -2   -1    0    0    0  501 -0.00000000000E+00 -0.00000000000E+00 -0.23240505162E+02  0.23240505162E+02  0.00000000000E+00 0.  1.
         25    2    1    2    0    0  0.41727962797E+02 -0.68997309352E+01  0.38103402644E+03  0.40326590463E+03  0.12509049269E+03 0.  0.
          5    1    3    3  502    0 -0.23592857737E+02  0.36566417903E+02  0.70572791582E+02  0.83016366857E+02  0.41800000000E+01 0.  1.
         -5    1    3    3    0  502  0.65320820534E+02 -0.43466148838E+02  0.31046123486E+03  0.32024953777E+03  0.41800000000E+01 0.  1.
        -11    1    1    2    0    0 -0.69919996536E+02  0.12031555990E+01  0.13416444994E+03  0.15129558198E+03  0.00000000000E+00 0.  1.
         11    1    1    2    0    0  0.28192033739E+02  0.56965753362E+01  0.54550140531E+02  0.61668140630E+02  0.00000000000E+00 0. -1.
</event>
<event>
 7    1  0.2651429E-009  0.1260153E+03  0.7561462E-02  0.1233491E+00
          3   -1    0    0  501    0  0.00000000000E+00  0.00000000000E+00  0.16359257490E+02  0.16359257490E+02  0.00000000000E+00 0. -1.
         -3   -1    0    0    0  501 -0.00000000000E+00 -0.00000000000E+00 -0.10185211252E+04  0.10185211252E+04  0.00000000000E+00 0.  1.
         25    2    1    2    0    0 -0.43050297907E+02  0.50278329748E+02 -0.66048986261E+03  0.67548173391E+03  0.12508987026E+03 0.  0.
          5    1    3    3  502    0 -0.64637750517E+02 -0.19430626496E+02 -0.28163470100E+03  0.28963971628E+03  0.41800000000E+01 0. -1.
         -5    1    3    3    0  502  0.21587452610E+02  0.69708956245E+02 -0.37885516161E+03  0.38584201763E+03  0.41800000000E+01 0. -1.
        -11    1    1    2    0    0 -0.74182883450E+01 -0.59539893942E+02 -0.17430888145E+03  0.18434645677E+03  0.00000000000E+00 0. -1.
         11    1    1    2    0    0  0.50468586252E+02  0.92615641944E+01 -0.16736312368E+03  0.17505219204E+03  0.00000000000E+00 0.  1.
</event>
<event>
 7    1  0.2651429E-009  0.1058430E+03  0.7561462E-02  0.1268468E+00
          2   -1    0    0  501    0  0.00000000000E+00  0.00000000000E+00  0.17575830443E+03  0.17575830443E+03  0.00000000000E+00 0.  1.
         -2   -1    0    0    0  501 -0.00000000000E+00 -0.00000000000E+00 -0.10274210277E+03  0.10274210277E+03  0.00000000000E+00 0. -1.
         25    2    1    2    0    0  0.72957592958E+02 -0.90131927918E+01  0.96943564379E+01  0.14541730147E+03  0.12509261771E+03 0.  0.
          5    1    3    3  502    0  0.37346044094E+02 -0.63001210135E+02 -0.17038096017E+02  0.75310348584E+02  0.41800000000E+01 0.  1.
         -5    1    3    3    0  502  0.35611548864E+02  0.53988017343E+02  0.26732452455E+02  0.70106952889E+02  0.41800000000E+01 0.  1.
        -11    1    1    2    0    0 -0.58199069502E+02  0.75654675870E+01  0.87119191294E+02  0.10504342665E+03  0.00000000000E+00 0.  1.
         11    1    1    2    0    0 -0.14758523456E+02  0.14477252049E+01 -0.23797346067E+02  0.28039679076E+02  0.00000000000E+00 0. -1.
</event>
<event>
 7    1  0.2651429E-009  0.7704725E+02  0.7561462E-02  0.1337646E+00
          1   -1    0    0  501    0  0.00000000000E+00  0.00000000000E+00  0.10299574150E+03  0.10299574150E+03  0.00000000000E+00 0. -1.
         -1   -1    0    0    0  501 -0.00000000000E+00 -0.00000000000E+00 -0.13447883532E+03  0.13447883532E+03  0.00000000000E+00 0.  1.
         25    2    1    2    0    0  0.79369316270E+01  0.97682333233E+01 -0.73238670651E+02  0.14549962041E+03  0.12509126026E+03 0.  0.
          5    1    3    3  502    0  0.59316626276E+02  0.24707911959E+02 -0.64465770844E+02  0.91116689342E+02  0.41800000000E+01 0. -1.
         -5    1    3    3    0  502 -0.51379694649E+02 -0.14939678636E+02 -0.87728998075E+01  0.54382931063E+02  0.41800000000E+01 0. -1.
        -11    1    1    2    0    0 -0.28468419198E+01 -0.22312577826E+02  0.62937622757E+02  0.66836367319E+02  0.00000000000E+00 0. -1.
         11    1    1    2    0    0 -0.50900897072E+01  0.12544344502E+02 -0.21182045929E+02  0.25138589101E+02  0.00000000000E+00 0.  1.
</event>
<event>
 7    1  0.2651429E-009  0.3102573E+03  0.7561462E-02  0.1080223E+00
          1   -1    0    0  501    0  0.00000000000E+00  0.00000000000E+00  0.84293991413E+03  0.84293991413E+03  0.00000000000E+00 0. -1.
         -1   -1    0    0    0  501 -0.00000000000E+00 -0.00000000000E+00 -0.12396913221E+03  0.12396913221E+03  0.00000000000E+00 0.  1.
         25    2    1    2    0    0 -0.98760704038E+02 -0.28068284080E+03  0.46193943550E+03  0.56353342491E+03  0.12508135405E+03 0.  0.
          5    1    3    3  502    0 -0.58709093686E+02 -0.26159423333E+03  0.43633656202E+03  0.51213803643E+03  0.41800000000E+01 0. -1.
         -5    1    3    3    0  502 -0.40051610351E+02 -0.19088607470E+02  0.25602873479E+02  0.51395388482E+02  0.41800000000E+01 0. -1.
        -11    1    1    2    0    0  0.77329585743E+02  0.10275222493E+03  0.13566863957E+03  0.18693278023E+03  0.00000000000E+00 0.  1.
         11    1    1    2    0    0  0.21431118294E+02  0.17793061587E+03  0.12136270684E+03  0.21644284120E+03  0.00000000000E+00 0. -1.
</event>
<event>
 7    1  0.2651429E-009  0.1116560E+03  0.7561462E-02  0.1257534E+00
         -1   -1    0    0    0  501 -0.00000000000E+00  0.00000000000E+00  0.67435770983E+03  0.67435770983E+03  0.00000000000E+00 0.  1.
          1   -1    0    0  501    0  0.00000000000E+00 -0.00000000000E+00 -0.21146151772E+02  0.21146151772E+02  0.00000000000E+00 0. -1.
         25    2    1    2    0    0 -0.40441895450E+02 -0.27409552432E+02  0.34091398092E+03  0.36640960259E+03  0.12508726559E+03 0.  0.
          5    1    3    3  502    0 -0.60902091380E+01  0.49169370661E+02  0.14284828389E+03  0.15125416447E+03  0.41800000000E+01 0.  1.
         -5    1    3    3    0  502 -0.34351686312E+02 -0.76578923093E+02  0.19806569703E+03  0.21515543812E+03  0.41800000000E+01 0.  1.
        -11    1    1    2    0    0  0.46122642224E+02 -0.13654177722E+02  0.24778504830E+03  0.25241070670E+03  0.00000000000E+00 0.  1.
         11    1    1    2    0    0 -0.56807467742E+01  0.41063730154E+02  0.64512528837E+02  0.76683552311E+02  0.00000000000E+00 0. -1.
</event>
<event>
 7    1  0.2651429E-009  0.1617036E+03  0.7561462E-02  0.1186787E+00
         -1   -1    0    0    0  501 -0.00000000000E+00  0.00000000000E+00  0.39192032869E+02  0.39192032869E+02  0.00000000000E+00 0.  1.
          1   -1    0    0  501    0  0.00000000000E+00 -0.00000000000E+00 -0.68801894958E+03  0.68801894958E+03  0.00000000000E+00 0. -1.
         25    2    1    2    0    0  0.41392085208E+02 -0.11445936180E+03 -0.31681643376E+03  0.36171019543E+03  0.12508941827E+03 0.  0.
          5    1    3    3  502    0  0.84324203909E+02 -0.73446850754E+02 -0.17269163573E+03  0.20577872752E+03  0.41800000000E+01 0. -1.
         -5    1    3    3    0  502 -0.42932118701E+02 -0.41012511046E+02 -0.14412479803E+03  0.15593146791E+03  0.41800000000E+01 0. -1.
        -11    1    1    2    0    0 -0.70347820735E+02  0.72669695866E+02 -0.23857510017E+03  0.25912888492E+03  0.00000000000E+00 0. -1.
         11    1    1    2    0    0  0.28955735527E+02  0.41789665933E+02 -0.93435382781E+02  0.10637190209E+03  0.00000000000E+00 0.  1.
</event>
<event>
 7    1  0.2651429E-009  0.8283054E+02  0.7561462E-02  0.1321205E+00
         -3   -1    0    0    0  501 -0.00000000000E+00  0.00000000000E+00  0.32532084791E+03  0.32532084791E+03  0.00000000000E+00 0.  1.
          3   -1    0    0  501    0  0.00000000000E+00 -0.00000000000E+00 -0.40636291757E+02  0.40636291757E+02  0.00000000000E+00 0. -1.
         25    2    1    2    0    0 -0.26396370174E+02  0.24507093723E+02  0.17833584879E+03  0.22078934721E+03  0.12508754885E+03 0.  0.
          5    1    3    3  502    0 -0.47986793773E+02  0.45662195793E+02  0.36576946753E+02  0.75783335470E+02  0.41800000000E+01 0.  1.
         -5    1    3    3    0  502  0.21590423599E+02 -0.21155102069E+02  0.14175890203E+03  0.14500601174E+03  0.41800000000E+01 0.  1.
        -11    1    1    2    0    0  0.42034192430E+02 -0.29433649730E+01  0.75080997597E+01  0.42800797803E+02  0.00000000000E+00 0. -1.
         11    1    1    2    0    0 -0.15637822256E+02 -0.21563728750E+02  0.98840607612E+02  0.10236699466E+03  0.00000000000E+00 0.  1.
</event>
<event>
 7    1  0.2651429E-009  0.2939793E+03  0.7561462E-02  0.1088290E+00
         -2   -1    0    0    0  501 -0.00000000000E+00  0.00000000000E+00  0.10996953386E+03  0.10996953386E+03  0.00000000000E+00 0.  1.
          2   -1    0    0  501    0  0.00000000000E+00 -0.00000000000E+00 -0.84494236612E+03  0.84494236612E+03  0.00000000000E+00 0. -1.
         25    2    1    2    0    0 -0.96531079410E+02 -0.25678653102E+03 -0.26060157168E+03  0.39852060144E+03  0.12509164161E+03 0.  0.
          5    1    3    3  502    0 -0.78923445733E+02 -0.54700181980E+02 -0.10845153321E+03  0.14491455293E+03  0.41800000000E+01 0. -1.
         -5    1    3    3    0  502 -0.17607633677E+02 -0.20208634904E+03 -0.15215003847E+03  0.25360604851E+03  0.41800000000E+01 0. -1.
        -11    1    1    2    0    0  0.82867781556E+02  0.92889752732E+02 -0.23552661763E+03  0.26639887949E+03  0.00000000000E+00 0. -1.
         11    1    1    2    0    0  0.13663297854E+02  0.16389677829E+03 -0.23884464295E+03  0.28999241906E+03  0.00000000000E+00 0.  1.
</event>
<event>
 7    1  0.2651429E-009  0.1116180E+03  0.7561462E-02  0.1257603E+00
         -2   -1    0    0    0  501 -0.00000000000E+00  0.00000000000E+00  0.31534040874E+02  0.31534040874E+02  0.00000000000E+00 0.  1.
          2   -1    0    0  501    0  0.00000000000E+00 -0.00000000000E+00 -0.60146642260E+03  0.60146642260E+03  0.00000000000E+00 0. -1.
         25    2    1    2    0    0  0.82005318274E+01 -0.27299351297E+02 -0.49422338592E+03  0.51059832072E+03  0.12506552935E+03 0.  0.
          5    1    3    3  502    0 -0.26051978336E+02 -0.68680595737E+02 -0.25636993573E+03  0.26671847734E+03  0.41800000000E+01 0. -1.
         -5    1    3    3    0  502  0.34252510164E+02  0.41381244440E+02 -0.23785345019E+03  0.24387984339E+03  0.41800000000E+01 0. -1.
        -11    1    1    2    0    0  0.17308579068E+02  0.55274869716E+02 -0.40277238137E+02  0.70548947855E+02  0.00000000000E+00 0.  1.
         11    1    1    2    0    0 -0.25509110895E+02 -0.27975518419E+02 -0.35431757674E+02  0.51853194900E+02  0.00000000000E+00 0. -1.
</event>
<event>
 7    1  0.2651429E-009  0.9012641E+02  0.7561462E-02  0.1302546E+00
         -1   -1    0    0    0  501 -0.00000000000E+00  0.00000000000E+00  0.79600668502E+02  0.79600668502E+02  0.00000000000E+00 0.  1.
          1   -1    0    0  501    0  0.00000000000E+00 -0.00000000000E+00 -0.22584105360E+03  0.22584105360E+03  0.00000000000E+00 0. -1.
         25    2    1    2    0    0  0.61437225505E+02  0.97671725781E+01 -0.22720431145E+02  0.14154296964E+03  0.12509302109E+03 0.  0.
          5    1    3    3  502    0  0.54382977854E+02  0.28872213268E+02  0.41282212729E+02  0.74248275853E+02  0.41800000000E+01 0.  1.
         -5    1    3    3    0  502  0.70542476512E+01 -0.19105040690E+02 -0.64002643874E+02  0.67294693792E+02  0.41800000000E+01 0.  1.
        -11    1    1    2    0    0 -0.24634889637E+02  0.33093400611E+02 -0.19731668036E+02  0.45731714104E+02  0.00000000000E+00 0.  1.
         11    1    1    2    0    0 -0.36802335868E+02 -0.42860573189E+02 -0.10378828592E+03  0.11816703835E+03  0.00000000000E+00 0. -1.
</event>
<event>
 7    1  0.2651429E-009  0.7618145E+02  0.7561462E-02  0.1340251E+00
          1   -1    0    0  501    0  0.00000000000E+00  0.00000000000E+00  0.22377561188E+03  0.22377561188E+03  0.00000000000E+00 0. -1.
         -1   -1    0    0    0  501 -0.00000000000E+00 -0.00000000000E+00 -0.62648839143E+02  0.62648839143E+02  0.00000000000E+00 0.  1.
         25    2    1    2    0    0  0.46731704082E+02  0.14573775065E+01  0.71426045507E+02  0.15144521283E+03  0.12509195177E+03 0.  0.
          5    1    3    3  502    0  0.46463863499E+02 -0.36721852352E+02  0.90753299165E+02  0.10844823079E+03  0.41800000000E+01 0. -1.
         -5    1    3    3    0  502  0.26784058312E+00  0.38179229858E+02 -0.19327253657E+02  0.42996982046E+02  0.41800000000E+01 0. -1.
        -11    1    1    2    0    0 -0.13138475167E+02 -0.13556417910E+02 -0.15156309476E+02  0.24209702873E+02  0.00000000000E+00 0.  1.
         11    1    1    2    0    0 -0.33593228916E+02  0.12099040404E+02  0.10485703670E+03  0.11076953532E+03  0.00000000000E+00 0. -1.
</event>
<event>
 7    1  0.2651429E-009  0.1520954E+03  0.7561462E-02  0.1197922E+00
         -4   -1    0    0    0  501 -0.00000000000E+00  0.00000000000E+00  0.18605229101E+03  0.18605229101E+03  0.00000000000E+00 0. -1.
          4   -1    0    0  501    0  0.00000000000E+00 -0.00000000000E+00 -0.19102780231E+03  0.19102780231E+03  0.00000000000E+00 0.  1.
         25    2    1    2    0    0  0.11486567714E+03  0.58556895420E+02 -0.76056342934E+02  0.19507759040E+03  0.12509062790E+03 0.  0.
          5    1    3    3  502    0  0.10446896370E+03  0.31669209677E+02 -0.10676489017E+03  0.15275116167E+03  0.41800000000E+01 0. -1.
         -5    1    3    3    0  502  0.10396713436E+02  0.26887685743E+02  0.30708547240E+02  0.42326428724E+02  0.41800000000E+01 0. -1.
        -11    1    1    2    0    0  0.10756338465E+02 -0.36782154357E+02  0.27864392586E+02  0.47381959336E+02  0.00000000000E+00 0.  1.
         11    1    1    2    0    0 -0.12562201560E+03 -0.21774741063E+02  0.43216439040E+02  0.13462054359E+03  0.00000000000E+00 0. -1.
</event>
<event>
 7    1  0.2651429E-009  0.7155956E+02  0.7561462E-02  0.1354869E+00
          2   -1    0    0  501    0  0.00000000000E+00  0.00000000000E+00  0.33379549797E+03  0.33379549797E+03  0.00000000000E+00 0. -1.
         -2   -1    0    0    0  501 -0.00000000000E+00 -0.00000000000E+00 -0.40834755138E+02  0.40834755138E+02  0.00000000000E+00 0.  1.
         25    2    1    2    0    0 -0.36578993375E+02  0.20619952623E+02  0.19846415874E+03  0.23832414516E+03  0.12508865121E+03 0.  0.
          5    1    3    3  502    0  0.19591504705E+02  0.34743743225E+02  0.16805507460E+03  0.17277423201E+03  0.41800000000E+01 0.  1.
         -5    1    3    3    0  502 -0.56170498080E+02 -0.14123790603E+02  0.30409084140E+02  0.65549913149E+02  0.41800000000E+01 0.  1.
        -11    1    1    2    0    0  0.13031377597E+02  0.87584673622E+00 -0.16372373659E+02  0.20943699024E+02  0.00000000000E+00 0.  1.
         11    1    1    2    0    0  0.23547615778E+02 -0.21495799359E+02  0.11086895775E+03  0.11536240892E+03  0.00000000000E+00 0. -1.
</event>
<event>
 7    1  0.3507324E-009  0.1210270E+03  0.7561462E-02  0.1241412E+00
          1   -1    0    0  501    0  0.00000000000E+00  0.00000000000E+00  0.34496074932E+03  0.34496074932E+03  0.00000000000E+00 0.  1.
         -1   -1    0    0    0  501 -0.00000000000E+00 -0.00000000000E+00 -0.64827613712E+02  0.64827613712E+02  0.00000000000E+00 0. -1.
         25    2    1    2    0    0 -0.32665129278E+02 -0.45999342235E+02  0.33694700827E+02  0.14130026173E+03  0.12508989145E+03 0.  0.
          5    1    3    3  502    0 -0.80513489918E+02 -0.29814546011E+02  0.14879682460E+02  0.87236497882E+02  0.41800000000E+01 0. -1.
         -5    1    3    3    0  502  0.47848360640E+02 -0.16184796224E+02  0.18815018367E+02  0.54063763844E+02  0.41800000000E+01 0. -1.
        -11    1    1    2    0    0  0.63481365175E+02  0.36186745067E+02  0.15169143914E+03  0.16837356370E+03  0.00000000000E+00 0.  1.
         11    1    1    2    0    0 -0.30816235897E+02  0.98125971680E+01  0.94746995633E+02  0.10011453760E+03  0.00000000000E+00 0. -1.
</event>
<event>
 7    1  0.2651429E-009  0.1152113E+03  0.7561462E-02  0.1251213E+00
          2   -1    0    0  501    0  0.00000000000E+00  0.00000000000E+00  0.60039856771E+02  0.60039856771E+02  0.00000000000E+00 0. -1.
         -2   -1    0    0    0  501 -0.00000000000E+00 -0.00000000000E+00 -0.24984794548E+03  0.24984794548E+03  0.00000000000E+00 0.  1.
         25    2    1    2    0    0 -0.17192192407E+02 -0.54707835341E+02 -0.11091413157E+03  0.17674077596E+03  0.12508732381E+03 0.  0.
          5    1    3    3  502    0  0.53247699089E+02 -0.12020191816E+02 -0.50805226139E+02  0.74688994321E+02  0.41800000000E+01 0. -1.
         -5    1    3    3    0  502 -0.70439891497E+02 -0.42687643525E+02 -0.60108905426E+02  0.10205178164E+03  0.41800000000E+01 0. -1.
        -11    1    1    2    0    0  0.45280763897E+02  0.22809044113E+02 -0.74913760061E+02  0.90458120249E+02  0.00000000000E+00 0.  1.
         11    1    1    2    0    0 -0.28088571490E+02  0.31898791228E+02 -0.39801970790E+01  0.42688906041E+02  0.00000000000E+00 0. -1.
</event>
<event>
 7    1  0.2651429E-009  0.9102301E+02  0.7561462E-02  0.1300393E+00
          2   -1    0    0  501    0  0.00000000000E+00  0.00000000000E+00  0.43435218520E+03  0.43435218520E+03  0.00000000000E+00 0. -1.
         -2   -1    0    0    0  501 -0.00000000000E+00 -0.00000000000E+00 -0.33849355251E+02  0.33849355251E+02  0.00000000000E+00 0.  1.
         25    2    1    2    0    0 -0.49569323143E+02  0.14107328894E+02  0.19540054760E+03  0.23766967782E+03  0.12509743094E+03 0.  0.
          5    1    3    3  502    0  0.19652411024E+02  0.19746140971E+02  0.15432033664E+03  0.15687053912E+03  0.41800000000E+01 0.  1.
         -5    1    3    3    0  502 -0.69221734167E+02 -0.56388120773E+01  0.41080210960E+02  0.80799138704E+02  0.41800000000E+01 0.  1.
        -11    1    1    2    0    0  0.38200130781E+02  0.23608208675E+02  0.37931391857E+02  0.58782548403E+02  0.00000000000E+00 0.  1.
         11    1    1    2    0    0  0.11369192362E+02 -0.37715537569E+02  0.16717089049E+03  0.17174931423E+03  0.00000000000E+00 0. -1.
</event>
<event>
 7    1  0.2651429E-009  0.1204949E+03  0.7561462E-02  0.1242283E+00
          1   -1    0    0  501    0  0.00000000000E+00  0.00000000000E+00  0.12921793350E+03  0.12921793350E+03  0.00000000000E+00 0. -1.
         -1   -1    0    0    0  501 -0.00000000000E+00 -0.00000000000E+00 -0.14643050309E+03  0.14643050309E+03  0.00000000000E+00 0.  1.
         25    2    1    2    0    0  0.39926302854E+02 -0.80058010627E+02 -0.14802070824E+02  0.15449979368E+03  0.12509072796E+03 0.  0.
          5    1    3    3  502    0 -0.57487173815E+01 -0.73538324561E+02  0.38965713834E+02  0.83526835121E+02  0.41800000000E+01 0. -1.
         -5    1    3    3    0  502  0.45675020236E+02 -0.65196860659E+01 -0.53767784658E+02  0.70972958562E+02  0.41800000000E+01 0. -1.
        -11    1    1    2    0    0 -0.36187379152E+02  0.96948754244E+02  0.11393162099E+01  0.10348857619E+03  0.00000000000E+00 0.  1.
         11    1    1    2    0    0 -0.37389237023E+01 -0.16890743618E+02 -0.35498149755E+01  0.17660066726E+02  0.00000000000E+00 0. -1.
</event>
<event>
 7    1  0.2651429E-009  0.1256519E+03  0.7561462E-02  0.1234054E+00
         -2   -1    0    0    0  501 -0.00000000000E+00  0.00000000000E+00  0.66454101162E+02  0.66454101162E+02  0.00000000000E+00 0.  1.
          2   -1    0    0  501    0  0.00000000000E+00 -0.00000000000E+00 -0.26716520768E+03  0.26716520768E+03  0.00000000000E+00 0. -1.
         25    2    1    2    0    0  0.52234609643E+02 -0.56132622229E+02 -0.13499565895E+03  0.19935867035E+03  0.12506288733E+03 0.  0.
          5    1    3    3  502    0 -0.36647055354E+02 -0.17304430824E+02 -0.11621002150E+02  0.42367087264E+02  0.41800000000E+01 0. -1.
         -5    1    3    3    0  502  0.88881664997E+02 -0.38828191405E+02 -0.12337465680E+03  0.15699158309E+03  0.41800000000E+01 0. -1.
        -11    1    1    2    0    0 -0.26535485621E+02  0.76318488310E+02 -0.30889177899E+02  0.86503092236E+02  0.00000000000E+00 0.  1.
         11    1    1    2    0    0 -0.25699124022E+02 -0.20185866081E+02 -0.34826269667E+02  0.47757546251E+02  0.00000000000E+00 0. -1.
</event>
<event>
 7    1  0.2651429E-009  0.1006471E+03  0.7561462E-02  0.1278941E+00
          1   -1    0    0  501    0  0.00000000000E+00  0.00000000000E+00  0.76657100900E+01  0.76657100900E+01  0.00000000000E+00 0. -1.
         -1   -1    0    0    0  501 -0.00000000000E+00 -0.00000000000E+00 -0.19221798312E+04  0.19221798312E+04  0.00000000000E+00 0.  1.
         25    2    1    2    0    0  0.81548501348E+01 -0.33484973338E+02 -0.14202916951E+04  0.14262059797E+04  0.12508897839E+03 0.  0.
          5    1    3    3  502    0  0.50128995649E+02 -0.36505205943E+02 -0.12157782725E+04  0.12173659378E+04  0.41800000000E+01 0. -1.
         -5    1    3    3    0  502 -0.41974145514E+02  0.30202326049E+01 -0.20451342255E+03  0.20884004190E+03  0.41800000000E+01 0. -1.
        -11    1    1    2    0    0 -0.44230885008E+02  0.40647037145E+02 -0.31677339452E+03  0.32241888328E+03  0.00000000000E+00 0.  1.
         11    1    1    2    0    0  0.36076034873E+02 -0.71620638068E+01 -0.17744903155E+03  0.18122067831E+03  0.00000000000E+00 0. -1.
</event>
<event>
 7    1  0.2651429E-009  0.1076738E+03  0.7561462E-02  0.1264939E+00
         -1   -1    0    0    0  501 -0.00000000000E+00  0.00000000000E+00  0.47453519067E+03  0.47453519067E+03  0.00000000000E+00 0.  1.
          1   -1    0    0  501    0  0.00000000000E+00 -0.00000000000E+00 -0.29879930303E+02  0.29879930303E+02  0.00000000000E+00 0. -1.
         25    2    1    2    0    0  0.29169598353E+02  0.18443226804E+02  0.33390989700E+03  0.35823774506E+03  0.12508974614E+03 0.  0.
          5    1    3    3  502    0 -0.76711042949E+01  0.67562313976E+02  0.18231676799E+03  0.19462884781E+03  0.41800000000E+01 0.  1.
         -5    1    3    3    0  502  0.36840702647E+02 -0.49119087172E+02  0.15159312901E+03  0.16360889725E+03  0.41800000000E+01 0.  1.
        -11    1    1    2    0    0 -0.24162911290E+02 -0.49044087681E+02  0.98857542466E+02  0.11296894494E+03  0.00000000000E+00 0.  1.
         11    1    1    2    0    0 -0.50066870622E+01  0.30600860877E+02  0.11887820901E+02  0.33208430971E+02  0.00000000000E+00 0. -1.
</event>
<event>
 7    1  0.2651429E-009  0.9651980E+02  0.7561462E-02  0.1287789E+00
         -2   -1    0    0    0  501 -0.00000000000E+00  0.00000000000E+00  0.90595577196E+03  0.90595577196E+03  0.00000000000E+00 0.  1.
          2   -1    0    0  501    0  0.00000000000E+00 -0.00000000000E+00 -0.14403517510E+02  0.14403517510E+02  0.00000000000E+00 0. -1.
         25    2    1    2    0    0  0.71885593851E+01 -0.52186948474E+01  0.66234211058E+03  0.67410852413E+03  0.12508525368E+03 0.  0.
          5    1    3    3  502    0  0.11860657219E+02 -0.53467161139E+02  0.53460426760E+03  0.53741846623E+03  0.41800000000E+01 0. -1.
         -5    1    3    3    0  502 -0.46720978343E+01  0.48248466291E+02  0.12773784298E+03  0.13669005789E+03  0.41800000000E+01 0. -1.
        -11    1    1    2    0    0 -0.41190751372E+02  0.26841349714E+02  0.13938376500E+03  0.14780043978E+03  0.00000000000E+00 0.  1.
         11    1    1    2    0    0  0.34002191987E+02 -0.21622654867E+02  0.89826378864E+02  0.98450325561E+02  0.00000000000E+00 0. -1.
</event>
<event>
 7    1  0.2651429E-009  0.1221743E+03  0.7561462E-02  0.1239553E+00
         -2   -1    0    0    0  501 -0.00000000000E+00  0.00000000000E+00  0.32059195518E+02  0.32059195518E+02  0.00000000000E+00 0.  1.
          2   -1    0    0  501    0  0.00000000000E+00 -0.00000000000E+00 -0.67605936426E+03  0.67605936426E+03  0.00000000000E+00 0. -1.
         25    2    1    2    0    0 -0.32866854724E+02  0.46531561051E+02 -0.15385791061E+03  0.20630985716E+03  0.12508430833E+03 0.  0.
          5    1    3    3  502    0 -0.28888884064E+02  0.89172018472E+02 -0.11410535654E+03  0.14772853919E+03  0.41800000000E+01 0.  1.
         -5    1    3    3    0  502 -0.39779706600E+01 -0.42640457421E+02 -0.39752554069E+02  0.58581317966E+02  0.41800000000E+01 0.  1.
        -11    1    1    2    0    0  0.36475083083E+02  0.19500691540E+02 -0.17902364614E+03  0.18373942020E+03  0.00000000000E+00 0. -1.
         11    1    1    2    0    0 -0.36082283595E+01 -0.66032252591E+02 -0.31111861198E+03  0.31806928242E+03  0.00000000000E+00 0.  1.
</event>
<event>
 7    1  0.2651429E-009  0.1050067E+03  0.7561462E-02  0.1270106E+00
          2   -1    0    0  501    0  0.00000000000E+00  0.00000000000E+00  0.22313907648E+04  0.22313907648E+04  0.00000000000E+00 0. -1.
         -2   -1    0    0    0  501 -0.00000000000E+00 -0.00000000000E+00 -0.73677443194E+01  0.73677443194E+01  0.00000000000E+00 0.  1.
         25    2    1    2    0    0 -0.17839775963E+02  0.36832328011E+02  0.17333105338E+04  0.17383002388E+04  0.12508971046E+03 0.  0.
          5    1    3    3  502    0  0.12409522982E+02  0.68057832399E+02  0.14488177862E+04  0.14504745137E+04  0.41800000000E+01 0.  1.
         -5    1    3    3    0  502 -0.30249298945E+02 -0.31225504389E+02  0.28449274761E+03  0.28782572514E+03  0.41800000000E+01 0.  1.
        -11    1    1    2    0    0  0.37491340264E+02  0.15925160805E+02  0.16768504730E+03  0.17256154389E+03  0.00000000000E+00 0.  1.
         11    1    1    2    0    0 -0.19651564301E+02 -0.52757488816E+02  0.32302743935E+03  0.32789672640E+03  0.00000000000E+00 0. -1.
</event>
<event>
 7    1  0.2651429E-009  0.1192116E+03  0.7561462E-02  0.1244403E+00
          2   -1    0    0  501    0  0.00000000000E+00  0.00000000000E+00  0.16624641984E+03  0.16624641984E+03  0.00000000000E+00 0. -1.
         -2   -1    0    0    0  501 -0.00000000000E+00 -0.00000000000E+00 -0.90711889833E+02  0.90711889833E+02  0.00000000000E+00 0.  1.
         25    2    1    2    0    0  0.51333265258E+02  0.25979241892E+02  0.39263204741E+02  0.14317494868E+03  0.12508973400E+03 0.  0.
          5    1    3    3  502    0 -0.16295897057E+02 -0.39144782262E+02  0.39905637829E+01  0.42793308339E+02  0.41800000000E+01 0. -1.
         -5    1    3    3    0  502  0.67629162316E+02  0.65124024154E+02  0.35272640958E+02  0.10038164034E+03  0.41800000000E+01 0. -1.
        -11    1    1    2    0    0 -0.12403269652E+01 -0.47356248592E+02  0.35697735293E+02  0.59316785118E+02  0.00000000000E+00 0. -1.
         11    1    1    2    0    0 -0.50092938293E+02  0.21377006700E+02  0.57358997459E+00  0.54466575877E+02  0.00000000000E+00 0.  1.
</event>
<event>
 7    1  0.2651429E-009  0.9985805E+02  0.7561462E-02  0.1280595E+00
          1   -1    0    0  501    0  0.00000000000E+00  0.00000000000E+00  0.38804795560E+03  0.38804795560E+03  0.00000000000E+00 0. -1.
         -1   -1    0    0    0  501 -0.00000000000E+00 -0.00000000000E+00 -0.42709701509E+02  0.42709701509E+02  0.00000000000E+00 0.  1.
         25    2    1    2    0    0 -0.59913282546E+02 -0.30552178992E+02  0.18764932984E+03  0.23533609251E+03  0.12509104037E+03 0.  0.
          5    1    3    3  502    0 -0.67553458101E+02 -0.33447632111E+02  0.36408133598E+02  0.83816695159E+02  0.41800000000E+01 0.  1.
         -5    1    3    3    0  502  0.76401755554E+01  0.28954531197E+01  0.15124119624E+03  0.15151939735E+03  0.41800000000E+01 0.  1.
        -11    1    1    2    0    0  0.65347494984E+02 -0.16724936991E+02  0.84498153204E+02  0.10812010226E+03  0.00000000000E+00 0. -1.
         11    1    1    2    0    0 -0.54342124386E+01  0.47277115982E+02  0.73190771040E+02  0.87301462335E+02  0.00000000000E+00 0.  1.
</event>
<event>
 7    1  0.2651429E-009  0.1080905E+03  0.7561462E-02  0.1264147E+00
          3   -1    0    0  501    0  0.00000000000E+00  0.00000000000E+00  0.12686836208E+03  0.12686836208E+03  0.00000000000E+00 0. -1.
         -3   -1    0    0    0  501 -0.00000000000E+00 -0.00000000000E+00 -0.10834973363E+03  0.10834973363E+03  0.00000000000E+00 0.  1.
         25    2    1    2    0    0 -0.22527735148E+02  0.40485164120E+02  0.25161276841E+02  0.13574476896E+03  0.12508798936E+03 0.  0.
          5    1    3    3  502    0  0.31693004193E+02  0.63090874616E+02  0.29628524344E+02  0.76682637079E+02  0.41800000000E+01 0.  1.
         -5    1    3    3    0  502 -0.54220739341E+02 -0.22605710496E+02 -0.44672475028E+01  0.59062131878E+02  0.41800000000E+01 0.  1.
        -11    1    1    2    0    0  0.26125520581E+02 -0.60670905460E+02 -0.26270687466E+02  0.71089033014E+02  0.00000000000E+00 0.  1.
         11    1    1    2    0    0 -0.35977854326E+01  0.20185741340E+02  0.19628039074E+02  0.28384293744E+02  0.00000000000E+00 0. -1.
</event>
<event>
 7    1  0.2651429E-009  0.1253221E+03  0.7561462E-02  0.1234567E+00
          1   -1    0    0  501    0  0.00000000000E+00  0.00000000000E+00  0.47479702823E+03  0.47479702823E+03  0.00000000000E+00 0. -1.
         -1   -1    0    0    0  501 -0.00000000000E+00 -0.00000000000E+00 -0.42219085511E+02  0.42219085511E+02  0.00000000000E+00 0.  1.
         25    2    1    2    0    0  0.50798271680E+02  0.64080075947E+02  0.28306918720E+03  0.32009633063E+03  0.12508707206E+03 0.  0.
          5    1    3    3  502    0  0.83975474199E+02  0.76294474181E+02  0.20642177126E+03  0.23558469201E+03  0.41800000000E+01 0. -1.
         -5    1    3    3    0  502 -0.33177202519E+02 -0.12214398234E+02  0.76647415940E+02  0.84511638615E+02  0.41800000000E+01 0. -1.
        -11    1    1    2    0    0 -0.56411597332E+00 -0.49079392143E+02  0.13329374457E+03  0.14204339936E+03  0.00000000000E+00 0. -1.
         11    1    1    2    0    0 -0.50234155707E+02 -0.15000683804E+02  0.16215010944E+02  0.54876383755E+02  0.00000000000E+00 0.  1.
</event>
<event>
 7    1  0.2651429E-009  0.1196023E+03  0.7561462E-02  0.1243755E+00
          1   -1    0    0  501    0  0.00000000000E+00  0.00000000000E+00  0.33348888753E+03  0.33348888753E+03  0.00000000000E+00 0. -1.
         -1   -1    0    0    0  501 -0.00000000000E+00 -0.00000000000E+00 -0.57935018267E+02  0.57935018267E+02  0.00000000000E+00 0.  1.
         25    2    1    2    0    0 -0.85032588984E+01  0.85876849123E+02  0.13096598387E+03  0.20058983430E+03  0.12504820698E+03 0.  0.
          5    1    3    3  502    0 -0.44952923299E+02  0.65564208209E+02  0.13677418643E+03  0.15825321856E+03  0.41800000000E+01 0. -1.
         -5    1    3    3    0  502  0.36449664401E+02  0.20312640914E+02 -0.58082025588E+01  0.42336615746E+02  0.41800000000E+01 0. -1.
        -11    1    1    2    0    0  0.42482300096E+02 -0.29091762531E+02  0.95304239823E+02  0.10832347205E+03  0.00000000000E+00 0. -1.
         11    1    1    2    0    0 -0.33979041198E+02 -0.56785086592E+02  0.49283645575E+02  0.82510599447E+02  0.00000000000E+00 0.  1.
</event>
<event>
 7    1  0.2651429E-009  0.1136495E+03  0.7561462E-02  0.1253957E+00
          2   -1    0    0  501    0  0.00000000000E+00  0.00000000000E+00  0.52200940177E+02  0.52200940177E+02  0.00000000000E+00 0. -1.
         -2   -1    0    0    0  501 -0.00000000000E+00 -0.00000000000E+00 -0.38856832849E+03  0.38856832849E+03  0.00000000000E+00 0.  1.
         25    2    1    2    0    0 -0.57165619639E+02  0.54323610886E+02 -0.10996387126E+03  0.18427923721E+03  0.12509125276E+03 0.  0.
          5    1    3    3  502    0  0.11016623593E+02 -0.29751186422E+02 -0.31611290485E+01  0.32155314114E+02  0.41800000000E+01 0. -1.
         -5    1    3    3    0  502 -0.68182243232E+02  0.84074797308E+02 -0.10680274222E+03  0.15212392310E+03  0.41800000000E+01 0. -1.
        -11    1    1    2    0    0  0.15395979410E+02 -0.39924017394E+02 -0.23472253512E+02  0.48804815663E+02  0.00000000000E+00 0. -1.
         11    1    1    2    0    0  0.41769640229E+02 -0.14399593491E+02 -0.20293126354E+03  0.20768521579E+03  0.00000000000E+00 0.  1.
</event>
<event>
 7    1  0.2651429E-009  0.1289771E+03  0.7561462E-02  0.1228981E+00
         -2   -1    0    0    0  501 -0.00000000000E+00  0.00000000000E+00  0.91920100551E+02  0.91920100551E+02  0.00000000000E+00 0. -1.
          2   -1    0    0  501    0  0.00000000000E+00 -0.00000000000E+00 -0.24206837682E+03  0.24206837682E+03  0.00000000000E+00 0.  1.
         25    2    1    2    0    0  0.36316715091E+02 -0.59649666684E+02 -0.63457823330E+02  0.15668803537E+03  0.12508900254E+03 0.  0.
          5    1    3    3  502    0  0.14212979325E+02 -0.97302518208E+02 -0.52180517502E+02  0.11140048311E+03  0.41800000000E+01 0. -1.
         -5    1    3    3    0  502  0.22103735766E+02  0.37652851523E+02 -0.11277305828E+02  0.45287552256E+02  0.41800000000E+01 0. -1.
        -11    1    1    2    0    0 -0.16380013040E+02 -0.24344173295E+02  0.23307209343E+02  0.37472251173E+02  0.00000000000E+00 0. -1.
         11    1    1    2    0    0 -0.19936702051E+02  0.83993839979E+02 -0.10999766228E+03  0.13982819083E+03  0.00000000000E+00 0.  1.
</event>
<event>
 7    1  0.2651429E-009  0.1615682E+03  0.7561462E-02  0.1186938E+00
          1   -1    0    0  501    0  0.00000000000E+00  0.00000000000E+00  0.49785797302E+03  0.49785797302E+03  0.00000000000E+00 0. -1.
         -1   -1    0    0    0  501 -0.00000000000E+00 -0.00000000000E+00 -0.63007755549E+02  0.63007755549E+02  0.00000000000E+00 0.  1.
         25    2    1    2    0    0 -0.58511003502E+01  0.14165133068E+03  0.21774792619E+03  0.28837633224E+03  0.12508962699E+03 0.  0.
          5    1    3    3  502    0  0.31615412482E+02  0.13905799777E+03  0.13072182398E+03  0.19350020340E+03  0.41800000000E+01 0. -1.
         -5    1    3    3    0  502 -0.37466512832E+02  0.25933329084E+01  0.87026102205E+02  0.94876128844E+02  0.41800000000E+01 0. -1.
        -11    1    1    2    0    0 -0.43595639879E+01 -0.85316242461E+02  0.19166244981E+03  0.20983889461E+03  0.00000000000E+00 0. -1.
         11    1    1    2    0    0  0.10210664338E+02 -0.56335088215E+02  0.25439841468E+02  0.62650501709E+02  0.00000000000E+00 0.  1.
</event>
<event>
 7    1  0.2651429E-009  0.9596761E+02  0.7561462E-02  0.1289012E+00
         -1   -1    0    0    0  501 -0.00000000000E+00  0.00000000000E+00  0.17893331815E+03  0.17893331815E+03  0.00000000000E+00 0.  1.
          1   -1    0    0  501    0  0.00000000000E+00 -0.00000000000E+00 -0.94302962879E+02  0.94302962879E+02  0.00000000000E+00 0. -1.
         25    2    1    2    0    0 -0.53478968866E+02  0.35205349659E+02  0.15274860668E+02  0.14135177601E+03  0.12509031320E+03 0.  0.
          5    1    3    3  502    0 -0.15080325425E+02  0.70442609706E+02  0.41093585703E+02  0.83040548307E+02  0.41800000000E+01 0. -1.
         -5    1    3    3    0  502 -0.38398643442E+02 -0.35237260047E+02 -0.25818725035E+02  0.58311227703E+02  0.41800000000E+01 0. -1.
        -11    1    1    2    0    0  0.22820049459E+02 -0.29832406606E+01 -0.21012694814E+02  0.31163884955E+02  0.00000000000E+00 0. -1.
         11    1    1    2    0    0  0.30658919408E+02 -0.32222108999E+02  0.90368189419E+02  0.10072062007E+03  0.00000000000E+00 0.  1.
</event>
<event>
 7    1  0.2651429E-009  0.1275594E+03  0.7561462E-02  0.1231123E+00
          3   -1    0    0  501    0  0.00000000000E+00  0.00000000000E+00  0.52021028293E+02  0.52021028293E+02  0.00000000000E+00 0. -1.
         -3   -1    0    0    0  501 -0.00000000000E+00 -0.00000000000E+00 -0.44878563264E+03  0.44878563264E+03  0.00000000000E+00 0.  1.
         25    2    1    2    0    0 -0.20694972026E+02  0.69052136953E+02 -0.34277625028E+03  0.37194054687E+03  0.12509089959E+03 0.  0.
          5    1    3    3  502    0 -0.15657416277E+02 -0.34938170766E+02 -0.11939800977E+03  0.12545591895E+03  0.41800000000E+01 0.  1.
         -5    1    3    3    0  502 -0.50375557486E+01  0.10399030772E+03 -0.22337824051E+03  0.24648462792E+03  0.41800000000E+01 0.  1.
        -11    1    1    2    0    0  0.46244808687E+02 -0.89518840923E+01 -0.52841680211E+01  0.47398744614E+02  0.00000000000E+00 0. -1.
         11    1    1    2    0    0 -0.25549836661E+02 -0.60100252860E+02 -0.48704186039E+02  0.81467369449E+02  0.00000000000E+00 0.  1.
</event>
<event>
 7    1  0.2651429E-009  0.1257045E+03  0.7561462E-02  0.1233972E+00
         -2   -1    0    0    0  501 -0.00000000000E+00  0.00000000000E+00  0.22651798861E+02  0.22651798861E+02  0.00000000000E+00 0.  1.
          2   -1    0    0  501    0  0.00000000000E+00 -0.00000000000E+00 -0.10664811450E+04  0.10664811450E+04  0.00000000000E+00 0. -1.
         25    2    1    2    0    0 -0.54959860630E+02  0.73330480520E+02 -0.78633230612E+03  0.80147478088E+03  0.12508150571E+03 0.  0.
          5    1    3    3  502    0  0.21793552916E+02  0.11070703924E+02 -0.31028157299E+02  0.39720755021E+02  0.41800000000E+01 0.  1.
         -5    1    3    3    0  502 -0.76753413546E+02  0.62259776596E+02 -0.75530414882E+03  0.76175402585E+03  0.41800000000E+01 0.  1.
        -11    1    1    2    0    0  0.59444068723E+02 -0.54833993124E+01 -0.10733254799E+03  0.12281669607E+03  0.00000000000E+00 0. -1.
         11    1    1    2    0    0 -0.44842080928E+01 -0.67847081208E+02 -0.15016449201E+03  0.16484146690E+03  0.00000000000E+00 0.  1.
</event>
<event>
 7    1  0.2651429E-009  0.1097071E+03  0.7561462E-02  0.1261113E+00
         -1   -1    0    0    0  501 -0.00000000000E+00  0.00000000000E+00  0.42946345999E+02  0.42946345999E+02  0.00000000000E+00 0.  1.
          1   -1    0    0  501    0  0.00000000000E+00 -0.00000000000E+00 -0.54419083077E+03  0.54419083077E+03  0.00000000000E+00 0. -1.
         25    2    1    2    0    0  0.58171855549E+02  0.65998628489E+02 -0.38953956896E+03  0.41848359694E+03  0.12509061266E+03 0.  0.
          5    1    3    3  502    0  0.77708583586E+01  0.39900650758E+02 -0.21702589539E+02  0.46270108745E+02  0.41800000000E+01 0. -1.
         -5    1    3    3    0  502  0.50400997190E+02  0.26097977730E+02 -0.36783697942E+03  0.37221348819E+03  0.41800000000E+01 0. -1.
        -11    1    1    2    0    0 -0.11224324213E+02 -0.73275793921E+02 -0.89496587485E+02  0.11621087126E+03  0.00000000000E+00 0.  1.
         11    1    1    2    0    0 -0.46947531336E+02  0.72771654319E+01 -0.22208328327E+02  0.52442708572E+02  0.00000000000E+00 0. -1.
</event>
<event>
 7    1  0.2651429E-009  0.1690585E+03  0.7561462E-02  0.1178833E+00
         -2   -1    0    0    0  501 -0.00000000000E+00  0.00000000000E+00  0.10046089296E+04  0.10046089296E+04  0.00000000000E+00 0.  1.
          2   -1    0    0  501    0  0.00000000000E+00 -0.00000000000E+00 -0.28748785287E+02  0.28748785287E+02  0.00000000000E+00 0. -1.
         25    2    1    2    0    0  0.85332167303E+02 -0.99487145328E+02  0.57180871037E+03  0.59982678089E+03  0.12509074688E+03 0.  0.
          5    1    3    3  502    0  0.69611546215E+02 -0.12938241912E+03  0.47406309222E+03  0.49632536259E+03  0.41800000000E+01 0. -1.
         -5    1    3    3    0  502  0.15720621089E+02  0.29895273793E+02  0.97745618152E+02  0.10350141830E+03  0.41800000000E+01 0. -1.
        -11    1    1    2    0    0 -0.88870319442E+02  0.39909504071E+02  0.25481217371E+03  0.27280019440E+03  0.00000000000E+00 0.  1.
         11    1    1    2    0    0  0.35381521386E+01  0.59577641257E+02  0.14923926027E+03  0.16073073964E+03  0.00000000000E+00 0. -1.
</event>
<event>
 7    1  0.2651429E-009  0.1100690E+03  0.7561462E-02  0.1260442E+00
          1   -1    0    0  501    0  0.00000000000E+00  0.00000000000E+00  0.11559958427E+03  0.11559958427E+03  0.00000000000E+00 0. -1.
         -1   -1    0    0    0  501 -0.00000000000E+00 -0.00000000000E+00 -0.14428941134E+03  0.14428941134E+03  0.00000000000E+00 0.  1.
         25    2    1    2    0    0  0.57394706655E+02 -0.15325133361E+02  0.18693452774E+02  0.13973348654E+03  0.12508792916E+03 0.  0.
          5    1    3    3  502    0  0.78159623317E+02 -0.38168828712E+02  0.45842066682E+02  0.98411146116E+02  0.41800000000E+01 0.  1.
         -5    1    3    3    0  502 -0.20764916662E+02  0.22843695351E+02 -0.27148613908E+02  0.41322340427E+02  0.41800000000E+01 0.  1.
        -11    1    1    2    0    0 -0.74266288547E+02 -0.62340326641E+01 -0.53947249816E+02  0.92003535478E+02  0.00000000000E+00 0.  1.
         11    1    1    2    0    0  0.16871581892E+02  0.21559166025E+02  0.65639699668E+01  0.28151973589E+02  0.00000000000E+00 0. -1.
</event>
<event>
 7    1  0.2651429E-009  0.1445245E+03  0.7561462E-02  0.1207367E+00
          2   -1    0    0  501    0  0.00000000000E+00  0.00000000000E+00  0.47914597457E+03  0.47914597457E+03  0.00000000000E+00 0. -1.
         -2   -1    0    0    0  501 -0.00000000000E+00 -0.00000000000E+00 -0.65906031147E+02  0.65906031147E+02  0.00000000000E+00 0.  1.
         25    2    1    2    0    0  0.11711844055E+03  0.25224058441E+02  0.33049370756E+03  0.37313101595E+03  0.12509069546E+03 0.  0.
          5    1    3    3  502    0  0.74838100717E+02 -0.24168133575E+02  0.27953680432E+03  0.29041889981E+03  0.41800000000E+01 0. -1.
         -5    1    3    3    0  502  0.42280339836E+02  0.49392192016E+02  0.50956903237E+02  0.82712116140E+02  0.41800000000E+01 0. -1.
        -11    1    1    2    0    0 -0.32266496194E+02  0.29873180324E+02  0.48546655571E+01  0.44239139424E+02  0.00000000000E+00 0.  1.
         11    1    1    2    0    0 -0.84851944359E+02 -0.55097238766E+02  0.77891570312E+02  0.12768185034E+03  0.00000000000E+00 0. -1.
</event>
<event>
 7    1  0.2651429E-009  0.1165745E+03  0.7561462E-02  0.1248857E+00
         -1   -1    0    0    0  501 -0.00000000000E+00  0.00000000000E+00  0.24565064176E+03  0.24565064176E+03  0.00000000000E+00 0.  1.
          1   -1    0    0  501    0  0.00000000000E+00 -0.00000000000E+00 -0.82259100800E+02  0.82259100800E+02  0.00000000000E+00 0. -1.
         25    2    1    2    0    0 -0.85543356831E+02 -0.30273939673E+02  0.75348610110E+02  0.17192813669E+03  0.12509074233E+03 0.  0.
          5    1    3    3  502    0 -0.16918898727E+02  0.16346938783E+02 -0.29627032986E+02  0.38061857880E+02  0.41800000000E+01 0. -1.
         -5    1    3    3    0  502 -0.68624458104E+02 -0.46620878455E+02  0.10497564310E+03  0.13386627881E+03  0.41800000000E+01 0. -1.
        -11    1    1    2    0    0  0.94513573942E+02 -0.10223176729E+00  0.51539983374E+02  0.10765312813E+03  0.00000000000E+00 0. -1.
         11    1    1    2    0    0 -0.89702171109E+01  0.30376171440E+02  0.36502947476E+02  0.48328477742E+02  0.00000000000E+00 0.  1.
</event>
<event>
 7    1  0.2651429E-009  0.1040126E+03  0.7561462E-02  0.1272077E+00
         -2   -1    0    0    0  501 -0.00000000000E+00  0.00000000000E+00  0.25610749743E+02  0.25610749743E+02  0.00000000000E+00 0. -1.
          2   -1    0    0  501    0  0.00000000000E+00 -0.00000000000E+00 -0.73302480510E+03  0.73302480510E+03  0.00000000000E+00 0.  1.
         25    2    1    2    0    0  0.14714601840E+02 -0.77517098371E+02 -0.45500302962E+03  0.47843558894E+03  0.12508971079E+03 0.  0.
          5    1    3    3  502    0 -0.38431500634E+02 -0.23805607011E+02 -0.54907383330E+02  0.71245914341E+02  0.41800000000E+01 0. -1.
         -5    1    3    3    0  502  0.53146102473E+02 -0.53711491360E+02 -0.40009564629E+03  0.40718967459E+03  0.41800000000E+01 0. -1.
        -11    1    1    2    0    0 -0.26391404622E+02  0.42412492614E+02 -0.23324546280E+03  0.23853463414E+03  0.00000000000E+00 0.  1.
         11    1    1    2    0    0  0.11676802782E+02  0.35104605757E+02 -0.19165562925E+02  0.41665331762E+02  0.00000000000E+00 0. -1.
</event>
<event>
 7    1  0.2651429E-009  0.1234611E+03  0.7561462E-02  0.1237494E+00
          1   -1    0    0  501    0  0.00000000000E+00  0.00000000000E+00  0.99503478939E+02  0.99503478939E+02  0.00000000000E+00 0. -1.
         -1   -1    0    0    0  501 -0.00000000000E+00 -0.00000000000E+00 -0.20365678344E+03  0.20365678344E+03  0.00000000000E+00 0.  1.
         25    2    1    2    0    0  0.94986395276E+01 -0.90237514104E+02 -0.89869887660E+02  0.17875898572E+03  0.12508055469E+03 0.  0.
          5    1    3    3  502    0 -0.45549415741E+02 -0.87760732216E+02 -0.62941700072E+02  0.11728523096E+03  0.41800000000E+01 0. -1.
         -5    1    3    3    0  502  0.55048055269E+02 -0.24767818883E+01 -0.26928187588E+02  0.61473754759E+02  0.41800000000E+01 0. -1.
        -11    1    1    2    0    0  0.58435355217E+01  0.26488268897E+02 -0.44569828146E+02  0.52175136584E+02  0.00000000000E+00 0.  1.
         11    1    1    2    0    0 -0.15342175049E+02  0.63749245207E+02  0.30286411310E+02  0.72226140072E+02  0.00000000000E+00 0. -1.
</event>
<event>
 7    1  0.2651429E-009  0.1005597E+03  0.7561462E-02  0.1279123E+00
         -2   -1    0    0    0  501 -0.00000000000E+00  0.00000000000E+00  0.17527511188E+03  0.17527511188E+03  0.00000000000E+00 0.  1.
          2   -1    0    0  501    0  0.00000000000E+00 -0.00000000000E+00 -0.12336958259E+03  0.12336958259E+03  0.00000000000E+00 0. -1.
         25    2    1    2    0    0 -0.90641962163E+00  0.16596166825E+02 -0.65041220686E+02  0.14196342630E+03  0.12508796772E+03 0.  0.
          5    1    3    3  502    0 -0.61619377816E+02 -0.38994046869E+01 -0.34571910003E+02  0.70886123047E+02  0.41800000000E+01 0.  1.
         -5    1    3    3    0  502  0.60712958195E+02  0.20495571512E+02 -0.30469310683E+02  0.71077303254E+02  0.41800000000E+01 0.  1.
        -11    1    1    2    0    0  0.23902513270E+02 -0.37151301890E+02  0.98898961405E+01  0.45269851098E+02  0.00000000000E+00 0. -1.
         11    1    1    2    0    0 -0.22996093648E+02  0.20555135065E+02  0.10705685383E+03  0.11141141707E+03  0.00000000000E+00 0.  1.
</event>
<event>
 7    1  0.2651429E-009  0.6136423E+02  0.7561462E-02  0.1392194E+00
         -2   -1    0    0    0  501 -0.00000000000E+00  0.00000000000E+00  0.31697562647E+02  0.31697562647E+02  0.00000000000E+00 0.  1.
          2   -1    0    0  501    0  0.00000000000E+00 -0.00000000000E+00 -0.48814171141E+03  0.48814171141E+03  0.00000000000E+00 0. -1.
         25    2    1    2    0    0 -0.32336835880E+02 -0.14605194690E+02 -0.35916049292E+03  0.38197210466E+03  0.12508975335E+03 0.  0.
          5    1    3    3  502    0  0.27204173299E+01  0.27343876760E+02 -0.11608268115E+02  0.30121629361E+02  0.41800000000E+01 0.  1.
         -5    1    3    3    0  502 -0.35057253210E+02 -0.41949071450E+02 -0.34755222481E+03  0.35185047530E+03  0.41800000000E+01 0.  1.
        -11    1    1    2    0    0  0.17473596703E+02  0.17755101021E+02 -0.11317336411E+03  0.11588261534E+03  0.00000000000E+00 0. -1.
         11    1    1    2    0    0  0.14863239177E+02 -0.31499063309E+01  0.15889708264E+02  0.21984554065E+02  0.00000000000E+00 0.  1.
</event>
<event>
 7    1  0.2651429E-009  0.1032752E+03  0.7561462E-02  0.1273556E+00
          2   -1    0    0  501    0  0.00000000000E+00  0.00000000000E+00  0.28393867246E+03  0.28393867246E+03  0.00000000000E+00 0. -1.
         -2   -1    0    0    0  501 -0.00000000000E+00 -0.00000000000E+00 -0.57316516978E+02  0.57316516978E+02  0.00000000000E+00 0.  1.
         25    2    1    2    0    0  0.12314432458E+02  0.30348322796E+02  0.18756325645E+03  0.22781635155E+03  0.12509056287E+03 0.  0.
          5    1    3    3  502    0  0.67486404803E+01 -0.48822010514E+02  0.80431447229E+02  0.94423635613E+02  0.41800000000E+01 0.  1.
         -5    1    3    3    0  502  0.55657919775E+01  0.79170333311E+02  0.10713180922E+03  0.13339271594E+03  0.41800000000E+01 0.  1.
        -11    1    1    2    0    0 -0.33498721111E+02  0.74173418793E+01 -0.20374886546E+02  0.39903850421E+02  0.00000000000E+00 0.  1.
         11    1    1    2    0    0  0.21184288653E+02 -0.37765664676E+02  0.59433785573E+02  0.73534987466E+02  0.00000000000E+00 0. -1.
</event>
<event>
 7    1  0.2651429E-009  0.1678126E+03  0.7561462E-02  0.1180148E+00
          2   -1    0    0  501    0  0.00000000000E+00  0.00000000000E+00  0.16591442476E+04  0.16591442476E+04  0.00000000000E+00 0. -1.
         -2   -1    0    0    0  501 -0.00000000000E+00 -0.00000000000E+00 -0.25308563851E+02  0.25308563851E+02  0.00000000000E+00 0.  1.
         25    2    1    2    0    0 -0.14258287855E+03  0.23379827941E+02  0.12419975736E+04  0.12566154775E+04  0.12509193290E+03 0.  0.
          5    1    3    3  502    0 -0.12918619450E+03 -0.32449139987E+02  0.89800873002E+03  0.90784314236E+03  0.41800000000E+01 0. -1.
         -5    1    3    3    0  502 -0.13396684052E+02  0.55828967928E+02  0.34398884362E+03  0.34877233511E+03  0.41800000000E+01 0. -1.
        -11    1    1    2    0    0  0.87934929127E+02 -0.97581151323E+01  0.11376902376E+03  0.14412204321E+03  0.00000000000E+00 0.  1.
         11    1    1    2    0    0  0.54647949425E+02 -0.13621712808E+02  0.27806908637E+03  0.28371529080E+03  0.00000000000E+00 0. -1.
</event>
<event>
 7    1  0.2651429E-009  0.8313085E+02  0.7561462E-02  0.1320394E+00
          2   -1    0    0  501    0  0.00000000000E+00  0.00000000000E+00  0.30709764794E+03  0.30709764794E+03  0.00000000000E+00 0.  1.
         -2   -1    0    0    0  501 -0.00000000000E+00 -0.00000000000E+00 -0.70943678204E+02  0.70943678204E+02  0.00000000000E+00 0. -1.
         25    2    1    2    0    0  0.19657412077E+02 -0.14381811956E+02  0.33526695709E+01  0.12752517643E+03  0.12513264908E+03 0.  0.
          5    1    3    3  502    0 -0.16898850777E+02  0.18007773555E+02 -0.49477710297E+02  0.55455994105E+02  0.41800000000E+01 0. -1.
         -5    1    3    3    0  502  0.36556262854E+02 -0.32389585511E+02  0.52830379868E+02  0.72069182321E+02  0.41800000000E+01 0. -1.
        -11    1    1    2    0    0 -0.16614150759E+02 -0.37086298482E+02  0.11328430590E+03  0.12035263813E+03  0.00000000000E+00 0.  1.
         11    1    1    2    0    0 -0.30432613186E+01  0.51468110438E+02  0.11951699426E+03  0.13016351159E+03  0.00000000000E+00 0. -1.
</event>
<event>
 7    1  0.2651429E-009  0.1506595E+03  0.7561462E-02  0.1199665E+00
         -1   -1    0    0    0  501 -0.00000000000E+00  0.00000000000E+00  0.17850355645E+03  0.17850355645E+03  0.00000000000E+00 0.  1.
          1   -1    0    0  501    0  0.00000000000E+00 -0.00000000000E+00 -0.16725305783E+03  0.16725305783E+03  0.00000000000E+00 0. -1.
         25    2    1    2    0    0 -0.59567483049E+02  0.12027828694E+03  0.16050009816E+02  0.18417642046E+03  0.12509276435E+03 0.  0.
          5    1    3    3  502    0 -0.29444181471E+02  0.56143228896E+01 -0.42269887182E+02  0.51987462012E+02  0.41800000000E+01 0.  1.
         -5    1    3    3    0  502 -0.30123301577E+02  0.11466396405E+03  0.58319896998E+02  0.13218895845E+03  0.41800000000E+01 0.  1.
        -11    1    1    2    0    0  0.40280945982E+02 -0.11414866174E+02 -0.25611751387E+02  0.49079686104E+02  0.00000000000E+00 0. -1.
         11    1    1    2    0    0  0.19286537066E+02 -0.10886342077E+03  0.20812240197E+02  0.11250050771E+03  0.00000000000E+00 0.  1.
</event>
<event>
 7    1  0.2651429E-009  0.9228308E+02  0.7561462E-02  0.1297415E+00
         -1   -1    0    0    0  501 -0.00000000000E+00  0.00000000000E+00  0.55955562011E+03  0.55955562011E+03  0.00000000000E+00 0.  1.
          1   -1    0    0  501    0  0.00000000000E+00 -0.00000000000E+00 -0.30553921936E+02  0.30553921936E+02  0.00000000000E+00 0. -1.
         25    2    1    2    0    0  0.58934610178E+02 -0.58326447720E+01  0.39045899037E+03  0.41426174350E+03  0.12508901209E+03 0.  0.
          5    1    3    3  502    0  0.18504604691E+02 -0.28921588259E+02  0.35209271170E+03  0.35378754740E+03  0.41800000000E+01 0.  1.
         -5    1    3    3    0  502  0.40430005487E+02  0.23088943487E+02  0.38366278667E+02  0.60474196099E+02  0.41800000000E+01 0.  1.
        -11    1    1    2    0    0 -0.23213590537E+01 -0.33956092125E+02  0.22696920021E+02  0.40909107528E+02  0.00000000000E+00 0.  1.
         11    1    1    2    0    0 -0.56613251124E+02  0.39788736897E+02  0.11584578779E+03  0.13493869102E+03  0.00000000000E+00 0. -1.
</event>
<event>
 7    1  0.2651429E-009  0.1450237E+03  0.7561462E-02  0.1206725E+00
         -2   -1    0    0    0  501 -0.00000000000E+00  0.00000000000E+00  0.47356947874E+02  0.47356947874E+02  0.00000000000E+00 0. -1.
          2   -1    0    0  501    0  0.00000000000E+00 -0.00000000000E+00 -0.48495371068E+03  0.48495371068E+03  0.00000000000E+00 0.  1.
         25    2    1    2    0    0  0.13238663269E+02 -0.94858619901E+02 -0.21401770573E+03  0.26575243610E+03  0.12508940384E+03 0.  0.
          5    1    3    3  502    0 -0.39599903064E+02 -0.30486530932E+01 -0.11085841882E+03  0.11783254233E+03  0.41800000000E+01 0. -1.
         -5    1    3    3    0  502  0.52838566332E+02 -0.91809966808E+02 -0.10315928690E+03  0.14791989377E+03  0.41800000000E+01 0. -1.
        -11    1    1    2    0    0 -0.57068762319E+02  0.79067237781E+02 -0.13581044199E+03  0.16719135108E+03  0.00000000000E+00 0.  1.
         11    1    1    2    0    0  0.43830099051E+02  0.15791382120E+02 -0.87768615082E+02  0.99366871368E+02  0.00000000000E+00 0. -1.
</event>
<event>
 7    1  0.2813612E-009  0.9277971E+02  0.7561462E-02  0.1296256E+00
         -2   -1    0    0    0  501 -0.00000000000E+00  0.00000000000E+00  0.14675750816E+02  0.14675750816E+02  0.00000000000E+00 0.  1.
          2   -1    0    0  501    0  0.00000000000E+00 -0.00000000000E+00 -0.91158703983E+03  0.91158703983E+03  0.00000000000E+00 0. -1.
         25    2    1    2    0    0  0.27022213539E+02 -0.49976389925E+01 -0.63251908305E+03  0.64534651913E+03  0.12504624310E+03 0.  0.
          5    1    3    3  502    0  0.10969032814E+02 -0.46388774464E+02 -0.54524382836E+03  0.54733951332E+03  0.41800000000E+01 0.  1.
         -5    1    3    3    0  502  0.16053180725E+02  0.41391135472E+02 -0.87275254686E+02  0.98007005808E+02  0.41800000000E+01 0.  1.
        -11    1    1    2    0    0  0.14118817923E+02 -0.33760962774E+02 -0.78298111106E+02  0.86427645055E+02  0.00000000000E+00 0.  1.
         11    1    1    2    0    0 -0.41141031462E+02  0.38758601766E+02 -0.18609409485E+03  0.19448862645E+03  0.00000000000E+00 0. -1.
</event>
<event>
 7    1  0.2651429E-009  0.1087800E+03  0.7561462E-02  0.1262846E+00
         -1   -1    0    0    0  501 -0.00000000000E+00  0.00000000000E+00  0.57668547190E+02  0.57668547190E+02  0.00000000000E+00 0.  1.
          1   -1    0    0  501    0  0.00000000000E+00 -0.00000000000E+00 -0.20981263843E+03  0.20981263843E+03  0.00000000000E+00 0. -1.
         25    2    1    2    0    0  0.12283037934E+02  0.14123694660E+02 -0.74402045041E+02  0.14675123840E+03  0.12509959990E+03 0.  0.
          5    1    3    3  502    0  0.68845717343E+02  0.85500341990E+01 -0.40513831476E+02  0.80446745255E+02  0.41800000000E+01 0. -1.
         -5    1    3    3    0  502 -0.56562679410E+02  0.55736604610E+01 -0.33888213565E+02  0.66304493147E+02  0.41800000000E+01 0. -1.
        -11    1    1    2    0    0  0.17278449309E+01 -0.51305949762E+02 -0.33676774646E+02  0.61395529802E+02  0.00000000000E+00 0.  1.
         11    1    1    2    0    0 -0.14010882865E+02  0.37182255102E+02 -0.44065271555E+02  0.59334417418E+02  0.00000000000E+00 0. -1.
</event>
<event>
 7    1  0.2651429E-009  0.6035366E+02  0.7561462E-02  0.1396354E+00
          2   -1    0    0  501    0  0.00000000000E+00  0.00000000000E+00  0.11190267268E+04  0.11190267268E+04  0.00000000000E+00 0. -1.
         -2   -1    0    0    0  501 -0.00000000000E+00 -0.00000000000E+00 -0.11927706543E+02  0.11927706543E+02  0.00000000000E+00 0.  1.
         25    2    1    2    0    0 -0.10706622537E+01  0.27882251984E+02  0.97305680265E+03  0.98146160330E+03  0.12509504901E+03 0.  0.
          5    1    3    3  502    0  0.12314521998E+02 -0.15258092392E+02  0.23787502278E+02  0.31109074241E+02  0.41800000000E+01 0.  1.
         -5    1    3    3    0  502 -0.13385184252E+02  0.43140344376E+02  0.94926930037E+03  0.95035252906E+03  0.41800000000E+01 0.  1.
        -11    1    1    2    0    0 -0.22753222566E+02 -0.19732302670E+02  0.30236248890E+02  0.42676734326E+02  0.00000000000E+00 0.  1.
         11    1    1    2    0    0  0.23823884820E+02 -0.81499493133E+01  0.10380596869E+03  0.10681609569E+03  0.00000000000E+00 0. -1.
</event>
<event>
 7    1  0.2651429E-009  0.1839767E+03  0.7561462E-02  0.1164009E+00
         -2   -1    0    0    0  501 -0.00000000000E+00  0.00000000000E+00  0.31095434909E+03  0.31095434909E+03  0.00000000000E+00 0.  1.
          2   -1    0    0  501    0  0.00000000000E+00 -0.00000000000E+00 -0.14055943147E+03  0.14055943147E+03  0.00000000000E+00 0. -1.
         25    2    1    2    0    0 -0.13708258282E+03 -0.10541643393E+03  0.10619628916E+03  0.23838741542E+03  0.12508656580E+03 0.  0.
          5    1    3    3  502    0 -0.11524480559E+03 -0.66331391374E+02  0.11469922799E+02  0.13352996003E+03  0.41800000000E+01 0.  1.
         -5    1    3    3    0  502 -0.21837777226E+02 -0.39085042552E+02  0.94726366363E+02  0.10485745538E+03  0.41800000000E+01 0.  1.
        -11    1    1    2    0    0  0.44479452952E+02  0.83776870059E+02  0.69948339008E+02  0.11785480822E+03  0.00000000000E+00 0. -1.
         11    1    1    2    0    0  0.92603129867E+02  0.21639563867E+02 -0.57497105521E+01  0.95271556915E+02  0.00000000000E+00 0.  1.
</event>
<event>
 7    1  0.2651429E-009  0.7618841E+02  0.7561462E-02  0.1340230E+00
          2   -1    0    0  501    0  0.00000000000E+00  0.00000000000E+00  0.44261532941E+03  0.44261532941E+03  0.00000000000E+00 0.  1.
         -2   -1    0    0    0  501 -0.00000000000E+00 -0.00000000000E+00 -0.36890668175E+02  0.36890668175E+02  0.00000000000E+00 0. -1.
         25    2    1    2    0    0 -0.18050820087E+02 -0.37710542544E+01  0.34422529388E+03  0.36671491658E+03  0.12509486058E+03 0.  0.
          5    1    3    3  502    0 -0.12242259500E+02 -0.30813173534E+02  0.33585914726E+03  0.33751764958E+03  0.41800000000E+01 0.  1.
         -5    1    3    3    0  502 -0.58085605874E+01  0.27042119280E+02  0.83661466200E+01  0.29197267004E+02  0.41800000000E+01 0.  1.
        -11    1    1    2    0    0  0.45493608602E+02  0.28799655269E+02  0.20878802168E+02  0.57749570970E+02  0.00000000000E+00 0. -1.
         11    1    1    2    0    0 -0.27442788515E+02 -0.25028601015E+02  0.40620565190E+02  0.55041510032E+02  0.00000000000E+00 0.  1.
</event>
<event>
 7    1  0.2651429E-009  0.6789360E+02  0.7561462E-02  0.1367406E+00
          2   -1    0    0  501    0  0.00000000000E+00  0.00000000000E+00  0.10190252032E+04  0.10190252032E+04  0.00000000000E+00 0.  1.
         -2   -1    0    0    0  501 -0.00000000000E+00 -0.00000000000E+00 -0.18674881658E+02  0.18674881658E+02  0.00000000000E+00 0. -1.
         25    2    1    2    0    0 -0.42141596884E+02 -0.10930666389E+01  0.84363969712E+03  0.85390281977E+03  0.12507988673E+03 0.  0.
          5    1    3    3  502    0 -0.16446256959E+02  0.15623772030E+02  0.80041298473E+03  0.80074527794E+03  0.41800000000E+01 0.  1.
         -5    1    3    3    0  502 -0.25695339925E+02 -0.16716838668E+02  0.43226712394E+02  0.53157541829E+02  0.41800000000E+01 0.  1.
        -11    1    1    2    0    0  0.61913474624E+02 -0.81567104384E+00  0.15088665056E+03  0.16309728685E+03  0.00000000000E+00 0.  1.
         11    1    1    2    0    0 -0.19771877740E+02  0.19087376828E+01  0.58239738972E+01  0.20699978282E+02  0.00000000000E+00 0. -1.
</event>
<event>
 7    1  0.2651429E-009  0.7309520E+02  0.7561462E-02  0.1349873E+00
         -1   -1    0    0    0  501 -0.00000000000E+00  0.00000000000E+00  0.39319298707E+02  0.39319298707E+02  0.00000000000E+00 0.  1.
          1   -1    0    0  501    0  0.00000000000E+00 -0.00000000000E+00 -0.30434989820E+03  0.30434989820E+03  0.00000000000E+00 0. -1.
         25    2    1    2    0    0  0.56698988104E+01  0.66484603390E+01 -0.13398686972E+03  0.18351071048E+03  0.12508936736E+03 0.  0.
          5    1    3    3  502    0 -0.28816908765E+01 -0.45127160491E+02 -0.12106906505E+03  0.12930566758E+03  0.41800000000E+01 0.  1.
         -5    1    3    3    0  502  0.85515896869E+01  0.51775620830E+02 -0.12917804674E+02  0.54205042903E+02  0.41800000000E+01 0.  1.
        -11    1    1    2    0    0 -0.25699418187E+02 -0.10459522166E+02 -0.13630610428E+03  0.13910145852E+03  0.00000000000E+00 0. -1.
         11    1    1    2    0    0  0.20029519376E+02  0.38110618274E+01  0.52623745083E+01  0.21057027904E+02  0.00000000000E+00 0.  1.
</event>
<event>
 7    1  0.2651429E-009  0.1056665E+03  0.7561462E-02  0.1268812E+00
         -2   -1    0    0    0  501 -0.00000000000E+00  0.00000000000E+00  0.16025437116E+03  0.16025437116E+03  0.00000000000E+00 0.  1.
          2   -1    0    0  501    0  0.00000000000E+00 -0.00000000000E+00 -0.81397528393E+02  0.81397528393E+02  0.00000000000E+00 0. -1.
         25    2    1    2    0    0  0.54069306088E+01  0.17777283383E+02  0.13792291819E+02  0.12720889267E+03  0.12508640357E+03 0.  0.
          5    1    3    3  502    0  0.49409155106E+02 -0.32636437041E+02  0.46846653092E+01  0.59546789335E+02  0.41800000000E+01 0.  1.
         -5    1    3    3    0  502 -0.44002224497E+02  0.50413720424E+02  0.91076265103E+01  0.67662103340E+02  0.41800000000E+01 0.  1.
        -11    1    1    2    0    0  0.37689997922E+02 -0.18134886661E+02  0.74372115095E+01  0.42482021758E+02  0.00000000000E+00 0. -1.
         11    1    1    2    0    0 -0.43096928531E+02  0.35760327823E+00  0.57627339443E+02  0.71960985125E+02  0.00000000000E+00 0.  1.
</event>
<event>
 7    1  0.2651429E-009  0.9309917E+02  0.7561462E-02  0.1295516E+00
         -1   -1    0    0    0  501 -0.00000000000E+00  0.00000000000E+00  0.64191924054E+03  0.64191924054E+03  0.00000000000E+00 0.  1.
          1   -1    0    0  501    0  0.00000000000E+00 -0.00000000000E+00 -0.16900237858E+02  0.16900237858E+02  0.00000000000E+00 0. -1.
         25    2    1    2    0    0  0.11500213859E+02 -0.21593123722E+02  0.38195683969E+03  0.40266466294E+03  0.12509710421E+03 0.  0.
          5    1    3    3  502    0  0.21711994887E+02 -0.69406555321E+02  0.28279334584E+03  0.29202436455E+03  0.41800000000E+01 0.  1.
         -5    1    3    3    0  502 -0.10211781028E+02  0.47813431599E+02  0.99163493855E+02  0.11064029838E+03  0.41800000000E+01 0.  1.
        -11    1    1    2    0    0 -0.17508750612E+02  0.40672889044E+02  0.22463327402E+03  0.22895621426E+03  0.00000000000E+00 0. -1.
         11    1    1    2    0    0  0.60085367533E+01 -0.19079765322E+02  0.18428888975E+02  0.27198601205E+02  0.00000000000E+00 0.  1.
</event>
<event>
 7    1  0.2651429E-009  0.1347110E+03  0.7561462E-02  0.1220628E+00
          1   -1    0    0  501    0  0.00000000000E+00  0.00000000000E+00  0.27253175121E+03  0.27253175121E+03  0.00000000000E+00 0. -1.
         -1   -1    0    0    0  501 -0.00000000000E+00 -0.00000000000E+00 -0.85252476899E+02  0.85252476899E+02  0.00000000000E+00 0.  1.
         25    2    1    2    0    0 -0.84400696034E+02  0.22014066225E+02  0.30937582420E+02  0.15560495182E+03  0.12509064882E+03 0.  0.
          5    1    3    3  502    0 -0.70988126042E+01  0.61677698738E+02 -0.28460402830E+01  0.62290480872E+02  0.41800000000E+01 0. -1.
         -5    1    3    3    0  502 -0.77301883430E+02 -0.39663632513E+02  0.33783622703E+02  0.93314470951E+02  0.41800000000E+01 0. -1.
        -11    1    1    2    0    0  0.61077598075E+02 -0.53386001874E+02  0.69031048021E+02  0.10651677696E+03  0.00000000000E+00 0.  1.
         11    1    1    2    0    0  0.23323097958E+02  0.31371935648E+02  0.87310643866E+02  0.95662499324E+02  0.00000000000E+00 0. -1.
</event>
<event>
 7    1  0.2723609E-009  0.1229735E+03  0.7561462E-02  0.1238271E+00
         -2   -1    0    0    0  501 -0.00000000000E+00  0.00000000000E+00  0.55164740175E+02  0.55164740175E+02  0.00000000000E+00 0.  1.
          2   -1    0    0  501    0  0.00000000000E+00 -0.00000000000E+00 -0.46757472246E+03  0.46757472246E+03  0.00000000000E+00 0. -1.
         25    2    1    2    0    0 -0.63842871778E+02  0.50499584952E+02 -0.36085179966E+03  0.39049763330E+03  0.12509300515E+03 0.  0.
          5    1    3    3  502    0 -0.84957870896E+02 -0.74887197038E+01 -0.23997100170E+03  0.25471057066E+03  0.41800000000E+01 0. -1.
         -5    1    3    3    0  502  0.21114999118E+02  0.57988304656E+02 -0.12088079796E+03  0.13578706264E+03  0.41800000000E+01 0. -1.
        -11    1    1    2    0    0  0.13797361785E+02 -0.46493334742E+02 -0.64209741072E+02  0.80466690103E+02  0.00000000000E+00 0. -1.
         11    1    1    2    0    0  0.50045509993E+02 -0.40062502103E+01  0.12651558447E+02  0.51775139230E+02  0.00000000000E+00 0.  1.
</event>
<event>
 7    1  0.2651429E-009  0.1017065E+03  0.7561462E-02  0.1276748E+00
         -2   -1    0    0    0  501 -0.00000000000E+00  0.00000000000E+00  0.14106507364E+02  0.14106507364E+02  0.00000000000E+00 0.  1.
          2   -1    0    0  501    0  0.00000000000E+00 -0.00000000000E+00 -0.13784301060E+04  0.13784301060E+04  0.00000000000E+00 0. -1.
         25    2    1    2    0    0  0.41266721882E+02  0.14460527332E+02 -0.11193374721E+04  0.11271491279E+04  0.12504691444E+03 0.  0.
          5    1    3    3  502    0  0.10418764181E+02 -0.47129493000E+02 -0.22519829690E+03  0.23035078703E+03  0.41800000000E+01 0.  1.
         -5    1    3    3    0  502  0.30847957702E+02  0.61590020332E+02 -0.89413917522E+03  0.89679834085E+03  0.41800000000E+01 0.  1.
        -11    1    1    2    0    0  0.21186140663E+02 -0.97577982595E+01 -0.16755469632E+02  0.28719556850E+02  0.00000000000E+00 0.  1.
         11    1    1    2    0    0 -0.62452862545E+02 -0.47027290727E+01 -0.22823065685E+03  0.23666792860E+03  0.00000000000E+00 0. -1.
</event>
<event>
 7    1  0.2651429E-009  0.1350310E+03  0.7561462E-02  0.1220176E+00
         -3   -1    0    0    0  501 -0.00000000000E+00  0.00000000000E+00  0.40137862564E+02  0.40137862564E+02  0.00000000000E+00 0.  1.
          3   -1    0    0  501    0  0.00000000000E+00 -0.00000000000E+00 -0.13749081874E+04  0.13749081874E+04  0.00000000000E+00 0. -1.
         25    2    1    2    0    0  0.42234172263E+02  0.79547244293E+02 -0.12545320245E+04  0.12639659912E+04  0.12509171424E+03 0.  0.
          5    1    3    3  502    0  0.35340505151E+01 -0.27692911233E+02 -0.50630210714E+03  0.50708843700E+03  0.41800000000E+01 0. -1.
         -5    1    3    3    0  502  0.38700121748E+02  0.10724015553E+03 -0.74822991736E+03  0.75687755418E+03  0.41800000000E+01 0. -1.
        -11    1    1    2    0    0  0.19336247389E+02 -0.60168441085E+02 -0.34844098037E+02  0.72168157339E+02  0.00000000000E+00 0. -1.
         11    1    1    2    0    0 -0.61570419652E+02 -0.19378803208E+02 -0.45394202327E+02  0.78911901477E+02  0.00000000000E+00 0.  1.
</event>
<event>
 7    1  0.2651429E-009  0.7622604E+02  0.7561462E-02  0.1340116E+00
         -2   -1    0    0    0  501 -0.00000000000E+00  0.00000000000E+00  0.20585845432E+02  0.20585845432E+02  0.00000000000E+00 0.  1.
          2   -1    0    0  501    0  0.00000000000E+00 -0.00000000000E+00 -0.66928864527E+03  0.66928864527E+03  0.00000000000E+00 0. -1.
         25    2    1    2    0    0 -0.14547794043E+02 -0.40481839927E+02 -0.36040018405E+03  0.38390787464E+03  0.12508615379E+03 0.  0.
          5    1    3    3  502    0 -0.24411640915E+02 -0.39855649076E+02 -0.35523474772E+02  0.58853977226E+02  0.41800000000E+01 0.  1.
         -5    1    3    3    0  502  0.98638468720E+01 -0.62619085054E+00 -0.32487670928E+03  0.32505389741E+03  0.41800000000E+01 0.  1.
        -11    1    1    2    0    0  0.50057632616E+02  0.26440159800E+02 -0.22522891398E+03  0.23223460622E+03  0.00000000000E+00 0. -1.
         11    1    1    2    0    0 -0.35509838572E+02  0.14041680127E+02 -0.63073701806E+02  0.73732009845E+02  0.00000000000E+00 0.  1.
</event>
<event>
 7    1  0.2651429E-009  0.1786978E+03  0.7561462E-02  0.1169069E+00
          3   -1    0    0  501    0  0.00000000000E+00  0.00000000000E+00  0.99017357983E+02  0.99017357983E+02  0.00000000000E+00 0. -1.
         -3   -1    0    0    0  501 -0.00000000000E+00 -0.00000000000E+00 -0.43935567927E+03  0.43935567927E+03  0.00000000000E+00 0.  1.
         25    2    1    2    0    0 -0.10727488375E+03 -0.56536545694E+02 -0.52264548501E+02  0.18188838170E+03  0.12509004231E+03 0.  0.
          5    1    3    3  502    0 -0.73327593423E+01 -0.65309423123E+02  0.54371847199E+01  0.66076663701E+02  0.41800000000E+01 0. -1.
         -5    1    3    3    0  502 -0.99942124411E+02  0.87728774289E+01 -0.57701733221E+02  0.11581171800E+03  0.41800000000E+01 0.  1.
        -11    1    1    2    0    0 -0.41939181855E+01  0.77578731816E+02 -0.19446719398E+03  0.20941236381E+03  0.00000000000E+00 0.  1.
         11    1    1    2    0    0  0.11146880194E+03 -0.21042186122E+02 -0.93606578799E+02  0.14707229174E+03  0.00000000000E+00 0. -1.
</event>
<event>
 7    1  0.2651429E-009  0.1085721E+03  0.7561462E-02  0.1263237E+00
          1   -1    0    0  501    0  0.00000000000E+00  0.00000000000E+00  0.35664353978E+02  0.35664353978E+02  0.00000000000E+00 0. -1.
         -1   -1    0    0    0  501 -0.00000000000E+00 -0.00000000000E+00 -0.34625450348E+03  0.34625450348E+03  0.00000000000E+00 0.  1.
         25    2    1    2    0    0 -0.73511505236E+01 -0.25446269856E+02 -0.17308294083E+03  0.21518928237E+03  0.12508865167E+03 0.  0.
          5    1    3    3  502    0 -0.18718369547E+02 -0.73950453781E+02 -0.88280532309E+02  0.11674747003E+03  0.41800000000E+01 0.  1.
         -5    1    3    3    0  502  0.11367219024E+02  0.48504183925E+02 -0.84802408519E+02  0.98441812343E+02  0.41800000000E+01 0.  1.
        -11    1    1    2    0    0  0.44646254493E+02 -0.16142360027E+01 -0.90382326258E+02  0.10082092391E+03  0.00000000000E+00 0.  1.
         11    1    1    2    0    0 -0.37295103970E+02  0.27060505859E+02 -0.47124882413E+02  0.65908651176E+02  0.00000000000E+00 0. -1.
</event>
<event>
 7    1  0.2651429E-009  0.8630623E+02  0.7561462E-02  0.1312052E+00
          2   -1    0    0  501    0  0.00000000000E+00  0.00000000000E+00  0.43320873409E+03  0.43320873409E+03  0.00000000000E+00 0. -1.
         -2   -1    0    0    0  501 -0.00000000000E+00 -0.00000000000E+00 -0.30970160855E+02  0.30970160855E+02  0.00000000000E+00 0.  1.
         25    2    1    2    0    0 -0.29476034034E+01 -0.38782174187E+02  0.19740280244E+03  0.23691596836E+03  0.12509422150E+03 0.  0.
          5    1    3    3  502    0  0.22432386224E+02 -0.49232204842E+02  0.20165531788E+03  0.20882854588E+03  0.41800000000E+01 0.  1.
         -5    1    3    3    0  502 -0.25379989627E+02  0.10450030655E+02 -0.42525154399E+01  0.28087422483E+02  0.41800000000E+01 0.  1.
        -11    1    1    2    0    0  0.16610455661E+02 -0.22405493003E+02  0.11070726521E+03  0.11416659723E+03  0.00000000000E+00 0. -1.
         11    1    1    2    0    0 -0.13662852258E+02  0.61187667190E+02  0.94128505582E+02  0.11309632934E+03  0.00000000000E+00 0.  1.
</event>
<event>
 7    1  0.2651429E-009  0.1089884E+03  0.7561462E-02  0.1262455E+00
          1   -1    0    0  501    0  0.00000000000E+00  0.00000000000E+00  0.24245000443E+04  0.24245000443E+04  0.00000000000E+00 0. -1.
         -1   -1    0    0    0  501 -0.00000000000E+00 -0.00000000000E+00 -0.78272511677E+01  0.78272511677E+01  0.00000000000E+00 0.  1.
         25    2    1    2    0    0  0.54812303144E+02  0.13306834519E+02  0.18964327564E+04  0.19013906155E+04  0.12509041853E+03 0.  0.
          5    1    3    3  502    0 -0.19824037301E+02  0.29831310057E+02  0.19957498660E+03  0.20280667443E+03  0.41800000000E+01 0. -1.
         -5    1    3    3    0  502  0.74636340445E+02 -0.16524475539E+02  0.16968577698E+04  0.16985839411E+04  0.41800000000E+01 0. -1.
        -11    1    1    2    0    0  0.18177534910E+02 -0.25542176026E+02  0.18362140655E+03  0.18627841119E+03  0.00000000000E+00 0. -1.
         11    1    1    2    0    0 -0.72989838054E+02  0.12235341507E+02  0.33661863021E+03  0.34465826879E+03  0.00000000000E+00 0.  1.
</event>
<event>
 7    1  0.2651429E-009  0.8347933E+02  0.7561462E-02  0.1319458E+00
         -2   -1    0    0    0  501 -0.00000000000E+00  0.00000000000E+00  0.32821594820E+02  0.32821594820E+02  0.00000000000E+00 0.  1.
          2   -1    0    0  501    0  0.00000000000E+00 -0.00000000000E+00 -0.44708028915E+03  0.44708028915E+03  0.00000000000E+00 0. -1.
         25    2    1    2    0    0  0.31681123354E+01  0.16494105913E+02 -0.32834997204E+03  0.35177111748E+03  0.12508845864E+03 0.  0.
          5    1    3    3  502    0 -0.53971854820E+02  0.33086884876E+02 -0.20783912792E+03  0.21730687646E+03  0.41800000000E+01 0.  1.
         -5    1    3    3    0  502  0.57139967155E+02 -0.16592778963E+02 -0.12051084413E+03  0.13446424102E+03  0.41800000000E+01 0.  1.
        -11    1    1    2    0    0  0.17268631673E+02  0.51820067042E+00  0.15550912874E+02  0.23244463061E+02  0.00000000000E+00 0.  1.
         11    1    1    2    0    0 -0.20436744008E+02 -0.17012306583E+02 -0.10145963516E+03  0.10488630343E+03  0.00000000000E+00 0. -1.
</event>
<event>
 7    1  0.2651429E-009  0.9983241E+02  0.7561462E-02  0.1280649E+00
         -2   -1    0    0    0  501 -0.00000000000E+00  0.00000000000E+00  0.19849810040E+03  0.19849810040E+03  0.00000000000E+00 0. -1.
          2   -1    0    0  501    0  0.00000000000E+00 -0.00000000000E+00 -0.13120283898E+03  0.13120283898E+03  0.00000000000E+00 0.  1.
         25    2    1    2    0    0 -0.61393269934E+02 -0.22619859225E+02  0.13667148220E+03  0.19648468905E+03  0.12508536029E+03 0.  0.
          5    1    3    3  502    0 -0.78088471261E+02 -0.55422252895E+02  0.65010640038E+02  0.11581576394E+03  0.41800000000E+01 0.  1.
         -5    1    3    3    0  502  0.16695201327E+02  0.32802393670E+02  0.71660842165E+02  0.80668925105E+02  0.41800000000E+01 0.  1.
        -11    1    1    2    0    0  0.32063352007E+02  0.18871631039E+02  0.17740753983E+02  0.41218094957E+02  0.00000000000E+00 0. -1.
         11    1    1    2    0    0  0.29329917927E+02  0.37482281863E+01 -0.87116974768E+02  0.91998155377E+02  0.00000000000E+00 0.  1.
</event>
<event>
 7    1  0.2651429E-009  0.9504867E+02  0.7561462E-02  0.1291067E+00
         -2   -1    0    0    0  501 -0.00000000000E+00  0.00000000000E+00  0.66199543935E+02  0.66199543935E+02  0.00000000000E+00 0.  1.
          2   -1    0    0  501    0  0.00000000000E+00 -0.00000000000E+00 -0.18466383671E+03  0.18466383671E+03  0.00000000000E+00 0. -1.
         25    2    1    2    0    0 -0.71736662668E+01  0.90670005206E+01 -0.90473738461E+02  0.15481071278E+03  0.12508871834E+03 0.  0.
          5    1    3    3  502    0  0.58294918323E+02  0.13050616918E+02 -0.41931660138E+02  0.73105079346E+02  0.41800000000E+01 0.  1.
         -5    1    3    3    0  502 -0.65468584590E+02 -0.39836163970E+01 -0.48542078323E+02  0.81705633439E+02  0.41800000000E+01 0.  1.
        -11    1    1    2    0    0  0.35291014313E+02 -0.12769379568E+01 -0.48784351822E+02  0.60224573427E+02  0.00000000000E+00 0. -1.
         11    1    1    2    0    0 -0.28117348047E+02 -0.77900625639E+01  0.20793797507E+02  0.35828094433E+02  0.00000000000E+00 0.  1.
</event>
<event>
 7    1  0.2651429E-009  0.1121085E+03  0.7561462E-02  0.1256714E+00
          2   -1    0    0  501    0  0.00000000000E+00  0.00000000000E+00  0.14003431422E+03  0.14003431422E+03  0.00000000000E+00 0. -1.
         -2   -1    0    0    0  501 -0.00000000000E+00 -0.00000000000E+00 -0.93853848270E+02  0.93853848270E+02  0.00000000000E+00 0.  1.
         25    2    1    2    0    0  0.41344206189E+02  0.11079994008E+02  0.40421915942E+02  0.13824989490E+03  0.12508793907E+03 0.  0.
          5    1    3    3  502    0  0.77319322927E+02  0.37968998226E+02  0.18974646476E+02  0.88303069783E+02  0.41800000000E+01 0.  1.
         -5    1    3    3    0  502 -0.35975116738E+02 -0.26889004218E+02  0.21447269465E+02  0.49946825121E+02  0.41800000000E+01 0.  1.
        -11    1    1    2    0    0 -0.80266063081E+01  0.35054390478E+02 -0.85408169774E+01  0.36961902755E+02  0.00000000000E+00 0. -1.
         11    1    1    2    0    0 -0.33317599881E+02 -0.46134384486E+02  0.14299366987E+02  0.58676364832E+02  0.00000000000E+00 0.  1.
</event>
<event>
 7    1  0.2651429E-009  0.1971422E+03  0.7561462E-02  0.1152173E+00
          1   -1    0    0  501    0  0.00000000000E+00  0.00000000000E+00  0.30049687440E+03  0.30049687440E+03  0.00000000000E+00 0.  1.
         -1   -1    0    0    0  501 -0.00000000000E+00 -0.00000000000E+00 -0.27606595770E+03  0.27606595770E+03  0.00000000000E+00 0. -1.
         25    2    1    2    0    0  0.15704291118E+03  0.97098086949E+02 -0.18378629382E+03  0.28899017124E+03  0.12508957925E+03 0.  0.
          5    1    3    3  502    0  0.76042932543E+02  0.10324870547E+03 -0.15827413572E+03  0.20374247767E+03  0.41800000000E+01 0. -1.
         -5    1    3    3    0  502  0.80999978641E+02 -0.61506185187E+01 -0.25512158098E+02  0.85247693569E+02  0.41800000000E+01 0. -1.
        -11    1    1    2    0    0 -0.12452831729E+03 -0.76079490562E+02  0.11230447243E+03  0.18414039540E+03  0.00000000000E+00 0.  1.
         11    1    1    2    0    0 -0.32514593891E+02 -0.21018596387E+02  0.95912738085E+02  0.10343226545E+03  0.00000000000E+00 0. -1.
</event>
<event>
 7    1  0.2651429E-009  0.9932867E+02  0.7561462E-02  0.1281714E+00
         -2   -1    0    0    0  501 -0.00000000000E+00  0.00000000000E+00  0.12906688624E+03  0.12906688624E+03  0.00000000000E+00 0.  1.
          2   -1    0    0  501    0  0.00000000000E+00 -0.00000000000E+00 -0.11011554128E+03  0.11011554128E+03  0.00000000000E+00 0. -1.
         25    2    1    2    0    0  0.97757868775E+01 -0.49634018326E+02 -0.41283738532E+01  0.13499657831E+03  0.12509168997E+03 0.  0.
          5    1    3    3  502    0 -0.50775628275E+02  0.36102251159E+01 -0.15695841169E+02  0.53432480591E+02  0.41800000000E+01 0.  1.
         -5    1    3    3    0  502  0.60551415153E+02 -0.53244243442E+02  0.11567467315E+02  0.81564097720E+02  0.41800000000E+01 0.  1.
        -11    1    1    2    0    0  0.16910157707E+02  0.12119429249E+02  0.47655704099E+02  0.51999039723E+02  0.00000000000E+00 0.  1.
         11    1    1    2    0    0 -0.26685944584E+02  0.37514589077E+02 -0.24575985283E+02  0.52186809489E+02  0.00000000000E+00 0. -1.
</event>
<event>
 7    1  0.4037236E-009  0.7577639E+02  0.7561462E-02  0.1341484E+00
         -2   -1    0    0    0  501 -0.00000000000E+00  0.00000000000E+00  0.70038894613E+02  0.70038894613E+02  0.00000000000E+00 0.  1.
          2   -1    0    0  501    0  0.00000000000E+00 -0.00000000000E+00 -0.22582133204E+03  0.22582133204E+03  0.00000000000E+00 0. -1.
         25    2    1    2    0    0 -0.21120494380E+02 -0.43202763209E+02 -0.37243896777E+02  0.13909444583E+03  0.12509037926E+03 0.  0.
          5    1    3    3  502    0 -0.49947679068E+02 -0.64481274189E+01 -0.66723578715E+02  0.83700999684E+02  0.41800000000E+01 0. -1.
         -5    1    3    3    0  502  0.28827184688E+02 -0.36754635790E+02  0.29479681938E+02  0.55393446149E+02  0.41800000000E+01 0. -1.
        -11    1    1    2    0    0 -0.55308944713E+01  0.11054481359E+02  0.13486407437E+02  0.18294139425E+02  0.00000000000E+00 0.  1.
         11    1    1    2    0    0  0.26651388851E+02  0.32148281850E+02 -0.13202494809E+03  0.13847164139E+03  0.00000000000E+00 0. -1.
</event>
<event>
 7    1  0.2651429E-009  0.1068466E+03  0.7561462E-02  0.1266523E+00
         -1   -1    0    0    0  501 -0.00000000000E+00  0.00000000000E+00  0.60528418652E+02  0.60528418652E+02  0.00000000000E+00 0.  1.
          1   -1    0    0  501    0  0.00000000000E+00 -0.00000000000E+00 -0.27565021612E+03  0.27565021612E+03  0.00000000000E+00 0. -1.
         25    2    1    2    0    0  0.32381271332E+02 -0.41384763936E+02 -0.17534711146E+03  0.22171222309E+03  0.12509378462E+03 0.  0.
          5    1    3    3  502    0 -0.15132184694E+02  0.24613177474E+02 -0.11939574591E+03  0.12291301013E+03  0.41800000000E+01 0. -1.
         -5    1    3    3    0  502  0.47513456026E+02 -0.65997941410E+02 -0.55951365549E+02  0.98799212956E+02  0.41800000000E+01 0. -1.
        -11    1    1    2    0    0 -0.15208895707E+02  0.68942466843E+02 -0.41600336302E+02  0.81944873076E+02  0.00000000000E+00 0. -1.
         11    1    1    2    0    0 -0.17172375624E+02 -0.27557702907E+02  0.18256502948E+01  0.32521538603E+02  0.00000000000E+00 0.  1.
</event>
<event>
 7    1  0.2651429E-009  0.1847314E+03  0.7561462E-02  0.1163301E+00
          3   -1    0    0  501    0  0.00000000000E+00  0.00000000000E+00  0.47069385407E+02  0.47069385407E+02  0.00000000000E+00 0. -1.
         -3   -1    0    0    0  501 -0.00000000000E+00 -0.00000000000E+00 -0.84133999358E+03  0.84133999358E+03  0.00000000000E+00 0.  1.
         25    2    1    2    0    0  0.14978261143E+03  0.66649125352E+02 -0.48903723917E+03  0.53073659684E+03  0.12508787843E+03 0.  0.
          5    1    3    3  502    0  0.12180310460E+03 -0.10357201767E+02 -0.32672865397E+03  0.34887297637E+03  0.41800000000E+01 0. -1.
         -5    1    3    3    0  502  0.27979506833E+02  0.77006327119E+02 -0.16230858520E+03  0.18186362046E+03  0.41800000000E+01 0. -1.
        -11    1    1    2    0    0 -0.74360085830E+02 -0.43807968143E+02 -0.24105889646E+03  0.25604287141E+03  0.00000000000E+00 0.  1.
         11    1    1    2    0    0 -0.75422525603E+02 -0.22841157208E+02 -0.64174472551E+02  0.10162991075E+03  0.00000000000E+00 0. -1.
</event>
<event>
 7    1  0.2651429E-009  0.1804361E+03  0.7561462E-02  0.1167382E+00
         -1   -1    0    0    0  501 -0.00000000000E+00  0.00000000000E+00  0.41883459625E+03  0.41883459625E+03  0.00000000000E+00 0.  1.
          1   -1    0    0  501    0  0.00000000000E+00 -0.00000000000E+00 -0.18042079285E+03  0.18042079285E+03  0.00000000000E+00 0. -1.
         25    2    1    2    0    0  0.72198423626E+02 -0.14053125226E+03 -0.92341805082E+02  0.22166756305E+03  0.12509138381E+03 0.  0.
          5    1    3    3  502    0  0.62619317982E+02 -0.12088769152E+02 -0.62495412127E+02  0.89389407991E+02  0.41800000000E+01 0.  1.
         -5    1    3    3    0  502  0.95791056440E+01 -0.12844248311E+03 -0.29846392955E+02  0.13227815505E+03  0.41800000000E+01 0.  1.
        -11    1    1    2    0    0 -0.16128857276E+02  0.93584654492E+02  0.11150743710E+03  0.14646547758E+03  0.00000000000E+00 0. -1.
         11    1    1    2    0    0 -0.56069566350E+02  0.46946597769E+02  0.21924817138E+03  0.23112234847E+03  0.00000000000E+00 0.  1.
</event>
<event>
 7    1  0.2651429E-009  0.2242408E+03  0.7561462E-02  0.1130760E+00
         -1   -1    0    0    0  501 -0.00000000000E+00  0.00000000000E+00  0.12112467365E+03  0.12112467365E+03  0.00000000000E+00 0. -1.
          1   -1    0    0  501    0  0.00000000000E+00 -0.00000000000E+00 -0.52151860860E+03  0.52151860860E+03  0.00000000000E+00 0.  1.
         25    2    1    2    0    0  0.19462319648E+03 -0.10751523390E+03 -0.25881538312E+03  0.36341664558E+03  0.12509413101E+03 0.  0.
          5    1    3    3  502    0  0.93283580481E+02 -0.47881600601E+02 -0.35107579438E+02  0.11065481733E+03  0.41800000000E+01 0.  1.
         -5    1    3    3    0  502  0.10133961600E+03 -0.59633633296E+02 -0.22370780368E+03  0.25276182825E+03  0.41800000000E+01 0.  1.
        -11    1    1    2    0    0 -0.91524628863E+02  0.73297641297E+02 -0.25020820529E+02  0.11989722002E+03  0.00000000000E+00 0. -1.
         11    1    1    2    0    0 -0.10309856762E+03  0.34217592601E+02 -0.11655773130E+03  0.15932941666E+03  0.00000000000E+00 0.  1.
</event>
<event>
 7    1  0.2651429E-009  0.1070521E+03  0.7561462E-02  0.1266128E+00
          2   -1    0    0  501    0  0.00000000000E+00  0.00000000000E+00  0.67204612363E+03  0.67204612363E+03  0.00000000000E+00 0. -1.
         -2   -1    0    0    0  501 -0.00000000000E+00 -0.00000000000E+00 -0.32359670955E+02  0.32359670955E+02  0.00000000000E+00 0.  1.
         25    2    1    2    0    0 -0.57729001469E+02 -0.12217373191E+01  0.54203431099E+03  0.55926964451E+03  0.12508881136E+03 0.  0.
          5    1    3    3  502    0 -0.38344680123E+02  0.54801012736E+02  0.17383162268E+03  0.18630182751E+03  0.41800000000E+01 0. -1.
         -5    1    3    3    0  502 -0.19384321347E+02 -0.56022750055E+02  0.36820268830E+03  0.37296781699E+03  0.41800000000E+01 0. -1.
        -11    1    1    2    0    0 -0.14226905247E+02  0.62295071664E+01 -0.77964478298E+01  0.17378037611E+02  0.00000000000E+00 0.  1.
         11    1    1    2    0    0  0.71955906716E+02 -0.50077698474E+01  0.10544858952E+03  0.12775811247E+03  0.00000000000E+00 0. -1.
</event>
<event>
 7    1  0.2651429E-009  0.1264726E+03  0.7561462E-02  0.1232786E+00
          2   -1    0    0  501    0  0.00000000000E+00  0.00000000000E+00  0.66761431209E+02  0.66761431209E+02  0.00000000000E+00 0. -1.
         -2   -1    0    0    0  501 -0.00000000000E+00 -0.00000000000E+00 -0.33177286449E+03  0.33177286449E+03  0.00000000000E+00 0.  1.
         25    2    1    2    0    0  0.13764449135E+01  0.77557714109E+02 -0.50635349995E+02  0.15565485023E+03  0.12508956836E+03 0.  0.
          5    1    3    3  502    0  0.56371850464E+02  0.71902327265E+02 -0.26816263676E+02  0.95311670788E+02  0.41800000000E+01 0.  1.
         -5    1    3    3    0  502 -0.54995405550E+02  0.56553868442E+01 -0.23819086319E+02  0.60343179441E+02  0.41800000000E+01 0.  1.
        -11    1    1    2    0    0 -0.36612972304E+02 -0.33510317112E+02 -0.14619006095E+03  0.15438583165E+03  0.00000000000E+00 0.  1.
         11    1    1    2    0    0  0.35236527390E+02 -0.44047396997E+02 -0.68186022334E+02  0.88493613817E+02  0.00000000000E+00 0. -1.
</event>
<event>
 7    1  0.2651429E-009  0.2001000E+03  0.7561462E-02  0.1149655E+00
          1   -1    0    0  501    0  0.00000000000E+00  0.00000000000E+00  0.49644563688E+02  0.49644563688E+02  0.00000000000E+00 0. -1.
         -1   -1    0    0    0  501 -0.00000000000E+00 -0.00000000000E+00 -0.83339200532E+03  0.83339200532E+03  0.00000000000E+00 0.  1.
         25    2    1    2    0    0  0.12392271784E+03 -0.11645035311E+03 -0.42600125891E+03  0.47543927840E+03  0.12509160690E+03 0.  0.
          5    1    3    3  502    0  0.12691898155E+03 -0.44140821890E+02 -0.22931168899E+03  0.26581603252E+03  0.41800000000E+01 0.  1.
         -5    1    3    3    0  502 -0.29962637013E+01 -0.72309531219E+02 -0.19668956992E+03  0.20962324589E+03  0.41800000000E+01 0.  1.
        -11    1    1    2    0    0 -0.40065306197E+02 -0.10225724469E+02 -0.54344864230E+02  0.68287322907E+02  0.00000000000E+00 0.  1.
         11    1    1    2    0    0 -0.83857411647E+02  0.12667607758E+03 -0.30340131849E+03  0.33930996770E+03  0.00000000000E+00 0. -1.
</event>
<event>
 7    1  0.2651429E-009  0.2647280E+03  0.7561462E-02  0.1104335E+00
          2   -1    0    0  501    0  0.00000000000E+00  0.00000000000E+00  0.55146659345E+03  0.55146659345E+03  0.00000000000E+00 0. -1.
         -2   -1    0    0    0  501 -0.00000000000E+00 -0.00000000000E+00 -0.15916417046E+03  0.15916417046E+03  0.00000000000E+00 0.  1.
         25    2    1    2    0    0  0.15572777670E+02  0.25077565279E+03  0.64996758284E+02  0.28810268529E+03  0.12509052420E+03 0.  0.
          5    1    3    3  502    0  0.20985039943E+02  0.26245910034E+03  0.71812272121E+02  0.27294619631E+03  0.41800000000E+01 0. -1.
         -5    1    3    3    0  502 -0.54122622732E+01 -0.11683447543E+02 -0.68155138376E+01  0.15156488982E+02  0.41800000000E+01 0. -1.
        -11    1    1    2    0    0 -0.57963428608E+01 -0.95959699190E+01  0.65412614833E+02  0.66366334904E+02  0.00000000000E+00 0. -1.
         11    1    1    2    0    0 -0.97764348094E+01 -0.24117968288E+03  0.26189304988E+03  0.35616174371E+03  0.00000000000E+00 0.  1.
</event>
<event>
 7    1  0.2651429E-009  0.7184509E+02  0.7561462E-02  0.1353929E+00
         -3   -1    0    0    0  501 -0.00000000000E+00  0.00000000000E+00  0.17564350265E+03  0.17564350265E+03  0.00000000000E+00 0.  1.
          3   -1    0    0  501    0  0.00000000000E+00 -0.00000000000E+00 -0.89772071969E+02  0.89772071969E+02  0.00000000000E+00 0. -1.
         25    2    1    2    0    0 -0.17216639864E+01 -0.60792231335E+02  0.35828313525E+02  0.14363143220E+03  0.12509061016E+03 0.  0.
          5    1    3    3  502    0 -0.18144737966E+02 -0.47448547765E+02 -0.40001605553E+02  0.64793495412E+02  0.41800000000E+01 0. -1.
         -5    1    3    3    0  502  0.16423073980E+02 -0.13343683570E+02  0.75829919078E+02  0.78837936792E+02  0.41800000000E+01 0. -1.
        -11    1    1    2    0    0  0.19336107597E+02  0.30757618119E+02  0.71981464362E+02  0.80630312793E+02  0.00000000000E+00 0.  1.
         11    1    1    2    0    0 -0.17614443610E+02  0.30034613217E+02 -0.21938347204E+02  0.41153829625E+02  0.00000000000E+00 0. -1.
</event>
<event>
 7    1  0.2651429E-009  0.1062936E+03  0.7561462E-02  0.1267592E+00
          1   -1    0    0  501    0  0.00000000000E+00  0.00000000000E+00  0.46094166232E+03  0.46094166232E+03  0.00000000000E+00 0. -1.
         -1   -1    0    0    0  501 -0.00000000000E+00 -0.00000000000E+00 -0.32118803205E+02  0.32118803205E+02  0.00000000000E+00 0.  1.
         25    2    1    2    0    0 -0.32726947359E+02 -0.40730646638E+02  0.27327160337E+03  0.30505210783E+03  0.12509748447E+03 0.  0.
          5    1    3    3  502    0  0.22021492588E+02  0.21281106442E+02  0.16941786000E+03  0.17221415539E+03  0.41800000000E+01 0. -1.
         -5    1    3    3    0  502 -0.54748439947E+02 -0.62011753080E+02  0.10385374337E+03  0.13283795244E+03  0.41800000000E+01 0. -1.
        -11    1    1    2    0    0  0.44162947033E+02 -0.11294943357E+02  0.39505605303E+02  0.60321094871E+02  0.00000000000E+00 0.  1.
         11    1    1    2    0    0 -0.11435999674E+02  0.52025589994E+02  0.11604565044E+03  0.12768726283E+03  0.00000000000E+00 0. -1.
</event>
<event>
 7    1  0.2651429E-009  0.9893463E+02  0.7561462E-02  0.1282552E+00
         -2   -1    0    0    0  501 -0.00000000000E+00  0.00000000000E+00  0.21473515850E+03  0.21473515850E+03  0.00000000000E+00 0. -1.
          2   -1    0    0  501    0  0.00000000000E+00 -0.00000000000E+00 -0.11150139449E+03  0.11150139449E+03  0.00000000000E+00 0.  1.
         25    2    1    2    0    0  0.16370905184E+02  0.46916041147E+01 -0.58063804582E+02  0.13895851266E+03  0.12509214665E+03 0.  0.
          5    1    3    3  502    0 -0.38304105812E+01 -0.50620790012E+02  0.66429135561E+01  0.51368639530E+02  0.41800000000E+01 0. -1.
         -5    1    3    3    0  502  0.20201315765E+02  0.55312394127E+02 -0.64706718138E+02  0.87589873130E+02  0.41800000000E+01 0. -1.
        -11    1    1    2    0    0  0.28828812383E+02  0.21221109131E+02  0.10324285966E+03  0.10927270458E+03  0.00000000000E+00 0. -1.
         11    1    1    2    0    0 -0.45199717567E+02 -0.25912713245E+02  0.58054708933E+02  0.78005335748E+02  0.00000000000E+00 0.  1.
</event>
<event>
 7    1  0.2657309E-009  0.1139127E+03  0.7561462E-02  0.1253491E+00
         -1   -1    0    0    0  501 -0.00000000000E+00  0.00000000000E+00  0.25099223191E+03  0.25099223191E+03  0.00000000000E+00 0.  1.
          1   -1    0    0  501    0  0.00000000000E+00 -0.00000000000E+00 -0.94953255992E+02  0.94953255992E+02  0.00000000000E+00 0. -1.
         25    2    1    2    0    0  0.10681641245E+03  0.10531431169E+02  0.59125694605E+02  0.17511233287E+03  0.12509126408E+03 0.  0.
          5    1    3    3  502    0  0.45339287906E+02  0.11872800532E+02  0.93404736249E+02  0.10458743507E+03  0.41800000000E+01 0. -1.
         -5    1    3    3    0  502  0.61477124543E+02 -0.13413693633E+01 -0.34279041644E+02  0.70524897801E+02  0.41800000000E+01 0. -1.
        -11    1    1    2    0    0 -0.23641458876E+02 -0.25338664675E+02 -0.85599108739E+01  0.35696478530E+02  0.00000000000E+00 0.  1.
         11    1    1    2    0    0 -0.83174953574E+02  0.14807233506E+02  0.10547319218E+03  0.13513667650E+03  0.00000000000E+00 0. -1.
</event>
<event>
 7    1  0.2651429E-009  0.1195070E+03  0.7561462E-02  0.1243913E+00
          1   -1    0    0  501    0  0.00000000000E+00  0.00000000000E+00  0.85142326790E+02  0.85142326790E+02  0.00000000000E+00 0. -1.
         -1   -1    0    0    0  501 -0.00000000000E+00 -0.00000000000E+00 -0.23096468050E+03  0.23096468050E+03  0.00000000000E+00 0.  1.
         25    2    1    2    0    0 -0.77698069844E+02 -0.81250685608E+01 -0.12918431714E+03  0.19606074099E+03  0.12509284378E+03 0.  0.
          5    1    3    3  502    0 -0.29480967070E+02 -0.49131977284E+02 -0.63325635500E+01  0.57798376901E+02  0.41800000000E+01 0. -1.
         -5    1    3    3    0  502 -0.48217102774E+02  0.41006908723E+02 -0.12285175359E+03  0.13826236409E+03  0.41800000000E+01 0. -1.
        -11    1    1    2    0    0  0.43942348713E+02  0.48537368912E+02 -0.24804440298E+01  0.65520674553E+02  0.00000000000E+00 0.  1.
         11    1    1    2    0    0  0.33755721132E+02 -0.40412300351E+02 -0.14157592537E+02  0.54525591746E+02  0.00000000000E+00 0. -1.
</event>
<event>
 7    1  0.2651429E-009  0.1053541E+03  0.7561462E-02  0.1269423E+00
         -1   -1    0    0    0  501 -0.00000000000E+00  0.00000000000E+00  0.28856943120E+03  0.28856943120E+03  0.00000000000E+00 0.  1.
          1   -1    0    0  501    0  0.00000000000E+00 -0.00000000000E+00 -0.92016931850E+02  0.92016931850E+02  0.00000000000E+00 0. -1.
         25    2    1    2    0    0 -0.41125643838E+01  0.37833487726E+02  0.23922061794E+03  0.27262160701E+03  0.12509096922E+03 0.  0.
          5    1    3    3  502    0 -0.57921816152E+02  0.21165569373E+02  0.65999028230E+02  0.90422686537E+02  0.41800000000E+01 0. -1.
         -5    1    3    3    0  502  0.53809251768E+02  0.16667918352E+02  0.17322158971E+03  0.18219892047E+03  0.41800000000E+01 0. -1.
        -11    1    1    2    0    0  0.41140932882E+02 -0.24777283219E+01 -0.38827203619E+02  0.56623910470E+02  0.00000000000E+00 0. -1.
         11    1    1    2    0    0 -0.37028368499E+02 -0.35355759404E+02 -0.38409149698E+01  0.51340845576E+02  0.00000000000E+00 0.  1.
</event>
<event>
 7    1  0.2651429E-009  0.1000940E+03  0.7561462E-02  0.1280098E+00
         -2   -1    0    0    0  501 -0.00000000000E+00  0.00000000000E+00  0.61443032168E+02  0.61443032168E+02  0.00000000000E+00 0.  1.
          2   -1    0    0  501    0  0.00000000000E+00 -0.00000000000E+00 -0.20367680136E+03  0.20367680136E+03  0.00000000000E+00 0. -1.
         25    2    1    2    0    0 -0.18720694152E+02  0.18214821528E+02 -0.72097699602E+02  0.14670857942E+03  0.12507231858E+03 0.  0.
          5    1    3    3  502    0 -0.18790211601E+02  0.63472922011E+02 -0.61451695202E+01  0.66611706096E+02  0.41800000000E+01 0. -1.
         -5    1    3    3    0  502  0.69517449199E-01 -0.45258100482E+02 -0.65952530081E+02  0.80096873323E+02  0.41800000000E+01 0. -1.
        -11    1    1    2    0    0  0.25464843247E+02  0.30213778833E+02 -0.54017678168E+02  0.66927126247E+02  0.00000000000E+00 0. -1.
         11    1    1    2    0    0 -0.67441490950E+01 -0.48428600362E+02 -0.16118391426E+02  0.51484127867E+02  0.00000000000E+00 0.  1.
</event>
<event>
 7    1  0.2651429E-009  0.1472853E+03  0.7561462E-02  0.1203849E+00
          1   -1    0    0  501    0  0.00000000000E+00  0.00000000000E+00  0.31386473513E+02  0.31386473513E+02  0.00000000000E+00 0. -1.
         -1   -1    0    0    0  501 -0.00000000000E+00 -0.00000000000E+00 -0.13752203431E+04  0.13752203431E+04  0.00000000000E+00 0.  1.
         25    2    1    2    0    0 -0.76436187909E+02  0.91132858385E+02 -0.11453467541E+04  0.11582831489E+04  0.12511185880E+03 0.  0.
          5    1    3    3  502    0  0.21682730180E+02  0.27438647636E+02 -0.92993380221E+02  0.99439737214E+02  0.41800000000E+01 0.  1.
         -5    1    3    3    0  502 -0.98118918088E+02  0.63694210749E+02 -0.10523533739E+04  0.10588434117E+04  0.41800000000E+01 0.  1.
        -11    1    1    2    0    0  0.51730709542E+02 -0.41780901533E+01 -0.11095487894E+03  0.12249288921E+03  0.00000000000E+00 0.  1.
         11    1    1    2    0    0  0.24705478366E+02 -0.86954768231E+02 -0.87532236521E+02  0.12583077847E+03  0.00000000000E+00 0. -1.
</event>
<event>
 7    1  0.2651429E-009  0.2999717E+03  0.7561462E-02  0.1085255E+00
         -2   -1    0    0    0  501 -0.00000000000E+00  0.00000000000E+00  0.34470913509E+03  0.34470913509E+03  0.00000000000E+00 0.  1.
          2   -1    0    0  501    0  0.00000000000E+00 -0.00000000000E+00 -0.31378758662E+03  0.31378758662E+03  0.00000000000E+00 0. -1.
         25    2    1    2    0    0 -0.18817851677E+03 -0.21755550689E+03 -0.10101495300E+03  0.32953453839E+03  0.12508972184E+03 0.  0.
          5    1    3    3  502    0 -0.20464642978E+03 -0.21078066106E+03 -0.86791154159E+02  0.30636387702E+03  0.41800000000E+01 0. -1.
         -5    1    3    3    0  502  0.16467913012E+02 -0.67748458237E+01 -0.14223798840E+02  0.23170661370E+02  0.41800000000E+01 0. -1.
        -11    1    1    2    0    0  0.53758125870E+02  0.55058750600E+02 -0.56543888593E+01  0.77158111875E+02  0.00000000000E+00 0. -1.
         11    1    1    2    0    0  0.13442039090E+03  0.16249675629E+03  0.13759089033E+03  0.25180407144E+03  0.00000000000E+00 0.  1.
</event>
<event>
 7    1  0.2651429E-009  0.8340380E+02  0.7561462E-02  0.1319660E+00
         -2   -1    0    0    0  501 -0.00000000000E+00  0.00000000000E+00  0.10855241712E+03  0.10855241712E+03  0.00000000000E+00 0.  1.
          2   -1    0    0  501    0  0.00000000000E+00 -0.00000000000E+00 -0.21691356050E+03  0.21691356050E+03  0.00000000000E+00 0. -1.
         25    2    1    2    0    0  0.26989829323E+02  0.72078012829E+01  0.52285618882E+02  0.13842548995E+03  0.12508967599E+03 0.  0.
          5    1    3    3  502    0  0.51876528431E+02 -0.14851683462E+02 -0.20830792466E+02  0.57992594514E+02  0.41800000000E+01 0.  1.
         -5    1    3    3    0  502 -0.24886699107E+02  0.22059484745E+02  0.73116411348E+02  0.80432895435E+02  0.41800000000E+01 0.  1.
        -11    1    1    2    0    0 -0.52715084049E+02 -0.10970444914E+01 -0.14917323304E+03  0.15821737277E+03  0.00000000000E+00 0. -1.
         11    1    1    2    0    0  0.25725254726E+02 -0.61107567915E+01 -0.11473529223E+02  0.28823114892E+02  0.00000000000E+00 0.  1.
</event>
<event>
 7    1  0.2651429E-009  0.1051236E+03  0.7561462E-02  0.1269876E+00
          2   -1    0    0  501    0  0.00000000000E+00  0.00000000000E+00  0.16012750771E+03  0.16012750771E+03  0.00000000000E+00 0. -1.
         -2   -1    0    0    0  501 -0.00000000000E+00 -0.00000000000E+00 -0.11005926018E+03  0.11005926018E+03  0.00000000000E+00 0.  1.
         25    2    1    2    0    0 -0.16884553933E+02 -0.29833732370E+02 -0.40298215860E+02  0.13583258313E+03  0.12510557417E+03 0.  0.
          5    1    3    3  502    0 -0.26476606824E+02  0.41058491212E+02  0.76274752542E+01  0.49623192041E+02  0.41800000000E+01 0. -1.
         -5    1    3    3    0  502  0.95920528906E+01 -0.70892223583E+02 -0.47925691114E+02  0.86209391089E+02  0.41800000000E+01 0. -1.
        -11    1    1    2    0    0  0.21261044876E+02  0.57623810528E+02  0.86305449091E+02  0.10593000572E+03  0.00000000000E+00 0. -1.
         11    1    1    2    0    0 -0.43764909433E+01 -0.27790078158E+02  0.40610142959E+01  0.28424179040E+02  0.00000000000E+00 0.  1.
</event>
<event>
 7    1  0.2651429E-009  0.1055993E+03  0.7561462E-02  0.1268943E+00
         -1   -1    0    0    0  501 -0.00000000000E+00  0.00000000000E+00  0.19120954175E+03  0.19120954175E+03  0.00000000000E+00 0.  1.
          1   -1    0    0  501    0  0.00000000000E+00 -0.00000000000E+00 -0.10275476406E+03  0.10275476406E+03  0.00000000000E+00 0. -1.
         25    2    1    2    0    0  0.77606638543E+02 -0.34025954461E+02  0.22927205890E+02  0.15281845236E+03  0.12508903505E+03 0.  0.
          5    1    3    3  502    0  0.58859898320E+02  0.18907167938E+01  0.69339583962E+02  0.91068725391E+02  0.41800000000E+01 0.  1.
         -5    1    3    3    0  502  0.18746740223E+02 -0.35916671255E+02 -0.46412378072E+02  0.61749726974E+02  0.41800000000E+01 0.  1.
        -11    1    1    2    0    0 -0.16658719305E+02 -0.22708116070E+02  0.48607550853E+02  0.56177090208E+02  0.00000000000E+00 0.  1.
         11    1    1    2    0    0 -0.60947919239E+02  0.56734070531E+02  0.16920020947E+02  0.84968763245E+02  0.00000000000E+00 0. -1.
</event>
<event>
 7    1  0.2651429E-009  0.1323329E+03  0.7561462E-02  0.1224035E+00
          3   -1    0    0  501    0  0.00000000000E+00  0.00000000000E+00  0.19643192072E+03  0.19643192072E+03  0.00000000000E+00 0. -1.
         -3   -1    0    0    0  501 -0.00000000000E+00 -0.00000000000E+00 -0.12214583700E+03  0.12214583700E+03  0.00000000000E+00 0.  1.
         25    2    1    2    0    0 -0.51272662130E+02 -0.77585536269E+02 -0.21816182633E+02  0.15740242903E+03  0.12510466626E+03 0.  0.
          5    1    3    3  502    0 -0.76704108556E+02 -0.87193626402E+02  0.84411500826E+01  0.11651169113E+03  0.41800000000E+01 0.  1.
         -5    1    3    3    0  502  0.25431446426E+02  0.96080901336E+01 -0.30257332715E+02  0.40890737904E+02  0.41800000000E+01 0.  1.
        -11    1    1    2    0    0  0.94726963994E+01 -0.15923671706E+02 -0.28637299649E+01  0.18748233170E+02  0.00000000000E+00 0.  1.
         11    1    1    2    0    0  0.41799965731E+02  0.93509207975E+02  0.98965996317E+02  0.14242709552E+03  0.00000000000E+00 0. -1.
</event>
<event>
 7    1  0.2651429E-009  0.2145972E+03  0.7561462E-02  0.1137976E+00
          1   -1    0    0  501    0  0.00000000000E+00  0.00000000000E+00  0.61442115352E+02  0.61442115352E+02  0.00000000000E+00 0. -1.
         -1   -1    0    0    0  501 -0.00000000000E+00 -0.00000000000E+00 -0.10882511093E+04  0.10882511093E+04  0.00000000000E+00 0.  1.
         25    2    1    2    0    0  0.12815002959E+02  0.20104873680E+03 -0.26161581830E+03  0.35309451270E+03  0.12509228451E+03 0.  0.
          5    1    3    3  502    0 -0.61980482657E+01  0.19578974693E+03 -0.26796288843E+03  0.33195424802E+03  0.41800000000E+01 0. -1.
         -5    1    3    3    0  502  0.19013051225E+02  0.52589898733E+01  0.63470701305E+01  0.21140264677E+02  0.41800000000E+01 0. -1.
        -11    1    1    2    0    0  0.28894797541E+02 -0.85525942019E+02 -0.43580133966E+03  0.44505325944E+03  0.00000000000E+00 0.  1.
         11    1    1    2    0    0 -0.41709800500E+02 -0.11552279478E+03 -0.32939183602E+03  0.35154545255E+03  0.00000000000E+00 0. -1.
</event>
<event>
 7    1  0.2651429E-009  0.1101328E+03  0.7561462E-02  0.1260324E+00
         -2   -1    0    0    0  501 -0.00000000000E+00  0.00000000000E+00  0.54921510571E+03  0.54921510571E+03  0.00000000000E+00 0.  1.
          2   -1    0    0  501    0  0.00000000000E+00 -0.00000000000E+00 -0.31576614132E+02  0.31576614132E+02  0.00000000000E+00 0. -1.
         25    2    1    2    0    0 -0.72393259142E+02 -0.17554902241E+02  0.26559323970E+03  0.30288014600E+03  0.12509058839E+03 0.  0.
          5    1    3    3  502    0 -0.10545821556E+03 -0.30434011640E+02  0.19827396564E+03  0.22666649983E+03  0.41800000000E+01 0.  1.
         -5    1    3    3    0  502  0.33064956422E+02  0.12879109399E+02  0.67319274064E+02  0.76213646171E+02  0.41800000000E+01 0.  1.
        -11    1    1    2    0    0  0.19572808929E+02  0.22542150654E+01 -0.23876903486E+00  0.19703637877E+02  0.00000000000E+00 0.  1.
         11    1    1    2    0    0  0.52820450213E+02  0.15300687175E+02  0.25228402091E+03  0.25820793596E+03  0.00000000000E+00 0. -1.
</event>
<event>
 7    1  0.2651429E-009  0.1857825E+03  0.7561462E-02  0.1162321E+00
         -1   -1    0    0    0  501 -0.00000000000E+00  0.00000000000E+00  0.40256652286E+02  0.40256652286E+02  0.00000000000E+00 0.  1.
          1   -1    0    0  501    0  0.00000000000E+00 -0.00000000000E+00 -0.10919054700E+04  0.10919054700E+04  0.00000000000E+00 0. -1.
         25    2    1    2    0    0 -0.13471362003E+03 -0.35812076770E+01 -0.70742623871E+03  0.73093100687E+03  0.12509064357E+03 0.  0.
          5    1    3    3  502    0 -0.14553965359E+03 -0.22693495241E+02 -0.67878291077E+03  0.69459376462E+03  0.41800000000E+01 0. -1.
         -5    1    3    3    0  502  0.10826033560E+02  0.19112287565E+02 -0.28643327945E+02  0.36337242250E+02  0.41800000000E+01 0. -1.
        -11    1    1    2    0    0 -0.39214272137E+00  0.56680564918E+02 -0.13659720231E+03  0.14789062139E+03  0.00000000000E+00 0. -1.
         11    1    1    2    0    0  0.13510576275E+03 -0.53099357241E+02 -0.20762537664E+03  0.25334049399E+03  0.00000000000E+00 0.  1.
</event>
<event>
 7    1  0.2651429E-009  0.8728961E+02  0.7561462E-02  0.1309551E+00
         -1   -1    0    0    0  501 -0.00000000000E+00  0.00000000000E+00  0.34218403649E+03  0.34218403649E+03  0.00000000000E+00 0.  1.
          1   -1    0    0  501    0  0.00000000000E+00 -0.00000000000E+00 -0.42542140725E+02  0.42542140725E+02  0.00000000000E+00 0. -1.
         25    2    1    2    0    0 -0.12239565366E+02 -0.68838936710E+00  0.25219391036E+03  0.28178009714E+03  0.12509186177E+03 0.  0.
          5    1    3    3  502    0 -0.51733050359E+02  0.36133373365E+02  0.84412325390E+02  0.10547436773E+03  0.41800000000E+01 0. -1.
         -5    1    3    3    0  502  0.39493484994E+02 -0.36821762732E+02  0.16778158497E+03  0.17630572941E+03  0.41800000000E+01 0. -1.
        -11    1    1    2    0    0 -0.87691374593E+01 -0.23535326989E+02  0.62622859063E+02  0.67471711594E+02  0.00000000000E+00 0.  1.
         11    1    1    2    0    0  0.21008702825E+02  0.24223716356E+02 -0.15174873659E+02  0.35474368480E+02  0.00000000000E+00 0. -1.
</event>
<event>
 7    1  0.2651429E-009  0.1627929E+03  0.7561462E-02  0.1185579E+00
          2   -1    0    0  501    0  0.00000000000E+00  0.00000000000E+00  0.33967147288E+03  0.33967147288E+03  0.00000000000E+00 0. -1.
         -2   -1    0    0    0  501 -0.00000000000E+00 -0.00000000000E+00 -0.11059429832E+03  0.11059429832E+03  0.00000000000E+00 0.  1.
         25    2    1    2    0    0  0.13450468667E+03  0.46229613978E+02  0.34297145590E+02  0.19249199016E+03  0.12509270217E+03 0.  0.
          5    1    3    3  502    0 -0.15231842608E+02  0.27561488478E+02 -0.12968193298E+02  0.34311676056E+02  0.41800000000E+01 0.  1.
         -5    1    3    3    0  502  0.14973652927E+03  0.18668125500E+02  0.47265338887E+02  0.15818031410E+03  0.41800000000E+01 0.  1.
        -11    1    1    2    0    0 -0.67481769632E+02 -0.16065996270E+02  0.26703973029E+02  0.74330395158E+02  0.00000000000E+00 0.  1.
         11    1    1    2    0    0 -0.67022917033E+02 -0.30163617708E+02  0.16807605594E+03  0.18344338588E+03  0.00000000000E+00 0. -1.
</event>
<event>
 7    1  0.2651429E-009  0.1517127E+03  0.7561462E-02  0.1198384E+00
         -2   -1    0    0    0  501 -0.00000000000E+00  0.00000000000E+00  0.54636238535E+02  0.54636238535E+02  0.00000000000E+00 0. -1.
          2   -1    0    0  501    0  0.00000000000E+00 -0.00000000000E+00 -0.60356630684E+03  0.60356630684E+03  0.00000000000E+00 0.  1.
         25    2    1    2    0    0 -0.96849644356E+02  0.10000874817E+03 -0.36509243482E+03  0.41027144156E+03  0.12509423036E+03 0.  0.
          5    1    3    3  502    0 -0.62388359935E+02  0.57823853061E+02 -0.70223857561E+02  0.11038463665E+03  0.41800000000E+01 0.  1.
         -5    1    3    3    0  502 -0.34461284420E+02  0.42184895111E+02 -0.29486857726E+03  0.29988680490E+03  0.41800000000E+01 0.  1.
        -11    1    1    2    0    0  0.10790641733E+03 -0.62888435178E+02 -0.15786871097E+03  0.20129898182E+03  0.00000000000E+00 0.  1.
         11    1    1    2    0    0 -0.11056772970E+02 -0.37120312994E+02 -0.25968922508E+02  0.46632121992E+02  0.00000000000E+00 0. -1.
</event>
<event>
 7    1  0.2651429E-009  0.1602821E+03  0.7561462E-02  0.1188379E+00
          2   -1    0    0  501    0  0.00000000000E+00  0.00000000000E+00  0.22484327365E+03  0.22484327365E+03  0.00000000000E+00 0.  1.
         -2   -1    0    0    0  501 -0.00000000000E+00 -0.00000000000E+00 -0.16580016888E+03  0.16580016888E+03  0.00000000000E+00 0. -1.
         25    2    1    2    0    0 -0.11986632321E+03 -0.81162033242E+02  0.96114203810E+02  0.21410251967E+03  0.12508692048E+03 0.  0.
          5    1    3    3  502    0 -0.12048404774E+03 -0.67574273130E+02  0.23598153257E+02  0.14020354270E+03  0.41800000000E+01 0.  1.
         -5    1    3    3    0  502  0.61772453322E+00 -0.13587760113E+02  0.72516050554E+02  0.73898976964E+02  0.41800000000E+01 0.  1.
        -11    1    1    2    0    0  0.43080694972E+02 -0.14507888935E+02  0.73983554305E+01  0.46056061313E+02  0.00000000000E+00 0.  1.
         11    1    1    2    0    0  0.76785628238E+02  0.95669922178E+02 -0.44469454472E+02  0.13048486155E+03  0.00000000000E+00 0. -1.
</event>
<event>
 7    1  0.2651429E-009  0.8704262E+02  0.7561462E-02  0.1310176E+00
         -2   -1    0    0    0  501 -0.00000000000E+00  0.00000000000E+00  0.39572113924E+02  0.39572113924E+02  0.00000000000E+00 0.  1.
          2   -1    0    0  501    0  0.00000000000E+00 -0.00000000000E+00 -0.34304164913E+03  0.34304164913E+03  0.00000000000E+00 0. -1.
         25    2    1    2    0    0  0.32825861171E+02 -0.68799061761E+01 -0.22100861362E+03  0.25616353692E+03  0.12510028010E+03 0.  0.
          5    1    3    3  502    0  0.46721173079E+02 -0.38297124787E+02 -0.41649028157E+02  0.73495930004E+02  0.41800000000E+01 0. -1.
         -5    1    3    3    0  502 -0.13895311908E+02  0.31417218610E+02 -0.17935958547E+03  0.18266760692E+03  0.41800000000E+01 0. -1.
        -11    1    1    2    0    0  0.21388915950E+02  0.11899988155E+02  0.34711669894E+01  0.24721335803E+02  0.00000000000E+00 0.  1.
         11    1    1    2    0    0 -0.54214777121E+02 -0.50200819785E+01 -0.85932088570E+02  0.10172889033E+03  0.00000000000E+00 0. -1.
</event>
<event>
 7    1  0.2651429E-009  0.1044618E+03  0.7561462E-02  0.1271184E+00
         -1   -1    0    0    0  501 -0.00000000000E+00  0.00000000000E+00  0.14927713178E+03  0.14927713178E+03  0.00000000000E+00 0.  1.
          1   -1    0    0  501    0  0.00000000000E+00 -0.00000000000E+00 -0.11472878632E+03  0.11472878632E+03  0.00000000000E+00 0. -1.
         25    2    1    2    0    0 -0.71589361285E+02 -0.80417427487E+01  0.27146498836E+02  0.14688037921E+03  0.12508879695E+03 0.  0.
          5    1    3    3  502    0 -0.97015382638E+02  0.15452055814E+02 -0.63451040195E+01  0.98531635744E+02  0.41800000000E+01 0. -1.
         -5    1    3    3    0  502  0.25426021353E+02 -0.23493798562E+02  0.33491602855E+02  0.48348743464E+02  0.41800000000E+01 0. -1.
        -11    1    1    2    0    0  0.61153179411E+02 -0.20795192094E+01 -0.36247344914E+02  0.71118955037E+02  0.00000000000E+00 0. -1.
         11    1    1    2    0    0  0.10436181874E+02  0.10121261958E+02  0.43649191538E+02  0.46006583852E+02  0.00000000000E+00 0.  1.
</event>
<event>
 7    1  0.2651429E-009  0.1099215E+03  0.7561462E-02  0.1260715E+00
         -1   -1    0    0    0  501 -0.00000000000E+00  0.00000000000E+00  0.65271669707E+02  0.65271669707E+02  0.00000000000E+00 0.  1.
          1   -1    0    0  501    0  0.00000000000E+00 -0.00000000000E+00 -0.29736405801E+03  0.29736405801E+03  0.00000000000E+00 0. -1.
         25    2    1    2    0    0 -0.85218571008E+02  0.11652373691E+02 -0.10614267314E+03  0.18523532306E+03  0.12509146730E+03 0.  0.
          5    1    3    3  502    0 -0.41322881367E+02 -0.28750504076E+02  0.12794107825E+02  0.52108863010E+02  0.41800000000E+01 0.  1.
         -5    1    3    3    0  502 -0.43895689641E+02  0.40402877767E+02 -0.11893678096E+03  0.13312646005E+03  0.41800000000E+01 0.  1.
        -11    1    1    2    0    0  0.14616600663E+02  0.25762857438E+02 -0.16914200752E+01  0.29668682819E+02  0.00000000000E+00 0.  1.
         11    1    1    2    0    0  0.70601970345E+02 -0.37415231130E+02 -0.12425829509E+03  0.14773172184E+03  0.00000000000E+00 0. -1.
</event>
<event>
 7    1  0.2651429E-009  0.1131871E+03  0.7561462E-02  0.1254779E+00
         -1   -1    0    0    0  501 -0.00000000000E+00  0.00000000000E+00  0.38837027776E+03  0.38837027776E+03  0.00000000000E+00 0.  1.
          1   -1    0    0  501    0  0.00000000000E+00 -0.00000000000E+00 -0.53465337158E+02  0.53465337158E+02  0.00000000000E+00 0. -1.
         25    2    1    2    0    0  0.73478961542E+02 -0.46278889081E+02  0.24470300937E+03  0.28821668569E+03  0.12509357197E+03 0.  0.
          5    1    3    3  502    0  0.26468973529E+02 -0.48624165380E+02  0.23301651946E+03  0.23953932195E+03  0.41800000000E+01 0. -1.
         -5    1    3    3    0  502  0.47009988013E+02  0.23452762993E+01  0.11686489912E+02  0.48677363737E+02  0.41800000000E+01 0. -1.
        -11    1    1    2    0    0 -0.28096059589E+01  0.52576777426E+02  0.30191301916E+02  0.60693707430E+02  0.00000000000E+00 0.  1.
         11    1    1    2    0    0 -0.70669355584E+02 -0.62978883454E+01  0.60010629310E+02  0.92925221799E+02  0.00000000000E+00 0. -1.
</event>
<event>
 7    1  0.2651429E-009  0.1183326E+03  0.7561462E-02  0.1245873E+00
         -1   -1    0    0    0  501 -0.00000000000E+00  0.00000000000E+00  0.27461907254E+03  0.27461907254E+03  0.00000000000E+00 0.  1.
          1   -1    0    0  501    0  0.00000000000E+00 -0.00000000000E+00 -0.54864316559E+02  0.54864316559E+02  0.00000000000E+00 0. -1.
         25    2    1    2    0    0  0.50873209775E+02  0.30117566544E+02  0.11278518938E+03  0.17850258969E+03  0.12509006473E+03 0.  0.
          5    1    3    3  502    0  0.89926179545E+02  0.37735952809E+01  0.63729461037E+02  0.11036246823E+03  0.41800000000E+01 0. -1.
         -5    1    3    3    0  502 -0.39052969770E+02  0.26343971263E+02  0.49055728344E+02  0.68140121464E+02  0.41800000000E+01 0. -1.
        -11    1    1    2    0    0 -0.63438723281E+02 -0.46476820350E+02  0.10361878245E+03  0.13008235283E+03  0.00000000000E+00 0.  1.
         11    1    1    2    0    0  0.12565513507E+02  0.16359253806E+02  0.33507841425E+01  0.20898446572E+02  0.00000000000E+00 0. -1.
</event>
<event>
 7    1  0.2651429E-009  0.1241838E+03  0.7561462E-02  0.1236350E+00
          1   -1    0    0  501    0  0.00000000000E+00  0.00000000000E+00  0.31358089338E+03  0.31358089338E+03  0.00000000000E+00 0. -1.
         -1   -1    0    0    0  501 -0.00000000000E+00 -0.00000000000E+00 -0.10423926525E+03  0.10423926525E+03  0.00000000000E+00 0.  1.
         25    2    1    2    0    0 -0.39422958872E+02  0.69962946022E+02 -0.33877276449E+02  0.15246379603E+03  0.12509418747E+03 0.  0.
          5    1    3    3  502    0 -0.74333941052E+02  0.76749110365E+02 -0.43416939577E+02  0.11540564881E+03  0.41800000000E+01 0.  1.
         -5    1    3    3    0  502  0.34910982180E+02 -0.67861643426E+01  0.95396631280E+01  0.37058147226E+02  0.41800000000E+01 0.  1.
        -11    1    1    2    0    0  0.57897304878E+02 -0.39791423564E+02  0.17324774457E+03  0.18694982295E+03  0.00000000000E+00 0.  1.
         11    1    1    2    0    0 -0.18474346006E+02 -0.30171522458E+02  0.69971160001E+02  0.78406539649E+02  0.00000000000E+00 0. -1.
</event>
<event>
 7    1  0.2651429E-009  0.1422457E+03  0.7561462E-02  0.1210339E+00
         -4   -1    0    0    0  501 -0.00000000000E+00  0.00000000000E+00  0.12543374180E+03  0.12543374180E+03  0.00000000000E+00 0.  1.
          4   -1    0    0  501    0  0.00000000000E+00 -0.00000000000E+00 -0.27223766591E+03  0.27223766591E+03  0.00000000000E+00 0. -1.
         25    2    1    2    0    0 -0.11873290981E+03 -0.11128947567E+02 -0.18018625515E+03  0.24966983627E+03  0.12508630322E+03 0.  0.
          5    1    3    3  502    0 -0.82189932572E+02 -0.43193741194E+02 -0.39910410199E+02  0.10114938229E+03  0.41800000000E+01 0. -1.
         -5    1    3    3    0  502 -0.36542977235E+02  0.32064793626E+02 -0.14027584495E+03  0.14852045398E+03  0.41800000000E+01 0. -1.
        -11    1    1    2    0    0  0.90683650001E+02 -0.27729584856E+02  0.12219784765E+02  0.95612642435E+02  0.00000000000E+00 0. -1.
         11    1    1    2    0    0  0.28049259806E+02  0.38858532424E+02  0.21162546269E+02  0.52388929006E+02  0.00000000000E+00 0.  1.
</event>
<event>
 7    1  0.2651429E-009  0.5493570E+02  0.7561462E-02  0.1420403E+00
         -1   -1    0    0    0  501 -0.00000000000E+00  0.00000000000E+00  0.27696722010E+02  0.27696722010E+02  0.00000000000E+00 0.  1.
          1   -1    0    0  501    0  0.00000000000E+00 -0.00000000000E+00 -0.62489826463E+03  0.62489826463E+03  0.00000000000E+00 0. -1.
         25    2    1    2    0    0 -0.28425049308E+02 -0.19125335833E+02 -0.49371036967E+03  0.51047196052E+03  0.12513165650E+03 0.  0.
          5    1    3    3  502    0 -0.72091703622E+01 -0.97173852819E+01  0.30439868106E+01  0.13158190215E+02  0.41800000000E+01 0.  1.
         -5    1    3    3    0  502 -0.21215878946E+02 -0.94079505515E+01 -0.49675435648E+03  0.49731377031E+03  0.41800000000E+01 0.  1.
        -11    1    1    2    0    0 -0.19237776681E+02  0.17169805018E+02  0.24854663111E+01  0.25905053537E+02  0.00000000000E+00 0.  1.
         11    1    1    2    0    0  0.47662825989E+02  0.19555308152E+01 -0.10597663926E+03  0.11621797258E+03  0.00000000000E+00 0. -1.
</event>
<event>
 7    1  0.2651429E-009  0.8279842E+02  0.7561462E-02  0.1321292E+00
          2   -1    0    0  501    0  0.00000000000E+00  0.00000000000E+00  0.12397670219E+03  0.12397670219E+03  0.00000000000E+00 0. -1.
         -2   -1    0    0    0  501 -0.00000000000E+00 -0.00000000000E+00 -0.12201975032E+03  0.12201975032E+03  0.00000000000E+00 0.  1.
         25    2    1    2    0    0  0.32237775346E+02  0.37573811402E+02  0.30924300430E+02  0.13803836793E+03  0.12508882125E+03 0.  0.
          5    1    3    3  502    0  0.18622577890E+02  0.43130435561E+02 -0.42227483480E+02  0.63306142198E+02  0.41800000000E+01 0. -1.
         -5    1    3    3    0  502  0.13615197456E+02 -0.55566241591E+01  0.73151783910E+02  0.74732225734E+02  0.41800000000E+01 0. -1.
        -11    1    1    2    0    0  0.25862049776E+02 -0.36875060760E+02 -0.19532140210E+02  0.49092975321E+02  0.00000000000E+00 0. -1.
         11    1    1    2    0    0 -0.58099825123E+02 -0.69875064196E+00 -0.94352083472E+01  0.58865109261E+02  0.00000000000E+00 0.  1.
</event>
<event>
 7    1  0.2651429E-009  0.1023332E+03  0.7561462E-02  0.1275465E+00
          2   -1    0    0  501    0  0.00000000000E+00  0.00000000000E+00  0.43021358850E+03  0.43021358850E+03  0.00000000000E+00 0. -1.
         -2   -1    0    0    0  501 -0.00000000000E+00 -0.00000000000E+00 -0.47937663834E+02  0.47937663834E+02  0.00000000000E+00 0.  1.
         25    2    1    2    0    0  0.46566145301E+02  0.76270965150E+02  0.16190768198E+03  0.22326343124E+03  0.12508715455E+03 0.  0.
          5    1    3    3  502    0 -0.13614515926E+02  0.44571170640E+02 -0.86686192503E+00  0.46799232319E+02  0.41800000000E+01 0. -1.
         -5    1    3    3    0  502  0.60180661227E+02  0.31699794510E+02  0.16277454390E+03  0.17646419892E+03  0.41800000000E+01 0. -1.
        -11    1    1    2    0    0 -0.27107699942E+02 -0.51793603011E+02  0.37695910011E+02  0.69558510195E+02  0.00000000000E+00 0.  1.
         11    1    1    2    0    0 -0.19458445359E+02 -0.24477362139E+02  0.18267233267E+03  0.18532931090E+03  0.00000000000E+00 0. -1.
</event>
<event>
 7    1  0.2651429E-009  0.1026104E+03  0.7561462E-02  0.1274900E+00
         -1   -1    0    0    0  501 -0.00000000000E+00  0.00000000000E+00  0.92884118460E+02  0.92884118460E+02  0.00000000000E+00 0.  1.
          1   -1    0    0  501    0  0.00000000000E+00 -0.00000000000E+00 -0.31323251795E+03  0.31323251795E+03  0.00000000000E+00 0. -1.
         25    2    1    2    0    0  0.78327887193E+02 -0.13319086369E+02 -0.24057695755E+03  0.28255535638E+03  0.12509037109E+03 0.  0.
          5    1    3    3  502    0  0.63554812738E+02  0.29486101844E+01 -0.25020598839E+03  0.25820228029E+03  0.41800000000E+01 0. -1.
         -5    1    3    3    0  502  0.14773074455E+02 -0.16267696553E+02  0.96290308353E+01  0.24353076085E+02  0.41800000000E+01 0. -1.
        -11    1    1    2    0    0  0.17274145230E+02 -0.10956704806E+02  0.13881484686E+02  0.24721267984E+02  0.00000000000E+00 0.  1.
         11    1    1    2    0    0 -0.95602032423E+02  0.24275791175E+02  0.63470733771E+01  0.98840012045E+02  0.00000000000E+00 0. -1.
</event>
<event>
 7    1  0.2651429E-009  0.1107451E+03  0.7561462E-02  0.1259196E+00
          1   -1    0    0  501    0  0.00000000000E+00  0.00000000000E+00  0.16882547426E+03  0.16882547426E+03  0.00000000000E+00 0. -1.
         -1   -1    0    0    0  501 -0.00000000000E+00 -0.00000000000E+00 -0.92268642326E+02  0.92268642326E+02  0.00000000000E+00 0.  1.
         25    2    1    2    0    0 -0.45366732683E+02  0.43124300349E+02  0.35063011930E+02  0.14420313605E+03  0.12508910394E+03 0.  0.
          5    1    3    3  502    0 -0.74410252756E+02  0.46633727873E+01  0.54105122731E+02  0.92214258478E+02  0.41800000000E+01 0.  1.
         -5    1    3    3    0  502  0.29043520073E+02  0.38460927562E+02 -0.19042110801E+02  0.51988877569E+02  0.41800000000E+01 0.  1.
        -11    1    1    2    0    0  0.34072438254E+02 -0.65243653592E+02  0.63788846482E+01  0.73880684566E+02  0.00000000000E+00 0.  1.
         11    1    1    2    0    0  0.11294294430E+02  0.22119353243E+02  0.35114935350E+02  0.43010295968E+02  0.00000000000E+00 0. -1.
</event>
<event>
 7    1  0.2651429E-009  0.2428717E+03  0.7561462E-02  0.1117894E+00
          2   -1    0    0  501    0  0.00000000000E+00  0.00000000000E+00  0.14186815688E+04  0.14186815688E+04  0.00000000000E+00 0. -1.
         -2   -1    0    0    0  501 -0.00000000000E+00 -0.00000000000E+00 -0.48004418771E+02  0.48004418771E+02  0.00000000000E+00 0.  1.
         25    2    1    2    0    0  0.23114013305E+03 -0.13083906388E+02  0.56819356345E+03  0.62616994196E+03  0.12509165023E+03 0.  0.
          5    1    3    3  502    0  0.12645582073E+03 -0.57281988094E+02  0.22284073099E+03  0.26257906341E+03  0.41800000000E+01 0.  1.
         -5    1    3    3    0  502  0.10468431232E+03  0.44198081706E+02  0.34535283246E+03  0.36359087855E+03  0.41800000000E+01 0.  1.
        -11    1    1    2    0    0 -0.67075269416E+02 -0.87186653034E+01  0.39421330126E+03  0.39997404139E+03  0.00000000000E+00 0.  1.
         11    1    1    2    0    0 -0.16406486363E+03  0.21802571692E+02  0.40827028527E+03  0.44054200418E+03  0.00000000000E+00 0. -1.
</event>
<event>
 7    1  0.2651429E-009  0.1714207E+03  0.7561462E-02  0.1176374E+00
         -1   -1    0    0    0  501 -0.00000000000E+00  0.00000000000E+00  0.38251232670E+03  0.38251232670E+03  0.00000000000E+00 0.  1.
          1   -1    0    0  501    0  0.00000000000E+00 -0.00000000000E+00 -0.80384700189E+02  0.80384700189E+02  0.00000000000E+00 0. -1.
         25    2    1    2    0    0 -0.13439661725E+03 -0.17761403623E+02  0.18650436996E+03  0.26231384345E+03  0.12508698680E+03 0.  0.
          5    1    3    3  502    0 -0.12410624299E+03 -0.59119900242E+02  0.11646299432E+03  0.18021826656E+03  0.41800000000E+01 0. -1.
         -5    1    3    3    0  502 -0.10290374252E+02  0.41358496618E+02  0.70041375632E+02  0.82095576892E+02  0.41800000000E+01 0. -1.
        -11    1    1    2    0    0  0.10751839988E+03 -0.26469269725E+02  0.90719945830E+02  0.14314655820E+03  0.00000000000E+00 0. -1.
         11    1    1    2    0    0  0.26878217365E+02  0.44230673349E+02  0.24903310722E+02  0.57436625236E+02  0.00000000000E+00 0.  1.
</event>
<event>
 7    1  0.2651429E-009  0.9284892E+02  0.7561462E-02  0.1296096E+00
         -1   -1    0    0    0  501 -0.00000000000E+00  0.00000000000E+00  0.44952075817E+02  0.44952075817E+02  0.00000000000E+00 0.  1.
          1   -1    0    0  501    0  0.00000000000E+00 -0.00000000000E+00 -0.26675771911E+03  0.26675771911E+03  0.00000000000E+00 0. -1.
         25    2    1    2    0    0  0.61448654094E+01  0.16621019806E+02 -0.12543239296E+03  0.17802999564E+03  0.12508947388E+03 0.  0.
          5    1    3    3  502    0  0.57981312041E+02 -0.20179782383E+02 -0.49953776398E+02  0.79258490646E+02  0.41800000000E+01 0.  1.
         -5    1    3    3    0  502 -0.51836446632E+02  0.36800802189E+02 -0.75478616564E+02  0.98771504998E+02  0.41800000000E+01 0.  1.
        -11    1    1    2    0    0  0.16450232059E+02  0.14545820087E+02  0.72598806492E+01  0.23127837855E+02  0.00000000000E+00 0.  1.
         11    1    1    2    0    0 -0.22595097468E+02 -0.31166839893E+02 -0.10363313098E+03  0.11055196143E+03  0.00000000000E+00 0. -1.
</event>
<event>
 7    1  0.2651429E-009  0.9779692E+02  0.7561462E-02  0.1284998E+00
         -1   -1    0    0    0  501 -0.00000000000E+00  0.00000000000E+00  0.48995162580E+03  0.48995162580E+03  0.00000000000E+00 0.  1.
          1   -1    0    0  501    0  0.00000000000E+00 -0.00000000000E+00 -0.52304030859E+02  0.52304030859E+02  0.00000000000E+00 0. -1.
         25    2    1    2    0    0  0.10616187742E+01 -0.10889759834E+02  0.42954096560E+03  0.44751632391E+03  0.12508279312E+03 0.  0.
          5    1    3    3  502    0  0.29289747600E+02 -0.52093746876E+02  0.33691008182E+03  0.34219515399E+03  0.41800000000E+01 0.  1.
         -5    1    3    3    0  502 -0.28228128826E+02  0.41203987042E+02  0.92630883775E+02  0.10532116992E+03  0.41800000000E+01 0.  1.
        -11    1    1    2    0    0  0.39994415001E+02 -0.73064709640E+01 -0.16093986489E+02  0.43725897936E+02  0.00000000000E+00 0. -1.
         11    1    1    2    0    0 -0.41056033775E+02  0.18196230798E+02  0.24200615829E+02  0.51013434810E+02  0.00000000000E+00 0.  1.
</event>
<event>
 7    1  0.2651429E-009  0.1234774E+03  0.7561462E-02  0.1237468E+00
         -2   -1    0    0    0  501 -0.00000000000E+00  0.00000000000E+00  0.27295928562E+02  0.27295928562E+02  0.00000000000E+00 0. -1.
          2   -1    0    0  501    0  0.00000000000E+00 -0.00000000000E+00 -0.75822893987E+03  0.75822893987E+03  0.00000000000E+00 0.  1.
         25    2    1    2    0    0  0.58548247415E+02 -0.30408588661E+02 -0.21383189683E+03  0.25636709007E+03  0.12508966875E+03 0.  0.
          5    1    3    3  502    0  0.43864197180E+02 -0.75586449408E+02 -0.99541938044E+02  0.13252716309E+03  0.41800000000E+01 0.  1.
         -5    1    3    3    0  502  0.14684050235E+02  0.45177860747E+02 -0.11428995879E+03  0.12383992697E+03  0.41800000000E+01 0.  1.
        -11    1    1    2    0    0 -0.72903092413E+02  0.49330041169E+02 -0.38457330464E+03  0.39451861869E+03  0.00000000000E+00 0. -1.
         11    1    1    2    0    0  0.14354844998E+02 -0.18921452508E+02 -0.13252780983E+03  0.13463915968E+03  0.00000000000E+00 0.  1.
</event>
<event>
 7    1  0.2651429E-009  0.1524760E+03  0.7561462E-02  0.1197463E+00
          2   -1    0    0  501    0  0.00000000000E+00  0.00000000000E+00  0.77551161993E+03  0.77551161993E+03  0.00000000000E+00 0. -1.
         -2   -1    0    0    0  501 -0.00000000000E+00 -0.00000000000E+00 -0.42465398522E+02  0.42465398522E+02  0.00000000000E+00 0.  1.
         25    2    1    2    0    0 -0.59500877637E+02  0.13328487433E+03  0.34671733881E+03  0.39644194563E+03  0.12509233015E+03 0.  0.
          5    1    3    3  502    0 -0.36357992527E+02  0.13022772520E+03  0.16582335332E+03  0.21400004892E+03  0.41800000000E+01 0. -1.
         -5    1    3    3    0  502 -0.23142885110E+02  0.30571491346E+01  0.18089398548E+03  0.18244189671E+03  0.41800000000E+01 0. -1.
        -11    1    1    2    0    0  0.39579150831E+01 -0.92346533196E+01 -0.18792139097E+01  0.10221318832E+02  0.00000000000E+00 0.  1.
         11    1    1    2    0    0  0.55542962554E+02 -0.12405022101E+03  0.38820809651E+03  0.41131375398E+03  0.00000000000E+00 0. -1.
</event>
<event>
 7    1  0.2756854E-009  0.1450458E+03  0.7561462E-02  0.1206696E+00
          3   -1    0    0  501    0  0.00000000000E+00  0.00000000000E+00  0.23611612897E+03  0.23611612897E+03  0.00000000000E+00 0. -1.
         -3   -1    0    0    0  501 -0.00000000000E+00 -0.00000000000E+00 -0.12745611209E+03  0.12745611209E+03  0.00000000000E+00 0.  1.
         25    2    1    2    0    0  0.10339635916E+03  0.71151537726E+02  0.11078630753E+03  0.20898456125E+03  0.12509033734E+03 0.  0.
          5    1    3    3  502    0  0.87788220239E+02  0.76453532415E+01  0.11307172797E+03  0.14341517041E+03  0.41800000000E+01 0. -1.
         -5    1    3    3    0  502  0.15608138922E+02  0.63506184484E+02 -0.22854204393E+01  0.65569390839E+02  0.41800000000E+01 0. -1.
        -11    1    1    2    0    0 -0.17217515458E+01 -0.24354606533E+02 -0.30550148318E+02  0.39107836171E+02  0.00000000000E+00 0. -1.
         11    1    1    2    0    0 -0.10167460762E+03 -0.46796931192E+02  0.28423857669E+02  0.11547984364E+03  0.00000000000E+00 0.  1.
</event>
<event>
 7    1  0.2651429E-009  0.7843990E+02  0.7561462E-02  0.1333538E+00
          2   -1    0    0  501    0  0.00000000000E+00  0.00000000000E+00  0.45015184602E+03  0.45015184602E+03  0.00000000000E+00 0. -1.
         -2   -1    0    0    0  501 -0.00000000000E+00 -0.00000000000E+00 -0.31797546320E+02  0.31797546320E+02  0.00000000000E+00 0.  1.
         25    2    1    2    0    0  0.22413198693E+02 -0.44967969232E+02  0.24219142798E+03  0.27717490726E+03  0.12507906178E+03 0.  0.
          5    1    3    3  502    0  0.23021824177E+02 -0.17802612351E+02 -0.38058946340E+01  0.29646157068E+02  0.41800000000E+01 0. -1.
         -5    1    3    3    0  502 -0.60862548356E+00 -0.27165356882E+02  0.24599732261E+03  0.24752875019E+03  0.41800000000E+01 0. -1.
        -11    1    1    2    0    0 -0.29128811147E+02  0.69073185686E+02  0.15429850337E+03  0.17154480686E+03  0.00000000000E+00 0. -1.
         11    1    1    2    0    0  0.67156124536E+01 -0.24105216454E+02  0.21864368353E+02  0.33229678216E+02  0.00000000000E+00 0.  1.
</event>
<event>
 7    1  0.2651429E-009  0.1394809E+03  0.7561462E-02  0.1214029E+00
          3   -1    0    0  501    0  0.00000000000E+00  0.00000000000E+00  0.63735698339E+03  0.63735698339E+03  0.00000000000E+00 0. -1.
         -3   -1    0    0    0  501 -0.00000000000E+00 -0.00000000000E+00 -0.46333307154E+02  0.46333307154E+02  0.00000000000E+00 0.  1.
         25    2    1    2    0    0  0.87696379816E+02 -0.55287487996E+02  0.48018414187E+03  0.50692170678E+03  0.12508175462E+03 0.  0.
          5    1    3    3  502    0 -0.16405883176E+02 -0.37583425746E+02  0.25330722792E+03  0.25663922344E+03  0.41800000000E+01 0.  1.
         -5    1    3    3    0  502  0.10410226299E+03 -0.17704062250E+02  0.22687691395E+03  0.25028248333E+03  0.41800000000E+01 0.  1.
        -11    1    1    2    0    0 -0.80995473238E+02  0.75524468850E+02  0.10897483165E+03  0.15536964316E+03  0.00000000000E+00 0. -1.
         11    1    1    2    0    0 -0.67009065781E+01 -0.20236980854E+02  0.18647027115E+01  0.21398940610E+02  0.00000000000E+00 0.  1.
</event>
<event>
 7    1  0.2651429E-009  0.1498927E+03  0.7561462E-02  0.1200605E+00
          1   -1    0    0  501    0  0.00000000000E+00  0.00000000000E+00  0.38242459226E+03  0.38242459226E+03  0.00000000000E+00 0. -1.
         -1   -1    0    0    0  501 -0.00000000000E+00 -0.00000000000E+00 -0.75254490193E+02  0.75254490193E+02  0.00000000000E+00 0.  1.
         25    2    1    2    0    0 -0.34126605511E+02 -0.11929732992E+03  0.21571663992E+03  0.27852711195E+03  0.12508878935E+03 0.  0.
          5    1    3    3  502    0 -0.80298666710E+02 -0.90337742195E+02  0.13773791830E+03  0.18329754521E+03  0.41800000000E+01 0.  1.
         -5    1    3    3    0  502  0.46172061199E+02 -0.28959587726E+02  0.77978721621E+02  0.95229566744E+02  0.41800000000E+01 0.  1.
        -11    1    1    2    0    0  0.10965259808E+02  0.30340608338E+02 -0.17419027638E+02  0.36663496298E+02  0.00000000000E+00 0.  1.
         11    1    1    2    0    0  0.23161345702E+02  0.88956721583E+02  0.10887248978E+03  0.14248847420E+03  0.00000000000E+00 0. -1.
</event>
<event>
 7    1  0.2651429E-009  0.1070382E+03  0.7561462E-02  0.1266155E+00
          3   -1    0    0  501    0  0.00000000000E+00  0.00000000000E+00  0.54753016239E+03  0.54753016239E+03  0.00000000000E+00 0. -1.
         -3   -1    0    0    0  501 -0.00000000000E+00 -0.00000000000E+00 -0.32060145155E+02  0.32060145155E+02  0.00000000000E+00 0.  1.
         25    2    1    2    0    0  0.73325964693E+02 -0.18988386117E+01  0.32622620853E+03  0.35700348161E+03  0.12509054347E+03 0.  0.
          5    1    3    3  502    0  0.77648063794E+02  0.24731360074E+02  0.99685283501E+02  0.12882348438E+03  0.41800000000E+01 0. -1.
         -5    1    3    3    0  502 -0.43220991013E+01 -0.26630198686E+02  0.22654092503E+03  0.22817999723E+03  0.41800000000E+01 0. -1.
        -11    1    1    2    0    0  0.15004405368E+02  0.72917443078E+01  0.37996180138E+01  0.17109611701E+02  0.00000000000E+00 0.  1.
         11    1    1    2    0    0 -0.88330370061E+02 -0.53929056961E+01  0.18544419070E+03  0.20547721424E+03  0.00000000000E+00 0. -1.
</event>
<event>
 7    1  0.2651429E-009  0.9008712E+02  0.7561462E-02  0.1302641E+00
         -2   -1    0    0    0  501 -0.00000000000E+00  0.00000000000E+00  0.74939515960E+02  0.74939515960E+02  0.00000000000E+00 0.  1.
          2   -1    0    0  501    0  0.00000000000E+00 -0.00000000000E+00 -0.17038251833E+03  0.17038251833E+03  0.00000000000E+00 0. -1.
         25    2    1    2    0    0  0.62723865742E+01 -0.27820136531E+01 -0.25758757534E+02  0.12788905272E+03  0.12508002952E+03 0.  0.
          5    1    3    3  502    0  0.13160732422E+02 -0.62654402041E+02 -0.20000070515E+02  0.67203081727E+02  0.41800000000E+01 0. -1.
         -5    1    3    3    0  502 -0.68883458479E+01  0.59872388388E+02 -0.57586870191E+01  0.60685970998E+02  0.41800000000E+01 0. -1.
        -11    1    1    2    0    0 -0.26915639772E+02  0.15788939535E+02  0.11041326080E+02  0.33100651921E+02  0.00000000000E+00 0.  1.
         11    1    1    2    0    0  0.20643253198E+02 -0.13006925882E+02 -0.80725570918E+02  0.84332329646E+02  0.00000000000E+00 0. -1.
</event>
<event>
 7    1  0.2651429E-009  0.8629171E+02  0.7561462E-02  0.1312089E+00
         -2   -1    0    0    0  501 -0.00000000000E+00  0.00000000000E+00  0.14562120660E+03  0.14562120660E+03  0.00000000000E+00 0. -1.
          2   -1    0    0  501    0  0.00000000000E+00 -0.00000000000E+00 -0.15614944039E+03  0.15614944039E+03  0.00000000000E+00 0.  1.
         25    2    1    2    0    0 -0.28380259010E+02 -0.26224095007E+02  0.91124272453E+02  0.15951353817E+03  0.12509114105E+03 0.  0.
          5    1    3    3  502    0 -0.48544556605E+02 -0.25922924871E+02 -0.10192893339E+02  0.56124321684E+02  0.41800000000E+01 0. -1.
         -5    1    3    3    0  502  0.20164297595E+02 -0.30117013652E+00  0.10131716579E+03  0.10338921648E+03  0.41800000000E+01 0. -1.
        -11    1    1    2    0    0  0.39771995480E+02  0.53832504534E+02 -0.53908329126E+02  0.85941015342E+02  0.00000000000E+00 0. -1.
         11    1    1    2    0    0 -0.11391736470E+02 -0.27608409527E+02 -0.47744177116E+02  0.56316093480E+02  0.00000000000E+00 0.  1.
</event>
<event>
 7    1  0.2651429E-009  0.9276271E+02  0.7561462E-02  0.1296296E+00
          3   -1    0    0  501    0  0.00000000000E+00  0.00000000000E+00  0.85303943341E+02  0.85303943341E+02  0.00000000000E+00 0. -1.
         -3   -1    0    0    0  501 -0.00000000000E+00 -0.00000000000E+00 -0.16127876740E+03  0.16127876740E+03  0.00000000000E+00 0.  1.
         25    2    1    2    0    0  0.79236032361E+01 -0.42034880512E+02 -0.49481561612E+02  0.14116622999E+03  0.12509902031E+03 0.  0.
          5    1    3    3  502    0 -0.39511278387E+02 -0.46653125201E+02 -0.66461204012E+02  0.90400327707E+02  0.41800000000E+01 0. -1.
         -5    1    3    3    0  502  0.47434881623E+02  0.46182446885E+01  0.16979642401E+02  0.50765902283E+02  0.41800000000E+01 0. -1.
        -11    1    1    2    0    0 -0.35331570906E+02  0.16695832543E+02  0.21511691066E+02  0.44607438612E+02  0.00000000000E+00 0. -1.
         11    1    1    2    0    0  0.27407967670E+02  0.25339047969E+02 -0.48004953510E+02  0.60809042134E+02  0.00000000000E+00 0.  1.
</event>
<event>
 7    1  0.2651429E-009  0.1727298E+03  0.7561462E-02  0.1175031E+00
          2   -1    0    0  501    0  0.00000000000E+00  0.00000000000E+00  0.79317662741E+03  0.79317662741E+03  0.00000000000E+00 0. -1.
         -2   -1    0    0    0  501 -0.00000000000E+00 -0.00000000000E+00 -0.44941850901E+02  0.44941850901E+02  0.00000000000E+00 0.  1.
         25    2    1    2    0    0 -0.14245941197E+03  0.38929282148E+02  0.30479451308E+03  0.36105091868E+03  0.12509155688E+03 0.  0.
          5    1    3    3  502    0 -0.15678484460E+03  0.48071204574E+02  0.30150790501E+03  0.34324454459E+03  0.41800000000E+01 0. -1.
         -5    1    3    3    0  502  0.14325432628E+02 -0.91419224257E+01  0.32866080765E+01  0.17806374091E+02  0.41800000000E+01 0. -1.
        -11    1    1    2    0    0  0.21998141034E+02 -0.37466220421E+02  0.53374183450E+02  0.68821794082E+02  0.00000000000E+00 0.  1.
         11    1    1    2    0    0  0.12046127094E+03 -0.14630617269E+01  0.39006607998E+03  0.40824576556E+03  0.00000000000E+00 0. -1.
</event>
<event>
 7    1  0.2651429E-009  0.1163053E+03  0.7561462E-02  0.1249320E+00
          1   -1    0    0  501    0  0.00000000000E+00  0.00000000000E+00  0.85187349909E+03  0.85187349909E+03  0.00000000000E+00 0. -1.
         -1   -1    0    0    0  501 -0.00000000000E+00 -0.00000000000E+00 -0.26571867324E+02  0.26571867324E+02  0.00000000000E+00 0.  1.
         25    2    1    2    0    0  0.46559691718E+02 -0.84665144418E+02  0.55621109154E+03  0.57823406020E+03  0.12509140040E+03 0.  0.
          5    1    3    3  502    0 -0.10228609094E+01 -0.13665237579E+02  0.39888118222E+03  0.39913839065E+03  0.41800000000E+01 0. -1.
         -5    1    3    3    0  502  0.47582552627E+02 -0.70999906839E+02  0.15732990932E+03  0.17909566955E+03  0.41800000000E+01 0. -1.
        -11    1    1    2    0    0 -0.30966794064E+02 -0.13163371583E+02  0.78666992535E+02  0.85561161753E+02  0.00000000000E+00 0.  1.
         11    1    1    2    0    0 -0.15592897653E+02  0.97828516001E+02  0.19042354769E+03  0.21465014446E+03  0.00000000000E+00 0. -1.
</event>
<event>
 7    1  0.2651429E-009  0.1512269E+03  0.7561462E-02  0.1198973E+00
         -1   -1    0    0    0  501 -0.00000000000E+00  0.00000000000E+00  0.11469822523E+03  0.11469822523E+03  0.00000000000E+00 0.  1.
          1   -1    0    0  501    0  0.00000000000E+00 -0.00000000000E+00 -0.36844937749E+03  0.36844937749E+03  0.00000000000E+00 0. -1.
         25    2    1    2    0    0  0.91772739924E+02  0.61332993586E+02 -0.29000668509E+03  0.33456798228E+03  0.12509150840E+03 0.  0.
          5    1    3    3  502    0  0.22898275588E+02  0.84400024144E+02 -0.11122282370E+03  0.14154746205E+03  0.41800000000E+01 0. -1.
         -5    1    3    3    0  502  0.68874464337E+02 -0.23067030558E+02 -0.17878386139E+03  0.19302052023E+03  0.41800000000E+01 0. -1.
        -11    1    1    2    0    0 -0.35262525236E+00  0.19869036073E+02 -0.31298180429E+01  0.20117124546E+02  0.00000000000E+00 0. -1.
         11    1    1    2    0    0 -0.91420114672E+02 -0.81202029659E+02  0.39385350881E+02  0.12846249589E+03  0.00000000000E+00 0.  1.
</event>
<event>
 7    1  0.2651429E-009  0.1398837E+03  0.7561462E-02  0.1213486E+00
         -4   -1    0    0    0  501 -0.00000000000E+00  0.00000000000E+00  0.22408502020E+03  0.22408502020E+03  0.00000000000E+00 0.  1.
          4   -1    0    0  501    0  0.00000000000E+00 -0.00000000000E+00 -0.10367558066E+03  0.10367558066E+03  0.00000000000E+00 0. -1.
         25    2    1    2    0    0 -0.86230460659E+02 -0.36398963665E+02  0.11461249526E+03  0.19376467009E+03  0.12509255136E+03 0.  0.
          5    1    3    3  502    0 -0.11477966884E+03 -0.19984938922E+02  0.63320124245E+02  0.13266755707E+03  0.41800000000E+01 0. -1.
         -5    1    3    3    0  502  0.28549208185E+02 -0.16414024743E+02  0.51292371013E+02  0.61097113028E+02  0.41800000000E+01 0. -1.
        -11    1    1    2    0    0  0.10523369208E+03  0.35138377980E+02  0.16474931845E+02  0.11216175345E+03  0.00000000000E+00 0.  1.
         11    1    1    2    0    0 -0.19003231425E+02  0.12605856851E+01 -0.10677987558E+02  0.21834177318E+02  0.00000000000E+00 0. -1.
</event>
<event>
 7    1  0.2651429E-009  0.9167206E+02  0.7561462E-02  0.1298852E+00
          3   -1    0    0  501    0  0.00000000000E+00  0.00000000000E+00  0.14935293636E+03  0.14935293636E+03  0.00000000000E+00 0. -1.
         -3   -1    0    0    0  501 -0.00000000000E+00 -0.00000000000E+00 -0.11519216245E+03  0.11519216245E+03  0.00000000000E+00 0.  1.
         25    2    1    2    0    0  0.40318051603E+02  0.14102227538E+01 -0.44129510591E+02  0.13864570275E+03  0.12509069979E+03 0.  0.
          5    1    3    3  502    0  0.29495440054E+02 -0.43652027857E+02 -0.68181653941E+02  0.86265235490E+02  0.41800000000E+01 0. -1.
         -5    1    3    3    0  502  0.10822611549E+02  0.45062250611E+02  0.24052143350E+02  0.52380467262E+02  0.41800000000E+01 0. -1.
        -11    1    1    2    0    0 -0.52398666322E+02  0.22616392831E+02  0.17933563662E+02  0.59822522202E+02  0.00000000000E+00 0.  1.
         11    1    1    2    0    0  0.12080614718E+02 -0.24026615584E+02  0.60356720838E+02  0.66076873857E+02  0.00000000000E+00 0. -1.
</event>
<event>
 7    1  0.2651429E-009  0.3005183E+03  0.7561462E-02  0.1084982E+00
          3   -1    0    0  501    0  0.00000000000E+00  0.00000000000E+00  0.12702067964E+03  0.12702067964E+03  0.00000000000E+00 0. -1.
         -3   -1    0    0    0  501 -0.00000000000E+00 -0.00000000000E+00 -0.81795215188E+03  0.81795215188E+03  0.00000000000E+00 0.  1.
         25    2    1    2    0    0  0.18453831879E+03 -0.22489190411E+03 -0.22509506795E+03  0.38851869877E+03  0.12509288563E+03 0.  0.
          5    1    3    3  502    0  0.87862984224E+02 -0.30750652501E+02 -0.33257522653E+02  0.98939586814E+02  0.41800000000E+01 0. -1.
         -5    1    3    3    0  502  0.96675334569E+02 -0.19414125161E+03 -0.19183754530E+03  0.28957911195E+03  0.41800000000E+01 0. -1.
        -11    1    1    2    0    0 -0.73848847639E+02  0.92650684184E+02 -0.11299680173E+03  0.16372562041E+03  0.00000000000E+00 0. -1.
         11    1    1    2    0    0 -0.11068947115E+03  0.13224121993E+03 -0.35283960256E+03  0.39272851234E+03  0.00000000000E+00 0.  1.
</event>
<event>
 7    1  0.2651429E-009  0.1002275E+03  0.7561462E-02  0.1279818E+00
         -1   -1    0    0    0  501 -0.00000000000E+00  0.00000000000E+00  0.33041882099E+02  0.33041882099E+02  0.00000000000E+00 0.  1.
          1   -1    0    0  501    0  0.00000000000E+00 -0.00000000000E+00 -0.39437048116E+03  0.39437048116E+03  0.00000000000E+00 0. -1.
         25    2    1    2    0    0  0.21210684305E+02 -0.19409953517E+02 -0.23947943252E+03  0.27171065889E+03  0.12509853767E+03 0.  0.
          5    1    3    3  502    0  0.19951711945E+02 -0.71631211623E+02 -0.11981882488E+03  0.14107843380E+03  0.41800000000E+01 0.  1.
         -5    1    3    3    0  502  0.12589723605E+01  0.52221258106E+02 -0.11966060765E+03  0.13063222509E+03  0.41800000000E+01 0.  1.
        -11    1    1    2    0    0  0.12471960042E+02 -0.18849842621E+02  0.10748199178E+01  0.22627894113E+02  0.00000000000E+00 0.  1.
         11    1    1    2    0    0 -0.33682644347E+02  0.38259796138E+02 -0.12292398646E+03  0.13307381026E+03  0.00000000000E+00 0. -1.
</event>
<event>
 7    1  0.2651429E-009  0.8025885E+02  0.7561462E-02  0.1328318E+00
         -1   -1    0    0    0  501 -0.00000000000E+00  0.00000000000E+00  0.93071477130E+02  0.93071477130E+02  0.00000000000E+00 0.  1.
          1   -1    0    0  501    0  0.00000000000E+00 -0.00000000000E+00 -0.13521170831E+03  0.13521170831E+03  0.00000000000E+00 0. -1.
         25    2    1    2    0    0 -0.11555172932E+02  0.20502716204E+02 -0.29013415992E+02  0.13054804826E+03  0.12508849349E+03 0.  0.
          5    1    3    3  502    0  0.15945553470E+02 -0.48559280315E+02 -0.21879829024E+02  0.55753598075E+02  0.41800000000E+01 0.  1.
         -5    1    3    3    0  502 -0.27500726403E+02  0.69061996519E+02 -0.71335869676E+01  0.74794450187E+02  0.41800000000E+01 0.  1.
        -11    1    1    2    0    0  0.18930849077E+02 -0.86278948592E+01 -0.52223306052E+02  0.56214689464E+02  0.00000000000E+00 0. -1.
         11    1    1    2    0    0 -0.73756761449E+01 -0.11874821344E+02  0.39096490863E+02  0.41520447714E+02  0.00000000000E+00 0.  1.
</event>
<event>
 7    1  0.2651429E-009  0.1499236E+03  0.7561462E-02  0.1200567E+00
         -3   -1    0    0    0  501 -0.00000000000E+00  0.00000000000E+00  0.76085432873E+02  0.76085432873E+02  0.00000000000E+00 0.  1.
          3   -1    0    0  501    0  0.00000000000E+00 -0.00000000000E+00 -0.36103746762E+03  0.36103746762E+03  0.00000000000E+00 0. -1.
         25    2    1    2    0    0 -0.10392439983E+03 -0.24559844331E+02 -0.22601142519E+03  0.27951989960E+03  0.12508694225E+03 0.  0.
          5    1    3    3  502    0 -0.10316840918E+02 -0.61915194229E+02 -0.99464579665E+02  0.11768858692E+03  0.41800000000E+01 0. -1.
         -5    1    3    3    0  502 -0.93607558907E+02  0.37355349898E+02 -0.12654684553E+03  0.16183131268E+03  0.41800000000E+01 0. -1.
        -11    1    1    2    0    0  0.11045466048E+03  0.41436125155E+02 -0.27199607891E+02  0.12106611070E+03  0.00000000000E+00 0.  1.
         11    1    1    2    0    0 -0.65302606562E+01 -0.16876280824E+02 -0.31741001664E+02  0.36536890198E+02  0.00000000000E+00 0. -1.
</event>
<event>
 7    1  0.2651429E-009  0.1002434E+03  0.7561462E-02  0.1279785E+00
          1   -1    0    0  501    0  0.00000000000E+00  0.00000000000E+00  0.22047781554E+03  0.22047781554E+03  0.00000000000E+00 0. -1.
         -1   -1    0    0    0  501 -0.00000000000E+00 -0.00000000000E+00 -0.94852189783E+02  0.94852189783E+02  0.00000000000E+00 0.  1.
         25    2    1    2    0    0 -0.87308475123E+02  0.67713846471E+01  0.28959506323E+02  0.15541853227E+03  0.12509054996E+03 0.  0.
          5    1    3    3  502    0 -0.19238313310E+02 -0.11944070191E+02 -0.46568004434E+02  0.51950216060E+02  0.41800000000E+01 0. -1.
         -5    1    3    3    0  502 -0.68070161814E+02  0.18715454838E+02  0.75527510757E+02  0.10346831621E+03  0.41800000000E+01 0. -1.
        -11    1    1    2    0    0  0.54635199950E+02  0.25962523870E+02  0.94948854181E+01  0.61230797548E+02  0.00000000000E+00 0. -1.
         11    1    1    2    0    0  0.32673275173E+02 -0.32733908517E+02  0.87171234011E+02  0.98680675496E+02  0.00000000000E+00 0.  1.
</event>
<event>
 7    1  0.2651429E-009  0.1393447E+03  0.7561462E-02  0.1214213E+00
          2   -1    0    0  501    0  0.00000000000E+00  0.00000000000E+00  0.67631963625E+03  0.67631963625E+03  0.00000000000E+00 0. -1.
         -2   -1    0    0    0  501 -0.00000000000E+00 -0.00000000000E+00 -0.30332545199E+02  0.30332545199E+02  0.00000000000E+00 0.  1.
         25    2    1    2    0    0 -0.57700923204E+01 -0.91579758699E+02  0.42816193831E+03  0.45540132786E+03  0.12509027872E+03 0.  0.
          5    1    3    3  502    0 -0.31284227622E+02  0.21099484973E+02  0.80089104171E+02  0.88631981649E+02  0.41800000000E+01 0.  1.
         -5    1    3    3    0  502  0.25514135301E+02 -0.11267924367E+03  0.34807283414E+03  0.36676934621E+03  0.41800000000E+01 0.  1.
        -11    1    1    2    0    0 -0.29095480926E+02  0.84727805129E+02  0.15136569155E+03  0.17588894380E+03  0.00000000000E+00 0.  1.
         11    1    1    2    0    0  0.34865573247E+02  0.68519535705E+01  0.66459461192E+02  0.75361909792E+02  0.00000000000E+00 0. -1.
</event>
<event>
 7    1  0.2651429E-009  0.1510634E+03  0.7561462E-02  0.1199172E+00
          1   -1    0    0  501    0  0.00000000000E+00  0.00000000000E+00  0.10660835660E+04  0.10660835660E+04  0.00000000000E+00 0. -1.
         -1   -1    0    0    0  501 -0.00000000000E+00 -0.00000000000E+00 -0.34257652253E+02  0.34257652253E+02  0.00000000000E+00 0.  1.
         25    2    1    2    0    0 -0.93790260689E+02 -0.10826388881E+03  0.71869179130E+03  0.74342684021E+03  0.12509153948E+03 0.  0.
          5    1    3    3  502    0 -0.49094534840E+02 -0.10210021565E+03  0.27533976617E+03  0.29776532139E+03  0.41800000000E+01 0. -1.
         -5    1    3    3    0  502 -0.44695725848E+02 -0.61636731594E+01  0.44335202513E+03  0.44566151882E+03  0.41800000000E+01 0. -1.
        -11    1    1    2    0    0  0.27412764153E+02  0.26443738155E+02  0.19473560842E+03  0.19842552284E+03  0.00000000000E+00 0. -1.
         11    1    1    2    0    0  0.66377496535E+02  0.81820150652E+02  0.11839851402E+03  0.15848885519E+03  0.00000000000E+00 0.  1.
</event>
<event>
 7    1  0.2651429E-009  0.8672518E+02  0.7561462E-02  0.1310982E+00
          2   -1    0    0  501    0  0.00000000000E+00  0.00000000000E+00  0.31679764233E+03  0.31679764233E+03  0.00000000000E+00 0. -1.
         -2   -1    0    0    0  501 -0.00000000000E+00 -0.00000000000E+00 -0.38841448788E+02  0.38841448788E+02  0.00000000000E+00 0.  1.
         25    2    1    2    0    0  0.19569767426E+01  0.14948561154E+02  0.12158516868E+03  0.17509684744E+03  0.12509461820E+03 0.  0.
          5    1    3    3  502    0  0.40729596768E+02 -0.12992980559E+01 -0.53536778265E+01  0.41312498043E+02  0.41800000000E+01 0.  1.
         -5    1    3    3    0  502 -0.38772620025E+02  0.16247859210E+02  0.12693884651E+03  0.13378434940E+03  0.41800000000E+01 0.  1.
        -11    1    1    2    0    0  0.43475920749E+02 -0.92691917984E+01  0.77684903386E+02  0.89504289370E+02  0.00000000000E+00 0.  1.
         11    1    1    2    0    0 -0.45432897492E+02 -0.56793693553E+01  0.78686121480E+02  0.91037954307E+02  0.00000000000E+00 0. -1.
</event>
<event>
 7    1  0.2651429E-009  0.8811488E+02  0.7561462E-02  0.1307482E+00
         -2   -1    0    0    0  501 -0.00000000000E+00  0.00000000000E+00  0.27509381890E+02  0.27509381890E+02  0.00000000000E+00 0.  1.
          2   -1    0    0  501    0  0.00000000000E+00 -0.00000000000E+00 -0.54931196485E+03  0.54931196485E+03  0.00000000000E+00 0. -1.
         25    2    1    2    0    0  0.28441724247E+02  0.15894710486E-01 -0.34178180449E+03  0.36506362296E+03  0.12509082700E+03 0.  0.
          5    1    3    3  502    0  0.13087367552E+02 -0.46712349714E+02 -0.52512216697E+02  0.71612346057E+02  0.41800000000E+01 0. -1.
         -5    1    3    3    0  502  0.15354356695E+02  0.46728244425E+02 -0.28926958779E+03  0.29345127690E+03  0.41800000000E+01 0. -1.
        -11    1    1    2    0    0 -0.40252891862E+02  0.27149819216E+02 -0.17512818122E+03  0.18173411304E+03  0.00000000000E+00 0. -1.
         11    1    1    2    0    0  0.11811167615E+02 -0.27165713926E+02 -0.48925972504E+01  0.30023610732E+02  0.00000000000E+00 0.  1.
</event>
<event>
 7    1  0.2651429E-009  0.1149948E+03  0.7561462E-02  0.1251590E+00
          1   -1    0    0  501    0  0.00000000000E+00  0.00000000000E+00  0.14430282637E+03  0.14430282637E+03  0.00000000000E+00 0. -1.
         -1   -1    0    0    0  501 -0.00000000000E+00 -0.00000000000E+00 -0.11050514519E+03  0.11050514519E+03  0.00000000000E+00 0.  1.
         25    2    1    2    0    0 -0.44973520057E+01 -0.62200184989E+02  0.35940522440E+02  0.14431965338E+03  0.12508937609E+03 0.  0.
          5    1    3    3  502    0 -0.18966676502E+02 -0.91802545541E+02 -0.20509784259E+01  0.93856918220E+02  0.41800000000E+01 0. -1.
         -5    1    3    3    0  502  0.14469324496E+02  0.29602360552E+02  0.37991500866E+02  0.50462735158E+02  0.41800000000E+01 0. -1.
        -11    1    1    2    0    0 -0.76581088729E+01  0.80559654024E+02 -0.18558725085E+02  0.83023675929E+02  0.00000000000E+00 0.  1.
         11    1    1    2    0    0  0.12155460879E+02 -0.18359469035E+02  0.16415883818E+02  0.27464642250E+02  0.00000000000E+00 0. -1.
</event>
<event>
 7    1  0.2651429E-009  0.1483833E+03  0.7561462E-02  0.1202474E+00
         -2   -1    0    0    0  501 -0.00000000000E+00  0.00000000000E+00  0.67456822770E+03  0.67456822770E+03  0.00000000000E+00 0.  1.
          2   -1    0    0  501    0  0.00000000000E+00 -0.00000000000E+00 -0.35465395036E+02  0.35465395036E+02  0.00000000000E+00 0. -1.
         25    2    1    2    0    0 -0.50697128465E+02  0.97084795215E+02  0.31240748357E+03  0.35389484423E+03  0.12508984246E+03 0.  0.
          5    1    3    3  502    0 -0.54714244782E+02  0.12410462860E+03  0.23078934840E+03  0.26772523817E+03  0.41800000000E+01 0.  1.
         -5    1    3    3    0  502  0.40171163175E+01 -0.27019833381E+02  0.81618135171E+02  0.86169606058E+02  0.41800000000E+01 0.  1.
        -11    1    1    2    0    0  0.65477650339E+02 -0.45392210669E+02  0.25064461929E+03  0.26300285295E+03  0.00000000000E+00 0.  1.
         11    1    1    2    0    0 -0.14780521875E+02 -0.51692584546E+02  0.76050729801E+02  0.93135925545E+02  0.00000000000E+00 0. -1.
</event>
<event>
 7    1  0.2651429E-009  0.1074335E+03  0.7561462E-02  0.1265398E+00
          2   -1    0    0  501    0  0.00000000000E+00  0.00000000000E+00  0.10167320808E+03  0.10167320808E+03  0.00000000000E+00 0. -1.
         -2   -1    0    0    0  501 -0.00000000000E+00 -0.00000000000E+00 -0.20973892704E+03  0.20973892704E+03  0.00000000000E+00 0.  1.
         25    2    1    2    0    0  0.69409599145E+02 -0.48092623517E+01 -0.13024322665E+03  0.19352033289E+03  0.12508397058E+03 0.  0.
          5    1    3    3  502    0  0.44147390938E+02  0.56487392818E+02 -0.92540813523E+02  0.11713706604E+03  0.41800000000E+01 0. -1.
         -5    1    3    3    0  502  0.25262208207E+02 -0.61296655170E+02 -0.37702413132E+02  0.76383266848E+02  0.41800000000E+01 0. -1.
        -11    1    1    2    0    0 -0.50117006989E+02 -0.11431726359E+02 -0.30299605503E+02  0.59669630892E+02  0.00000000000E+00 0.  1.
         11    1    1    2    0    0 -0.19292592156E+02  0.16240988710E+02  0.52477113189E+02  0.58222171336E+02  0.00000000000E+00 0. -1.
</event>
<event>
 7    1  0.2901924E-009  0.1377530E+03  0.7561462E-02  0.1216385E+00
         -1   -1    0    0    0  501 -0.00000000000E+00  0.00000000000E+00  0.35829555086E+02  0.35829555086E+02  0.00000000000E+00 0.  1.
          1   -1    0    0  501    0  0.00000000000E+00 -0.00000000000E+00 -0.80067247943E+03  0.80067247943E+03  0.00000000000E+00 0. -1.
         25    2    1    2    0    0  0.24972822201E+01 -0.12387637824E+03 -0.31383311327E+03  0.35984810195E+03  0.12509132659E+03 0.  0.
          5    1    3    3  502    0 -0.11174641846E+02 -0.59165183740E+02 -0.28184394967E+02  0.66612492124E+02  0.41800000000E+01 0.  1.
         -5    1    3    3    0  502  0.13671924067E+02 -0.64711194501E+02 -0.28564871830E+03  0.29323560983E+03  0.41800000000E+01 0.  1.
        -11    1    1    2    0    0  0.38590602173E+02  0.79678362687E+02 -0.20405272040E+03  0.22243063809E+03  0.00000000000E+00 0. -1.
         11    1    1    2    0    0 -0.41087884394E+02  0.44198015554E+02 -0.24695709067E+03  0.25422329448E+03  0.00000000000E+00 0.  1.
</event>
<event>
 7    1  0.2651429E-009  0.1825193E+03  0.7561462E-02  0.1165387E+00
         -1   -1    0    0    0  501 -0.00000000000E+00  0.00000000000E+00  0.12133953368E+03  0.12133953368E+03  0.00000000000E+00 0.  1.
          1   -1    0    0  501    0  0.00000000000E+00 -0.00000000000E+00 -0.36566454781E+03  0.36566454781E+03  0.00000000000E+00 0. -1.
         25    2    1    2    0    0  0.41382894107E+02 -0.16366573162E+03 -0.48014516913E+02  0.21552714079E+03  0.12509012331E+03 0.  0.
          5    1    3    3  502    0  0.47101277281E+02 -0.22219127021E+02  0.23013159420E+02  0.57090260409E+02  0.41800000000E+01 0.  1.
         -5    1    3    3    0  502 -0.57183831734E+01 -0.14144660460E+03 -0.71027676333E+02  0.15843688038E+03  0.41800000000E+01 0.  1.
        -11    1    1    2    0    0 -0.25789316787E+02  0.14285154344E+03 -0.19788910321E+03  0.24542157503E+03  0.00000000000E+00 0. -1.
         11    1    1    2    0    0 -0.15593577320E+02  0.20814188181E+02  0.15786059843E+01  0.26055365669E+02  0.00000000000E+00 0.  1.
</event>
<event>
 7    1  0.2651429E-009  0.1280537E+03  0.7561462E-02  0.1230373E+00
          2   -1    0    0  501    0  0.00000000000E+00  0.00000000000E+00  0.99946330707E+02  0.99946330707E+02  0.00000000000E+00 0. -1.
         -2   -1    0    0    0  501 -0.00000000000E+00 -0.00000000000E+00 -0.24210051382E+03  0.24210051382E+03  0.00000000000E+00 0.  1.
         25    2    1    2    0    0 -0.48834446373E+02  0.96797224044E+02 -0.11041600439E+03  0.19898066188E+03  0.12508838491E+03 0.  0.
          5    1    3    3  502    0 -0.25546606940E+02  0.11887444487E+02 -0.10704652229E+03  0.11077170576E+03  0.41800000000E+01 0. -1.
         -5    1    3    3    0  502 -0.23287839432E+02  0.84909779557E+02 -0.33694821033E+01  0.88208956119E+02  0.41800000000E+01 0. -1.
        -11    1    1    2    0    0  0.64420192176E+02 -0.30321918274E+02 -0.17521742229E+02  0.73323879729E+02  0.00000000000E+00 0. -1.
         11    1    1    2    0    0 -0.15585745803E+02 -0.66475305771E+02 -0.14216436487E+02  0.69742302915E+02  0.00000000000E+00 0.  1.
</event>
<event>
 7    1  0.2651429E-009  0.1098717E+03  0.7561462E-02  0.1260808E+00
         -2   -1    0    0    0  501 -0.00000000000E+00  0.00000000000E+00  0.54040893187E+02  0.54040893187E+02  0.00000000000E+00 0.  1.
          2   -1    0    0  501    0  0.00000000000E+00 -0.00000000000E+00 -0.25138007103E+03  0.25138007103E+03  0.00000000000E+00 0. -1.
         25    2    1    2    0    0 -0.17278600256E+02 -0.33356892592E+02 -0.13693790922E+03  0.18923709470E+03  0.12508978663E+03 0.  0.
          5    1    3    3  502    0 -0.69891238146E+02 -0.31917690754E+02 -0.70374528395E+02  0.10427641536E+03  0.41800000000E+01 0. -1.
         -5    1    3    3    0  502  0.52612637890E+02 -0.14392018380E+01 -0.66563380821E+02  0.84960679340E+02  0.41800000000E+01 0. -1.
        -11    1    1    2    0    0  0.40722311562E+02  0.47540328112E+02 -0.62811990239E+02  0.88677706182E+02  0.00000000000E+00 0. -1.
         11    1    1    2    0    0 -0.23443711307E+02 -0.14183435520E+02  0.24107216110E+01  0.27506163340E+02  0.00000000000E+00 0.  1.
</event>
<event>
 7    1  0.2651429E-009  0.9140523E+02  0.7561462E-02  0.1299484E+00
         -2   -1    0    0    0  501 -0.00000000000E+00  0.00000000000E+00  0.42233623665E+03  0.42233623665E+03  0.00000000000E+00 0.  1.
          2   -1    0    0  501    0  0.00000000000E+00 -0.00000000000E+00 -0.56690772336E+02  0.56690772336E+02  0.00000000000E+00 0. -1.
         25    2    1    2    0    0  0.32831383607E+02  0.53265852755E+02  0.33620059281E+03  0.36413319932E+03  0.12508795875E+03 0.  0.
          5    1    3    3  502    0  0.31480892641E+02  0.16945355609E+02  0.32336422356E+03  0.32536146845E+03  0.41800000000E+01 0. -1.
         -5    1    3    3    0  502  0.13504909665E+01  0.36320497147E+02  0.12836369250E+02  0.38771730866E+02  0.41800000000E+01 0. -1.
        -11    1    1    2    0    0 -0.77317899232E+00 -0.72724357629E+02  0.25992783146E+02  0.77233767058E+02  0.00000000000E+00 0.  1.
         11    1    1    2    0    0 -0.32058204615E+02  0.19458504874E+02  0.34520883597E+01  0.37660042606E+02  0.00000000000E+00 0. -1.
</event>
<event>
 7    1  0.2651429E-009  0.2108921E+03  0.7561462E-02  0.1140861E+00
          1   -1    0    0  501    0  0.00000000000E+00  0.00000000000E+00  0.22361593747E+03  0.22361593747E+03  0.00000000000E+00 0. -1.
         -1   -1    0    0    0  501 -0.00000000000E+00 -0.00000000000E+00 -0.22025530200E+03  0.22025530200E+03  0.00000000000E+00 0.  1.
         25    2    1    2    0    0 -0.18119147711E+03 -0.64366485671E+02  0.21686402230E+02  0.23041252248E+03  0.12508490964E+03 0.  0.
          5    1    3    3  502    0  0.99257114142E+01 -0.33776685009E+02 -0.11803861222E+01  0.35471818514E+02  0.41800000000E+01 0.  1.
         -5    1    3    3    0  502 -0.19111718852E+03 -0.30589800662E+02  0.22866788352E+02  0.19494070397E+03  0.41800000000E+01 0.  1.
        -11    1    1    2    0    0  0.10343791305E+03  0.29790552669E+02 -0.54903345082E+02  0.12083565776E+03  0.00000000000E+00 0.  1.
         11    1    1    2    0    0  0.77753564057E+02  0.34575933002E+02  0.36577578314E+02  0.92623059233E+02  0.00000000000E+00 0. -1.
</event>
<event>
 7    1  0.2651429E-009  0.1206931E+03  0.7561462E-02  0.1241958E+00
          2   -1    0    0  501    0  0.00000000000E+00  0.00000000000E+00  0.31790802690E+03  0.31790802690E+03  0.00000000000E+00 0. -1.
         -2   -1    0    0    0  501 -0.00000000000E+00 -0.00000000000E+00 -0.59196019333E+02  0.59196019333E+02  0.00000000000E+00 0.  1.
         25    2    1    2    0    0  0.30439733027E+02  0.74737248107E+02  0.16793620422E+03  0.22441548029E+03  0.12508998962E+03 0.  0.
          5    1    3    3  502    0  0.15765698841E+02  0.94221177827E+02  0.17435000661E+03  0.19885065958E+03  0.41800000000E+01 0.  1.
         -5    1    3    3    0  502  0.14674034186E+02 -0.19483929720E+02 -0.64138023906E+01  0.25564820706E+02  0.41800000000E+01 0.  1.
        -11    1    1    2    0    0  0.92175507603E+01 -0.80426786053E+02  0.48150333367E+02  0.94190688288E+02  0.00000000000E+00 0.  1.
         11    1    1    2    0    0 -0.39657283788E+02  0.56895379462E+01  0.42625469979E+02  0.58497877657E+02  0.00000000000E+00 0. -1.
</event>
<event>
 7    1  0.2651429E-009  0.1083121E+03  0.7561462E-02  0.1263728E+00
          2   -1    0    0  501    0  0.00000000000E+00  0.00000000000E+00  0.31720541201E+02  0.31720541201E+02  0.00000000000E+00 0. -1.
         -2   -1    0    0    0  501 -0.00000000000E+00 -0.00000000000E+00 -0.63202134346E+03  0.63202134346E+03  0.00000000000E+00 0.  1.
         25    2    1    2    0    0  0.48615715973E+02 -0.26917274059E+02 -0.48868259114E+03  0.50749071382E+03  0.12509245479E+03 0.  0.
          5    1    3    3  502    0  0.84713367821E+02 -0.32430876170E+02 -0.41880743634E+03  0.42853851350E+03  0.41800000000E+01 0.  1.
         -5    1    3    3    0  502 -0.36097651848E+02  0.55136021108E+01 -0.69875154797E+02  0.78952200318E+02  0.41800000000E+01 0.  1.
        -11    1    1    2    0    0  0.13583937072E+00  0.38868871973E+02 -0.96177402595E+02  0.10373475999E+03  0.00000000000E+00 0.  1.
         11    1    1    2    0    0 -0.48751555344E+02 -0.11951597914E+02 -0.15440808529E+02  0.52516410856E+02  0.00000000000E+00 0. -1.
</event>
<event>
 7    1  0.2878366E-009  0.9557425E+02  0.7561462E-02  0.1289888E+00
          3   -1    0    0  501    0  0.00000000000E+00  0.00000000000E+00  0.87785124638E+02  0.87785124638E+02  0.00000000000E+00 0. -1.
         -3   -1    0    0    0  501 -0.00000000000E+00 -0.00000000000E+00 -0.21338194676E+03  0.21338194676E+03  0.00000000000E+00 0.  1.
         25    2    1    2    0    0 -0.13810625001E+02  0.29139621562E+02 -0.15303367969E+03  0.20026768727E+03  0.12509192035E+03 0.  0.
          5    1    3    3  502    0 -0.81144314300E+01 -0.47781698228E+02 -0.81907888151E+02  0.95264417410E+02  0.41800000000E+01 0. -1.
         -5    1    3    3    0  502 -0.56961935712E+01  0.76921319790E+02 -0.71125791539E+02  0.10500326986E+03  0.41800000000E+01 0. -1.
        -11    1    1    2    0    0  0.30882812853E+02 -0.35487318090E+02  0.52128038916E+02  0.70217022980E+02  0.00000000000E+00 0. -1.
         11    1    1    2    0    0 -0.17072187852E+02  0.63476965280E+01 -0.24691181346E+02  0.30682361146E+02  0.00000000000E+00 0.  1.
</event>
<event>
 7    1  0.2651429E-009  0.4122757E+02  0.7561462E-02  0.1499367E+00
          1   -1    0    0  501    0  0.00000000000E+00  0.00000000000E+00  0.23850102911E+03  0.23850102911E+03  0.00000000000E+00 0. -1.
         -1   -1    0    0    0  501 -0.00000000000E+00 -0.00000000000E+00 -0.51874176169E+02  0.51874176169E+02  0.00000000000E+00 0.  1.
         25    2    1    2    0    0 -0.91504848435E+01 -0.63833898513E+01  0.13971784992E+03  0.18786739239E+03  0.12509436638E+03 0.  0.
          5    1    3    3  502    0 -0.19335518121E+02  0.20739222593E+02  0.15304418775E+03  0.15570476363E+03  0.41800000000E+01 0. -1.
         -5    1    3    3    0  502  0.10185033278E+02 -0.27122612444E+02 -0.13326337830E+02  0.32162628758E+02  0.41800000000E+01 0. -1.
        -11    1    1    2    0    0  0.22192626191E+01  0.14028480723E+02  0.73042566706E+02  0.74410617179E+02  0.00000000000E+00 0. -1.
         11    1    1    2    0    0  0.69312222244E+01 -0.76450908717E+01 -0.26133563682E+02  0.28097195709E+02  0.00000000000E+00 0.  1.
</event>
<event>
 7    1  0.2651429E-009  0.1223468E+03  0.7561462E-02  0.1239275E+00
         -2   -1    0    0    0  501 -0.00000000000E+00  0.00000000000E+00  0.13691056405E+02  0.13691056405E+02  0.00000000000E+00 0. -1.
          2   -1    0    0  501    0  0.00000000000E+00 -0.00000000000E+00 -0.11399778020E+04  0.11399778020E+04  0.00000000000E+00 0.  1.
         25    2    1    2    0    0 -0.31772032905E+02  0.51434967757E+02 -0.57091022978E+03  0.58757148364E+03  0.12508692953E+03 0.  0.
          5    1    3    3  502    0 -0.35574995756E+01 -0.40103921069E+02 -0.12211775384E+03  0.12865146128E+03  0.41800000000E+01 0. -1.
         -5    1    3    3    0  502 -0.28214533330E+02  0.91538888826E+02 -0.44879247594E+03  0.45892002236E+03  0.41800000000E+01 0. -1.
        -11    1    1    2    0    0 -0.30486799047E+02 -0.29231865166E+02 -0.17534053638E+03  0.18035589970E+03  0.00000000000E+00 0.  1.
         11    1    1    2    0    0  0.62258831952E+02 -0.22203102591E+02 -0.38003597945E+03  0.38574147508E+03  0.00000000000E+00 0. -1.
</event>
<event>
 7    1  0.2651429E-009  0.1809976E+03  0.7561462E-02  0.1166841E+00
         -1   -1    0    0    0  501 -0.00000000000E+00  0.00000000000E+00  0.19231766702E+03  0.19231766702E+03  0.00000000000E+00 0.  1.
          1   -1    0    0  501    0  0.00000000000E+00 -0.00000000000E+00 -0.23797339093E+03  0.23797339093E+03  0.00000000000E+00 0. -1.
         25    2    1    2    0    0 -0.38437631182E+02 -0.16375524113E+03  0.50923569762E+02  0.21571596268E+03  0.12508771367E+03 0.  0.
          5    1    3    3  502    0  0.11094887876E+02  0.81197904401E+01  0.32887944028E+02  0.35890344052E+02  0.41800000000E+01 0. -1.
         -5    1    3    3    0  502 -0.49532519058E+02 -0.17187503157E+03  0.18035625733E+02  0.17982561863E+03  0.41800000000E+01 0. -1.
        -11    1    1    2    0    0  0.17605607289E+02  0.10261482241E+03 -0.10683271642E+03  0.14917435599E+03  0.00000000000E+00 0. -1.
         11    1    1    2    0    0  0.20832023893E+02  0.61140418718E+02  0.10253422748E+02  0.65400739281E+02  0.00000000000E+00 0.  1.
</event>
<event>
 7    1  0.2651429E-009  0.9933397E+02  0.7561462E-02  0.1281703E+00
         -2   -1    0    0    0  501 -0.00000000000E+00  0.00000000000E+00  0.29988193141E+02  0.29988193141E+02  0.00000000000E+00 0.  1.
          2   -1    0    0  501    0  0.00000000000E+00 -0.00000000000E+00 -0.11189558251E+04  0.11189558251E+04  0.00000000000E+00 0. -1.
         25    2    1    2    0    0  0.11332287842E+01 -0.59459019701E+02 -0.99837633777E+03  0.10079380328E+04  0.12508839617E+03 0.  0.
          5    1    3    3  502    0 -0.59258086477E+02 -0.31247584879E+02 -0.37160347207E+03  0.37761692922E+03  0.41800000000E+01 0. -1.
         -5    1    3    3    0  502  0.60391315261E+02 -0.28211434822E+02 -0.62677286570E+03  0.63032110356E+03  0.41800000000E+01 0. -1.
        -11    1    1    2    0    0  0.11846499155E+02  0.36629113382E+02  0.77061592508E+01  0.39260875942E+02  0.00000000000E+00 0.  1.
         11    1    1    2    0    0 -0.12979727939E+02  0.22829906319E+02 -0.98297453402E+02  0.10174510949E+03  0.00000000000E+00 0. -1.
</event>
<event>
 7    1  0.2651429E-009  0.2171641E+03  0.7561462E-02  0.1136015E+00
         -2   -1    0    0    0  501 -0.00000000000E+00  0.00000000000E+00  0.21154544420E+03  0.21154544420E+03  0.00000000000E+00 0.  1.
          2   -1    0    0  501    0  0.00000000000E+00 -0.00000000000E+00 -0.36805379840E+03  0.36805379840E+03  0.00000000000E+00 0. -1.
         25    2    1    2    0    0 -0.70698245329E+02  0.20336277635E+03  0.65916517267E+02  0.25757831292E+03  0.12508772657E+03 0.  0.
          5    1    3    3  502    0 -0.20868496011E+02  0.11422126424E+03 -0.27182443969E+02  0.11932455318E+03  0.41800000000E+01 0.  1.
         -5    1    3    3    0  502 -0.49829749318E+02  0.89141512111E+02  0.93098961237E+02  0.13825375974E+03  0.41800000000E+01 0.  1.
        -11    1    1    2    0    0  0.35457718953E+02 -0.77453222548E+02 -0.31927589442E+02  0.90970448410E+02  0.00000000000E+00 0.  1.
         11    1    1    2    0    0  0.35240526376E+02 -0.12590955380E+03 -0.19049728202E+03  0.23105048127E+03  0.00000000000E+00 0. -1.
</event>
<event>
 7    1  0.2651429E-009  0.9277714E+02  0.7561462E-02  0.1296262E+00
         -4   -1    0    0    0  501 -0.00000000000E+00  0.00000000000E+00  0.15164940844E+03  0.15164940844E+03  0.00000000000E+00 0.  1.
          4   -1    0    0  501    0  0.00000000000E+00 -0.00000000000E+00 -0.14556302879E+03  0.14556302879E+03  0.00000000000E+00 0. -1.
         25    2    1    2    0    0 -0.45682297517E+02 -0.10104507572E+02 -0.86424522479E+02  0.15907613829E+03  0.12508815415E+03 0.  0.
          5    1    3    3  502    0  0.21482307094E+02 -0.11621780711E+01 -0.88485085839E+02  0.91158779017E+02  0.41800000000E+01 0. -1.
         -5    1    3    3    0  502 -0.67164604611E+02 -0.89423295009E+01  0.20605633597E+01  0.67917359275E+02  0.41800000000E+01 0. -1.
        -11    1    1    2    0    0  0.10106951931E+02  0.44879655867E+02  0.19912869463E+02  0.50128398721E+02  0.00000000000E+00 0. -1.
         11    1    1    2    0    0  0.35575345586E+02 -0.34775148295E+02  0.72598032674E+02  0.88007900218E+02  0.00000000000E+00 0.  1.
</event>
<event>
 7    1  0.2651429E-009  0.8068969E+02  0.7561462E-02  0.1327106E+00
          2   -1    0    0  501    0  0.00000000000E+00  0.00000000000E+00  0.60849330407E+03  0.60849330407E+03  0.00000000000E+00 0. -1.
         -2   -1    0    0    0  501 -0.00000000000E+00 -0.00000000000E+00 -0.20194155749E+02  0.20194155749E+02  0.00000000000E+00 0.  1.
         25    2    1    2    0    0 -0.13808211077E+02 -0.17893112097E+02  0.31322283668E+03  0.33802644341E+03  0.12506998390E+03 0.  0.
          5    1    3    3  502    0 -0.38906587527E+02 -0.65944076895E+01  0.30692946572E+03  0.30948405143E+03  0.41800000000E+01 0.  1.
         -5    1    3    3    0  502  0.25098376449E+02 -0.11298704407E+02  0.62933709610E+01  0.28542391976E+02  0.41800000000E+01 0.  1.
        -11    1    1    2    0    0  0.51501677443E+02 -0.13842791381E+01  0.15525092768E+03  0.16357624997E+03  0.00000000000E+00 0.  1.
         11    1    1    2    0    0 -0.37693466366E+02  0.19277391235E+02  0.11982538396E+03  0.12708476644E+03  0.00000000000E+00 0. -1.
</event>
<event>
 7    1  0.2683346E-009  0.1442518E+03  0.7561462E-02  0.1207720E+00
          2   -1    0    0  501    0  0.00000000000E+00  0.00000000000E+00  0.87844961676E+03  0.87844961676E+03  0.00000000000E+00 0.  1.
         -2   -1    0    0    0  501 -0.00000000000E+00 -0.00000000000E+00 -0.25925849061E+02  0.25925849061E+02  0.00000000000E+00 0. -1.
         25    2    1    2    0    0 -0.10342669284E+03  0.65803813206E+01  0.49676226796E+03  0.52264617518E+03  0.12508353749E+03 0.  0.
          5    1    3    3  502    0 -0.98990881739E+01 -0.46526187773E+02  0.89987255609E+02  0.10187176580E+03  0.41800000000E+01 0. -1.
         -5    1    3    3    0  502 -0.93527604663E+02  0.53106569094E+02  0.40677501235E+03  0.42077440938E+03  0.41800000000E+01 0. -1.
        -11    1    1    2    0    0  0.39764419274E+02  0.38313208768E+02  0.20129737861E+03  0.20873367156E+03  0.00000000000E+00 0.  1.
         11    1    1    2    0    0  0.63662273563E+02 -0.44893590088E+02  0.15446412112E+03  0.17299561908E+03  0.00000000000E+00 0. -1.
</event>
<event>
 7    1  0.2651429E-009  0.9337328E+02  0.7561462E-02  0.1294882E+00
         -2   -1    0    0    0  501 -0.00000000000E+00  0.00000000000E+00  0.83483864921E+02  0.83483864921E+02  0.00000000000E+00 0.  1.
          2   -1    0    0  501    0  0.00000000000E+00 -0.00000000000E+00 -0.17899057845E+03  0.17899057845E+03  0.00000000000E+00 0. -1.
         25    2    1    2    0    0 -0.34844992529E+02 -0.38192377138E+02 -0.29210651102E+02  0.13846618249E+03  0.12508713115E+03 0.  0.
          5    1    3    3  502    0 -0.43280423361E+02  0.22635108437E+02  0.26256546481E+02  0.55609547861E+02  0.41800000000E+01 0.  1.
         -5    1    3    3    0  502  0.84354308320E+01 -0.60827485575E+02 -0.55467197583E+02  0.82856634631E+02  0.41800000000E+01 0.  1.
        -11    1    1    2    0    0 -0.15376462987E+02  0.59153014665E+01 -0.62003368388E+02  0.64154844688E+02  0.00000000000E+00 0. -1.
         11    1    1    2    0    0  0.50221455516E+02  0.32277075671E+02 -0.42926940433E+01  0.59853416195E+02  0.00000000000E+00 0.  1.
</event>
<event>
 7    1  0.2651429E-009  0.1301744E+03  0.7561462E-02  0.1227197E+00
         -3   -1    0    0    0  501 -0.00000000000E+00  0.00000000000E+00  0.61926617923E+02  0.61926617923E+02  0.00000000000E+00 0.  1.
          3   -1    0    0  501    0  0.00000000000E+00 -0.00000000000E+00 -0.90300303370E+03  0.90300303370E+03  0.00000000000E+00 0. -1.
         25    2    1    2    0    0 -0.77410796741E+02  0.55403128958E+01 -0.83092369980E+03  0.84386382429E+03  0.12509529385E+03 0.  0.
          5    1    3    3  502    0 -0.10329454992E+03 -0.17748698878E+02 -0.48764296327E+03  0.49879646389E+03  0.41800000000E+01 0. -1.
         -5    1    3    3    0  502  0.25883753183E+02  0.23289011774E+02 -0.34328073653E+03  0.34506736041E+03  0.41800000000E+01 0. -1.
        -11    1    1    2    0    0  0.44272187088E+02 -0.48803096376E+02 -0.94407222048E+01  0.66564975785E+02  0.00000000000E+00 0. -1.
         11    1    1    2    0    0  0.33138609653E+02  0.43262783481E+02 -0.71199377635E+00  0.54500851547E+02  0.00000000000E+00 0.  1.
</event>
<event>
 7    1  0.2651429E-009  0.1035669E+03  0.7561462E-02  0.1272969E+00
          2   -1    0    0  501    0  0.00000000000E+00  0.00000000000E+00  0.24491722776E+03  0.24491722776E+03  0.00000000000E+00 0.  1.
         -2   -1    0    0    0  501 -0.00000000000E+00 -0.00000000000E+00 -0.83606824953E+02  0.83606824953E+02  0.00000000000E+00 0. -1.
         25    2    1    2    0    0 -0.85337170835E+01  0.87033179043E+00  0.19467332043E+03  0.23155714297E+03  0.12508967572E+03 0.  0.
          5    1    3    3  502    0 -0.64755078580E+02  0.80393651102E+01  0.78013483833E+02  0.10179109810E+03  0.41800000000E+01 0. -1.
         -5    1    3    3    0  502  0.56221361497E+02 -0.71690333198E+01  0.11665983659E+03  0.12976604487E+03  0.41800000000E+01 0. -1.
        -11    1    1    2    0    0 -0.34234119191E+02  0.17409530801E+02 -0.32715627701E+02  0.50451748983E+02  0.00000000000E+00 0.  1.
         11    1    1    2    0    0  0.42767836275E+02 -0.18279862591E+02 -0.64728991876E+00  0.46515160757E+02  0.00000000000E+00 0. -1.
</event>
<event>
 7    1  0.2651429E-009  0.1509264E+03  0.7561462E-02  0.1199339E+00
          1   -1    0    0  501    0  0.00000000000E+00  0.00000000000E+00  0.14133970662E+03  0.14133970662E+03  0.00000000000E+00 0. -1.
         -1   -1    0    0    0  501 -0.00000000000E+00 -0.00000000000E+00 -0.26980738613E+03  0.26980738613E+03  0.00000000000E+00 0.  1.
         25    2    1    2    0    0  0.40780453379E+02  0.10926042629E+03  0.52120767491E+02  0.17878767555E+03  0.12509025700E+03 0.  0.
          5    1    3    3  502    0 -0.36241781177E+02  0.38842844929E-01  0.40948570666E+01  0.36711149070E+02  0.41800000000E+01 0. -1.
         -5    1    3    3    0  502  0.77022234556E+02  0.10922158344E+03  0.48025910425E+02  0.14207652648E+03  0.41800000000E+01 0. -1.
        -11    1    1    2    0    0 -0.26007769823E+01 -0.87841580361E+02 -0.66635821128E+02  0.11028707965E+03  0.00000000000E+00 0. -1.
         11    1    1    2    0    0 -0.38179676397E+02 -0.21418845927E+02 -0.11395262587E+03  0.12207233754E+03  0.00000000000E+00 0.  1.
</event>
<event>
 7    1  0.2651429E-009  0.1088463E+03  0.7561462E-02  0.1262721E+00
         -2   -1    0    0    0  501 -0.00000000000E+00  0.00000000000E+00  0.23668423127E+02  0.23668423127E+02  0.00000000000E+00 0.  1.
          2   -1    0    0  501    0  0.00000000000E+00 -0.00000000000E+00 -0.54708712536E+03  0.54708712536E+03  0.00000000000E+00 0. -1.
         25    2    1    2    0    0 -0.28435079073E+02 -0.16919109857E+02 -0.33302634036E+03  0.35729564513E+03  0.12513522548E+03 0.  0.
          5    1    3    3  502    0 -0.75695596074E+02 -0.10309814713E+02 -0.15381411421E+03  0.17179164611E+03  0.41800000000E+01 0. -1.
         -5    1    3    3    0  502  0.47260517002E+02 -0.66092951440E+01 -0.17921222615E+03  0.18550399901E+03  0.41800000000E+01 0. -1.
        -11    1    1    2    0    0  0.21069980390E+02 -0.34994045075E+02 -0.56937101150E+02  0.70073966291E+02  0.00000000000E+00 0. -1.
         11    1    1    2    0    0  0.73650986833E+01  0.51913154931E+02 -0.13345526073E+03  0.14338593707E+03  0.00000000000E+00 0.  1.
</event>
<event>
 7    1  0.2651429E-009  0.1046774E+03  0.7561462E-02  0.1270757E+00
          2   -1    0    0  501    0  0.00000000000E+00  0.00000000000E+00  0.14235337916E+03  0.14235337916E+03  0.00000000000E+00 0. -1.
         -2   -1    0    0    0  501 -0.00000000000E+00 -0.00000000000E+00 -0.11892045100E+03  0.11892045100E+03  0.00000000000E+00 0.  1.
         25    2    1    2    0    0 -0.65663273184E+02  0.20011383032E+02  0.35389257722E+02  0.14700287540E+03  0.12508127325E+03 0.  0.
          5    1    3    3  502    0 -0.52596768772E+02 -0.47974445794E+02  0.56376875017E+01  0.71534770950E+02  0.41800000000E+01 0.  1.
         -5    1    3    3    0  502 -0.13066504412E+02  0.67985828826E+02  0.29751570220E+02  0.75468104450E+02  0.41800000000E+01 0.  1.
        -11    1    1    2    0    0  0.31460035463E+02 -0.83433090625E+01 -0.51360005612E+02  0.60804562443E+02  0.00000000000E+00 0.  1.
         11    1    1    2    0    0  0.34203237721E+02 -0.11668073969E+02  0.39403676058E+02  0.53466392319E+02  0.00000000000E+00 0. -1.
</event>
<event>
 7    1  0.2651429E-009  0.2000538E+03  0.7561462E-02  0.1149694E+00
          2   -1    0    0  501    0  0.00000000000E+00  0.00000000000E+00  0.15982210310E+03  0.15982210310E+03  0.00000000000E+00 0. -1.
         -2   -1    0    0    0  501 -0.00000000000E+00 -0.00000000000E+00 -0.33826931855E+03  0.33826931855E+03  0.00000000000E+00 0.  1.
         25    2    1    2    0    0 -0.12052846675E+03 -0.15673620797E+03 -0.34300558925E+02  0.23646880395E+03  0.12509043414E+03 0.  0.
          5    1    3    3  502    0 -0.77128829657E+02 -0.66102421324E+02 -0.76668057528E+02  0.12733361659E+03  0.41800000000E+01 0.  1.
         -5    1    3    3    0  502 -0.43399637097E+02 -0.90633786650E+02  0.42367498602E+02  0.10913518736E+03  0.41800000000E+01 0.  1.
        -11    1    1    2    0    0  0.33248947089E+02  0.48944200587E+02  0.32138997301E+01  0.59256699242E+02  0.00000000000E+00 0.  1.
         11    1    1    2    0    0  0.87279519665E+02  0.10779200739E+03 -0.14736055626E+03  0.20236591845E+03  0.00000000000E+00 0. -1.
</event>
<event>
 7    1  0.2651429E-009  0.7819004E+02  0.7561462E-02  0.1334268E+00
         -1   -1    0    0    0  501 -0.00000000000E+00  0.00000000000E+00  0.19151825240E+02  0.19151825240E+02  0.00000000000E+00 0.  1.
          1   -1    0    0  501    0  0.00000000000E+00 -0.00000000000E+00 -0.67232610637E+03  0.67232610637E+03  0.00000000000E+00 0. -1.
         25    2    1    2    0    0 -0.19221668959E+02 -0.24402557889E+02 -0.32840272198E+03  0.35279207895E+03  0.12509574643E+03 0.  0.
          5    1    3    3  502    0 -0.36895799132E+00 -0.40551144152E+02 -0.32481667736E+03  0.32736505267E+03  0.41800000000E+01 0.  1.
         -5    1    3    3    0  502 -0.18852710967E+02  0.16148586264E+02 -0.35860446246E+01  0.25427026275E+02  0.41800000000E+01 0.  1.
        -11    1    1    2    0    0 -0.13601879252E+02 -0.26549014993E+02 -0.59262031687E+02  0.66346437101E+02  0.00000000000E+00 0.  1.
         11    1    1    2    0    0  0.32823548211E+02  0.50951572882E+02 -0.26550952746E+03  0.27233941556E+03  0.00000000000E+00 0. -1.
</event>
<event>
 7    1  0.2651429E-009  0.1353698E+03  0.7561462E-02  0.1219699E+00
          4   -1    0    0  501    0  0.00000000000E+00  0.00000000000E+00  0.37226716401E+03  0.37226716401E+03  0.00000000000E+00 0. -1.
         -4   -1    0    0    0  501 -0.00000000000E+00 -0.00000000000E+00 -0.51289314204E+02  0.51289314204E+02  0.00000000000E+00 0.  1.
         25    2    1    2    0    0 -0.26966793881E+02 -0.79430772111E+02  0.18960741500E+03  0.24214584314E+03  0.12508869653E+03 0.  0.
          5    1    3    3  502    0  0.10916924833E+02  0.29453609076E+02  0.65137701569E+02  0.72436778649E+02  0.41800000000E+01 0. -1.
         -5    1    3    3    0  502 -0.37883718714E+02 -0.10888438119E+03  0.12446971343E+03  0.16970906449E+03  0.41800000000E+01 0. -1.
        -11    1    1    2    0    0  0.57393631456E+02  0.27829580999E+02  0.54089965898E+02  0.83631566535E+02  0.00000000000E+00 0.  1.
         11    1    1    2    0    0 -0.30426837575E+02  0.51601191112E+02  0.77280468916E+02  0.97779068542E+02  0.00000000000E+00 0. -1.
</event>
<event>
 7    1  0.2651429E-009  0.1655441E+03  0.7561462E-02  0.1182576E+00
         -1   -1    0    0    0  501 -0.00000000000E+00  0.00000000000E+00  0.85414825018E+02  0.85414825018E+02  0.00000000000E+00 0.  1.
          1   -1    0    0  501    0  0.00000000000E+00 -0.00000000000E+00 -0.38168370385E+03  0.38168370385E+03  0.00000000000E+00 0. -1.
         25    2    1    2    0    0 -0.59772793823E+02 -0.13885915540E+03 -0.15732443916E+03  0.25150248857E+03  0.12509144926E+03 0.  0.
          5    1    3    3  502    0  0.18091019105E+02 -0.67107388929E+02 -0.12078007798E+03  0.13941300606E+03  0.41800000000E+01 0.  1.
         -5    1    3    3    0  502 -0.77863812928E+02 -0.71751766467E+02 -0.36544361182E+02  0.11208948251E+03  0.41800000000E+01 0.  1.
        -11    1    1    2    0    0  0.36740461544E+02  0.12069040224E+03 -0.78983963107E+02  0.14884388175E+03  0.00000000000E+00 0.  1.
         11    1    1    2    0    0  0.23032332279E+02  0.18168753161E+02 -0.59960476563E+02  0.66752158552E+02  0.00000000000E+00 0. -1.
</event>
<event>
 6    1  0.2651429E-009  0.1087588E+03  0.7561462E-02  0.1262886E+00
          2   -1    0    0  501    0  0.00000000000E+00  0.00000000000E+00  0.55597327563E+03  0.55597327563E+03  0.00000000000E+00 0. -1.
         -2   -1    0    0    0  501 -0.00000000000E+00 -0.00000000000E+00 -0.27009042909E+02  0.27009042909E+02  0.00000000000E+00 0.  1.
          5    1    1    2  502    0 -0.59362274783E+02 -0.32619968945E+02  0.99808081030E+02  0.12069410707E+03  0.41800000000E+01 0.  1.
         -5    1    1    2    0  502  0.56170418750E+02 -0.39078003943E+02  0.21588432596E+03  0.22650766197E+03  0.41800000000E+01 0.  1.
        -11    1    1    2    0    0 -0.12529342953E+02  0.66608346393E+01  0.22027011134E+01  0.14359771764E+02  0.00000000000E+00 0.  1.
         11    1    1    2    0    0  0.15721198987E+02  0.65037138249E+02  0.21106912461E+03  0.22142077774E+03  0.00000000000E+00 0. -1.
</event>
<event>
 7    1  0.2651429E-009  0.1101993E+03  0.7561462E-02  0.1260201E+00
         -2   -1    0    0    0  501 -0.00000000000E+00  0.00000000000E+00  0.42002504285E+03  0.42002504285E+03  0.00000000000E+00 0. -1.
          2   -1    0    0  501    0  0.00000000000E+00 -0.00000000000E+00 -0.43756758557E+02  0.43756758557E+02  0.00000000000E+00 0.  1.
         25    2    1    2    0    0  0.21417288836E+02  0.40476526555E+02  0.94284994730E+02  0.16319280720E+03  0.12508070446E+03 0.  0.
          5    1    3    3  502    0  0.35609978085E+02 -0.28490756001E+02  0.44399436700E+00  0.45798070349E+02  0.41800000000E+01 0.  1.
         -5    1    3    3    0  502 -0.14192689249E+02  0.68967282556E+02  0.93841000363E+02  0.11739473685E+03  0.41800000000E+01 0.  1.
        -11    1    1    2    0    0  0.24748066334E+02  0.17237789687E+02  0.77762556872E+02  0.83406375247E+02  0.00000000000E+00 0.  1.
         11    1    1    2    0    0 -0.46165355169E+02 -0.57714316242E+02  0.20422073269E+03  0.21718261896E+03  0.00000000000E+00 0. -1.
</event>
<event>
 7    1  0.2651429E-009  0.1607729E+03  0.7561462E-02  0.1187827E+00
          1   -1    0    0  501    0  0.00000000000E+00  0.00000000000E+00  0.63930467528E+03  0.63930467528E+03  0.00000000000E+00 0. -1.
         -1   -1    0    0    0  501 -0.00000000000E+00 -0.00000000000E+00 -0.46528632036E+02  0.46528632036E+02  0.00000000000E+00 0.  1.
         25    2    1    2    0    0 -0.10194624918E+03 -0.86053138427E+02  0.29959851007E+03  0.35100608965E+03  0.12509127619E+03 0.  0.
          5    1    3    3  502    0  0.17297814796E+01  0.20587150101E+02  0.60934476888E+01  0.21941408295E+02  0.41800000000E+01 0.  1.
         -5    1    3    3    0  502 -0.10367603066E+03 -0.10664028853E+03  0.29350506238E+03  0.32906468135E+03  0.41800000000E+01 0.  1.
        -11    1    1    2    0    0 -0.18433614682E+01  0.36709644050E+02  0.13100461461E+03  0.13606323896E+03  0.00000000000E+00 0. -1.
         11    1    1    2    0    0  0.10378961065E+03  0.49343494377E+02  0.16217291856E+03  0.19876397871E+03  0.00000000000E+00 0.  1.
</event>
<event>
 7    1  0.3341536E-009  0.1264466E+03  0.7561462E-02  0.1232826E+00
          2   -1    0    0  501    0  0.00000000000E+00  0.00000000000E+00  0.94386213102E+03  0.94386213102E+03  0.00000000000E+00 0. -1.
         -2   -1    0    0    0  501 -0.00000000000E+00 -0.00000000000E+00 -0.22575207792E+02  0.22575207792E+02  0.00000000000E+00 0.  1.
         25    2    1    2    0    0  0.69306489048E+02  0.90468626512E+01  0.72667219110E+03  0.74066534814E+03  0.12508976565E+03 0.  0.
          5    1    3    3  502    0  0.62886409041E+02  0.61602078497E+02  0.39031998954E+03  0.40014582736E+03  0.41800000000E+01 0.  1.
         -5    1    3    3    0  502  0.64200800075E+01 -0.52555215845E+02  0.33635220156E+03  0.34051952078E+03  0.41800000000E+01 0.  1.
        -11    1    1    2    0    0 -0.51743986007E+02 -0.46955255891E+02  0.14464716684E+03  0.16063946906E+03  0.00000000000E+00 0.  1.
         11    1    1    2    0    0 -0.17562503042E+02  0.37908393240E+02  0.49967565285E+02  0.65132521613E+02  0.00000000000E+00 0. -1.
</event>
<event>
 7    1  0.2651429E-009  0.1244152E+03  0.7561462E-02  0.1235986E+00
          2   -1    0    0  501    0  0.00000000000E+00  0.00000000000E+00  0.62766707140E+02  0.62766707140E+02  0.00000000000E+00 0. -1.
         -2   -1    0    0    0  501 -0.00000000000E+00 -0.00000000000E+00 -0.36013677161E+03  0.36013677161E+03  0.00000000000E+00 0.  1.
         25    2    1    2    0    0 -0.70217686335E+02 -0.41687805622E+02 -0.25294532826E+03  0.29376368897E+03  0.12508944505E+03 0.  0.
          5    1    3    3  502    0 -0.22339901086E+02 -0.81708879948E+02 -0.12119433567E+03  0.14792211343E+03  0.41800000000E+01 0.  1.
         -5    1    3    3    0  502 -0.47877785250E+02  0.40021074325E+02 -0.13175099258E+03  0.14584157554E+03  0.41800000000E+01 0.  1.
        -11    1    1    2    0    0 -0.37268017265E+00  0.29909456458E+02  0.17367457509E+02  0.34588192443E+02  0.00000000000E+00 0. -1.
         11    1    1    2    0    0  0.70590366508E+02  0.11778349164E+02 -0.61792193726E+02  0.94551597333E+02  0.00000000000E+00 0.  1.
</event>
<event>
 7    1  0.2651429E-009  0.7428615E+02  0.7561462E-02  0.1346096E+00
          2   -1    0    0  501    0  0.00000000000E+00  0.00000000000E+00  0.67171000264E+03  0.67171000264E+03  0.00000000000E+00 0. -1.
         -2   -1    0    0    0  501 -0.00000000000E+00 -0.00000000000E+00 -0.22593639383E+02  0.22593639383E+02  0.00000000000E+00 0.  1.
         25    2    1    2    0    0 -0.35923325986E+02  0.27832289126E+02  0.25537796276E+03  0.28797797362E+03  0.12509311635E+03 0.  0.
          5    1    3    3  502    0 -0.19642974161E+02  0.65876056141E+01  0.25968864118E+03  0.26054731958E+03  0.41800000000E+01 0.  1.
         -5    1    3    3    0  502 -0.16280351825E+02  0.21244683512E+02 -0.43106784142E+01  0.27430654047E+02  0.41800000000E+01 0.  1.
        -11    1    1    2    0    0  0.66126994690E+02 -0.17211165281E+02  0.26609203271E+03  0.27472526915E+03  0.00000000000E+00 0.  1.
         11    1    1    2    0    0 -0.30203668704E+02 -0.10621123845E+02  0.12764636778E+03  0.13160039925E+03  0.00000000000E+00 0. -1.
</event>
<event>
 7    1  0.2828368E-009  0.1297856E+03  0.7561462E-02  0.1227774E+00
          1   -1    0    0  501    0  0.00000000000E+00  0.00000000000E+00  0.67206731950E+03  0.67206731950E+03  0.00000000000E+00 0. -1.
         -1   -1    0    0    0  501 -0.00000000000E+00 -0.00000000000E+00 -0.35873862957E+02  0.35873862957E+02  0.00000000000E+00 0.  1.
         25    2    1    2    0    0  0.88263332961E+02 -0.46516992477E+02  0.45370818749E+03  0.48109661379E+03  0.12509430792E+03 0.  0.
          5    1    3    3  502    0  0.11833995454E+03 -0.26504821282E+02  0.38001987301E+03  0.39892283298E+03  0.41800000000E+01 0.  1.
         -5    1    3    3    0  502 -0.30076621582E+02 -0.20012171195E+02  0.73688314481E+02  0.82173780811E+02  0.41800000000E+01 0.  1.
        -11    1    1    2    0    0 -0.43066904323E+02  0.11193473111E+02  0.10743524080E+02  0.45776362873E+02  0.00000000000E+00 0.  1.
         11    1    1    2    0    0 -0.45196428638E+02  0.35323519366E+02  0.17174174498E+03  0.18106820580E+03  0.00000000000E+00 0. -1.
</event>
<event>
 7    1  0.2651429E-009  0.1236286E+03  0.7561462E-02  0.1237228E+00
         -2   -1    0    0    0  501 -0.00000000000E+00  0.00000000000E+00  0.84000781650E+01  0.84000781650E+01  0.00000000000E+00 0.  1.
          2   -1    0    0  501    0  0.00000000000E+00 -0.00000000000E+00 -0.20948257321E+04  0.20948257321E+04  0.00000000000E+00 0. -1.
         25    2    1    2    0    0 -0.60189291539E+02  0.10407546697E+02 -0.15331366198E+04  0.15394430575E+04  0.12508383014E+03 0.  0.
          5    1    3    3  502    0 -0.65329532766E+02  0.60095987654E+02 -0.10200115946E+04  0.10238752859E+04  0.41800000000E+01 0. -1.
         -5    1    3    3    0  502  0.51402412265E+01 -0.49688440957E+02 -0.51312502519E+03  0.51556777161E+03  0.41800000000E+01 0. -1.
        -11    1    1    2    0    0  0.81198731023E+02  0.62694297671E+01 -0.41854015524E+03  0.42638996378E+03  0.00000000000E+00 0.  1.
         11    1    1    2    0    0 -0.21009439484E+02 -0.16676976464E+02 -0.13474887887E+03  0.13739278892E+03  0.00000000000E+00 0. -1.
</event>
<event>
 7    1  0.2651429E-009  0.1028707E+03  0.7561462E-02  0.1274373E+00
          2   -1    0    0  501    0  0.00000000000E+00  0.00000000000E+00  0.47879925091E+02  0.47879925091E+02  0.00000000000E+00 0. -1.
         -2   -1    0    0    0  501 -0.00000000000E+00 -0.00000000000E+00 -0.32564881586E+03  0.32564881586E+03  0.00000000000E+00 0.  1.
         25    2    1    2    0    0 -0.23765231978E+02  0.14197150527E+02 -0.23944325505E+03  0.27156362274E+03  0.12508950185E+03 0.  0.
          5    1    3    3  502    0 -0.36881997779E+01  0.60425516098E+02 -0.60803954269E+02  0.85903661552E+02  0.41800000000E+01 0.  1.
         -5    1    3    3    0  502 -0.20077032201E+02 -0.46228365571E+02 -0.17863930078E+03  0.18565996119E+03  0.41800000000E+01 0.  1.
        -11    1    1    2    0    0  0.54596151568E+02 -0.27234721133E+02 -0.24431393846E+02  0.65721859427E+02  0.00000000000E+00 0. -1.
         11    1    1    2    0    0 -0.30830919590E+02  0.13037570607E+02 -0.13894241876E+02  0.36243258786E+02  0.00000000000E+00 0.  1.
</event>
<event>
 7    1  0.2651429E-009  0.1087093E+03  0.7561462E-02  0.1262979E+00
         -2   -1    0    0    0  501 -0.00000000000E+00  0.00000000000E+00  0.49518908744E+02  0.49518908744E+02  0.00000000000E+00 0.  1.
          2   -1    0    0  501    0  0.00000000000E+00 -0.00000000000E+00 -0.40795857774E+03  0.40795857774E+03  0.00000000000E+00 0. -1.
         25    2    1    2    0    0 -0.99789761909E+01 -0.12985124974E+02 -0.34180884657E+03  0.36434631562E+03  0.12508699645E+03 0.  0.
          5    1    3    3  502    0 -0.42421840785E+02  0.43355121392E+02 -0.15463103245E+03  0.16615507132E+03  0.41800000000E+01 0. -1.
         -5    1    3    3    0  502  0.32442864594E+02 -0.56340246366E+02 -0.18717781411E+03  0.19819124431E+03  0.41800000000E+01 0. -1.
        -11    1    1    2    0    0 -0.39625804084E+02  0.13500387729E+02 -0.48364469323E+01  0.42140906932E+02  0.00000000000E+00 0.  1.
         11    1    1    2    0    0  0.49604780275E+02 -0.51526275489E+00 -0.11794375492E+02  0.50990263924E+02  0.00000000000E+00 0. -1.
</event>
<event>
 7    1  0.2651429E-009  0.8221784E+02  0.7561462E-02  0.1322873E+00
         -2   -1    0    0    0  501 -0.00000000000E+00  0.00000000000E+00  0.14593108489E+03  0.14593108489E+03  0.00000000000E+00 0. -1.
          2   -1    0    0  501    0  0.00000000000E+00 -0.00000000000E+00 -0.92217856523E+02  0.92217856523E+02  0.00000000000E+00 0.  1.
         25    2    1    2    0    0  0.18268281913E+02  0.36107875103E+02  0.29918482117E+02  0.13482224088E+03  0.12507762508E+03 0.  0.
          5    1    3    3  502    0  0.44403742742E+02  0.39493991033E+02  0.66668294577E+02  0.89406943796E+02  0.41800000000E+01 0.  1.
         -5    1    3    3    0  502 -0.26135460829E+02 -0.33861159303E+01 -0.36749812459E+02  0.45415297089E+02  0.41800000000E+01 0.  1.
        -11    1    1    2    0    0  0.21967343843E+02  0.28771129742E+01  0.39371674537E+02  0.45177104051E+02  0.00000000000E+00 0. -1.
         11    1    1    2    0    0 -0.40235625755E+02 -0.38984988077E+02 -0.15576928290E+02  0.58149596475E+02  0.00000000000E+00 0.  1.
</event>
<event>
 7    1  0.2651429E-009  0.1251444E+03  0.7561462E-02  0.1234844E+00
         -2   -1    0    0    0  501 -0.00000000000E+00  0.00000000000E+00  0.77345475264E+02  0.77345475264E+02  0.00000000000E+00 0. -1.
          2   -1    0    0  501    0  0.00000000000E+00 -0.00000000000E+00 -0.28557173099E+03  0.28557173099E+03  0.00000000000E+00 0.  1.
         25    2    1    2    0    0 -0.98163992280E+02 -0.22211066515E+02 -0.88525053745E+02  0.18334090164E+03  0.12509076791E+03 0.  0.
          5    1    3    3  502    0 -0.39935209615E+02 -0.45869403721E+02 -0.10209039045E+03  0.11890644805E+03  0.41800000000E+01 0.  1.
         -5    1    3    3    0  502 -0.58228782664E+02  0.23658337206E+02  0.13565336704E+02  0.64434453593E+02  0.41800000000E+01 0.  1.
        -11    1    1    2    0    0  0.59831351211E+02  0.50823233409E+02 -0.43899967088E+02  0.89944420351E+02  0.00000000000E+00 0. -1.
         11    1    1    2    0    0  0.38332641069E+02 -0.28612166894E+02 -0.75801234888E+02  0.89631884262E+02  0.00000000000E+00 0.  1.
</event>
<event>
 7    1  0.2651429E-009  0.8573689E+02  0.7561462E-02  0.1313517E+00
         -4   -1    0    0    0  501 -0.00000000000E+00  0.00000000000E+00  0.24856432237E+03  0.24856432237E+03  0.00000000000E+00 0.  1.
          4   -1    0    0  501    0  0.00000000000E+00 -0.00000000000E+00 -0.70969251070E+02  0.70969251070E+02  0.00000000000E+00 0. -1.
         25    2    1    2    0    0 -0.11985500196E+02 -0.72545899656E+01  0.17574895165E+03  0.21617395821E+03  0.12508878811E+03 0.  0.
          5    1    3    3  502    0 -0.14174958285E+02  0.41953792191E+02  0.15720414853E+03  0.16337584532E+03  0.41800000000E+01 0. -1.
         -5    1    3    3    0  502  0.21894580895E+01 -0.49208382157E+02  0.18544803120E+02  0.52798112882E+02  0.41800000000E+01 0. -1.
        -11    1    1    2    0    0  0.17589201990E+02  0.40337152162E+02 -0.32985382109E+02  0.54995466213E+02  0.00000000000E+00 0. -1.
         11    1    1    2    0    0 -0.56037017939E+01 -0.33082562196E+02  0.34831501760E+02  0.48364149017E+02  0.00000000000E+00 0.  1.
</event>
<event>
 7    1  0.2651429E-009  0.9158484E+02  0.7561462E-02  0.1299059E+00
         -1   -1    0    0    0  501 -0.00000000000E+00  0.00000000000E+00  0.51826063832E+02  0.51826063832E+02  0.00000000000E+00 0.  1.
          1   -1    0    0  501    0  0.00000000000E+00 -0.00000000000E+00 -0.38637088877E+03  0.38637088877E+03  0.00000000000E+00 0. -1.
         25    2    1    2    0    0 -0.50080858878E+02  0.60319351165E+02 -0.10048353577E+03  0.17857525313E+03  0.12508262677E+03 0.  0.
          5    1    3    3  502    0  0.83339150791E+00 -0.85369167575E+01 -0.91916905230E+02  0.92410840036E+02  0.41800000000E+01 0.  1.
         -5    1    3    3    0  502 -0.50914250386E+02  0.68856267922E+02 -0.85666305352E+01  0.86164413091E+02  0.41800000000E+01 0.  1.
        -11    1    1    2    0    0  0.29068549490E+02 -0.60448819132E+01 -0.17198664774E+03  0.17453059379E+03  0.00000000000E+00 0. -1.
         11    1    1    2    0    0  0.21012309388E+02 -0.54274469252E+02 -0.62074641434E+02  0.85091105690E+02  0.00000000000E+00 0.  1.
</event>
<event>
 7    1  0.2651429E-009  0.1385579E+03  0.7561462E-02  0.1215283E+00
          1   -1    0    0  501    0  0.00000000000E+00  0.00000000000E+00  0.12110507936E+04  0.12110507936E+04  0.00000000000E+00 0. -1.
         -1   -1    0    0    0  501 -0.00000000000E+00 -0.00000000000E+00 -0.18056386802E+02  0.18056386802E+02  0.00000000000E+00 0.  1.
         25    2    1    2    0    0  0.81079182622E+02 -0.56723994013E+02  0.61639566461E+03  0.63669684787E+03  0.12509122824E+03 0.  0.
          5    1    3    3  502    0  0.12685997419E+01  0.27840709765E+02  0.41627224874E+02  0.50269401391E+02  0.41800000000E+01 0. -1.
         -5    1    3    3    0  502  0.79810582880E+02 -0.84564703778E+02  0.57476843974E+03  0.58642744648E+03  0.41800000000E+01 0. -1.
        -11    1    1    2    0    0 -0.67716922936E+02 -0.64359027016E+01  0.22988989887E+03  0.23974229518E+03  0.00000000000E+00 0.  1.
         11    1    1    2    0    0 -0.13362259686E+02  0.63159896714E+02  0.34670884329E+03  0.35266803733E+03  0.00000000000E+00 0. -1.
</event>
<event>
 7    1  0.2651429E-009  0.8054430E+02  0.7561462E-02  0.1327514E+00
          2   -1    0    0  501    0  0.00000000000E+00  0.00000000000E+00  0.62479303328E+03  0.62479303328E+03  0.00000000000E+00 0. -1.
         -2   -1    0    0    0  501 -0.00000000000E+00 -0.00000000000E+00 -0.25933998341E+02  0.25933998341E+02  0.00000000000E+00 0.  1.
         25    2    1    2    0    0  0.14879948144E+02  0.61975757528E+01  0.49578791671E+03  0.51157844064E+03  0.12508804809E+03 0.  0.
          5    1    3    3  502    0  0.73431599491E+01 -0.32364031035E+02  0.44940022093E+03  0.45064329960E+03  0.41800000000E+01 0.  1.
         -5    1    3    3    0  502  0.75367881945E+01  0.38561606788E+02  0.46387695777E+02  0.60935141042E+02  0.41800000000E+01 0.  1.
        -11    1    1    2    0    0  0.42970591102E+01 -0.44809407019E+02  0.29321611114E+02  0.53722477165E+02  0.00000000000E+00 0.  1.
         11    1    1    2    0    0 -0.19177007254E+02  0.38611831266E+02  0.73749507116E+02  0.85426113811E+02  0.00000000000E+00 0. -1.
</event>
<event>
 7    1  0.2651429E-009  0.6698335E+02  0.7561462E-02  0.1370663E+00
         -1   -1    0    0    0  501 -0.00000000000E+00  0.00000000000E+00  0.78677642096E+02  0.78677642096E+02  0.00000000000E+00 0.  1.
          1   -1    0    0  501    0  0.00000000000E+00 -0.00000000000E+00 -0.18731945884E+03  0.18731945884E+03  0.00000000000E+00 0. -1.
         25    2    1    2    0    0 -0.18053323741E+02  0.78110254158E+01 -0.67813326356E+01  0.12679131852E+03  0.12507244845E+03 0.  0.
          5    1    3    3  502    0 -0.67154969259E+01  0.20267287936E+02  0.56831586677E+02  0.60853615368E+02  0.41800000000E+01 0. -1.
         -5    1    3    3    0  502 -0.11337826815E+02 -0.12456262520E+02 -0.63612919312E+02  0.65937703147E+02  0.41800000000E+01 0. -1.
        -11    1    1    2    0    0 -0.18730911484E+01  0.41566875054E+02 -0.43052736187E+02  0.59873630801E+02  0.00000000000E+00 0. -1.
         11    1    1    2    0    0  0.19926414889E+02 -0.49377900469E+02 -0.58807747924E+02  0.79332151622E+02  0.00000000000E+00 0.  1.
</event>
<event>
 7    1  0.2651429E-009  0.2642141E+03  0.7561462E-02  0.1104637E+00
          2   -1    0    0  501    0  0.00000000000E+00  0.00000000000E+00  0.13995314924E+03  0.13995314924E+03  0.00000000000E+00 0. -1.
         -2   -1    0    0    0  501 -0.00000000000E+00 -0.00000000000E+00 -0.51269238013E+03  0.51269238013E+03  0.00000000000E+00 0.  1.
         25    2    1    2    0    0 -0.19866325793E+03  0.14269746918E+03 -0.18359891168E+03  0.33043167348E+03  0.12508746024E+03 0.  0.
          5    1    3    3  502    0 -0.55954255472E+02 -0.16888966396E+02 -0.56629119015E+02  0.81488928154E+02  0.41800000000E+01 0.  1.
         -5    1    3    3    0  502 -0.14270900246E+03  0.15958643558E+03 -0.12696979267E+03  0.24894274533E+03  0.41800000000E+01 0.  1.
        -11    1    1    2    0    0  0.42643609707E+01 -0.31419587778E+02 -0.46973395968E+01  0.32053709145E+02  0.00000000000E+00 0.  1.
         11    1    1    2    0    0  0.19439889696E+03 -0.11127788140E+03 -0.18444297961E+03  0.29016014674E+03  0.00000000000E+00 0. -1.
</event>
<event>
 7    1  0.2651429E-009  0.1097492E+03  0.7561462E-02  0.1261035E+00
         -2   -1    0    0    0  501 -0.00000000000E+00  0.00000000000E+00  0.22337270141E+03  0.22337270141E+03  0.00000000000E+00 0.  1.
          2   -1    0    0  501    0  0.00000000000E+00 -0.00000000000E+00 -0.70053408847E+02  0.70053408847E+02  0.00000000000E+00 0. -1.
         25    2    1    2    0    0 -0.98886914043E+01  0.62361515170E+02  0.51365239417E+02  0.14926877689E+03  0.12512407899E+03 0.  0.
          5    1    3    3  502    0  0.33489808857E+02  0.73699669491E+02  0.13304460956E+00  0.81059846294E+02  0.41800000000E+01 0.  1.
         -5    1    3    3    0  502 -0.43378500261E+02 -0.11338154321E+02  0.51232194808E+02  0.68208930597E+02  0.41800000000E+01 0.  1.
        -11    1    1    2    0    0  0.37330732530E+02 -0.18484498203E+02  0.75036086561E+02  0.85823508152E+02  0.00000000000E+00 0.  1.
         11    1    1    2    0    0 -0.27442041126E+02 -0.43877016967E+02  0.26917966585E+02  0.58333825215E+02  0.00000000000E+00 0. -1.
</event>
<event>
 7    1  0.2651429E-009  0.1806342E+03  0.7561462E-02  0.1167191E+00
          2   -1    0    0  501    0  0.00000000000E+00  0.00000000000E+00  0.62664741976E+03  0.62664741976E+03  0.00000000000E+00 0. -1.
         -2   -1    0    0    0  501 -0.00000000000E+00 -0.00000000000E+00 -0.60416713312E+02  0.60416713312E+02  0.00000000000E+00 0.  1.
         25    2    1    2    0    0  0.43303405600E+02  0.13808786459E+03  0.41749323390E+03  0.45923014287E+03  0.12509308726E+03 0.  0.
          5    1    3    3  502    0  0.86522775151E+02  0.92087432830E+02  0.30512770017E+03  0.33028271483E+03  0.41800000000E+01 0. -1.
         -5    1    3    3    0  502 -0.43219369551E+02  0.46000431758E+02  0.11236553373E+03  0.12894742803E+03  0.41800000000E+01 0. -1.
        -11    1    1    2    0    0 -0.70363090320E+01 -0.13500349470E+03  0.12673203782E+03  0.18530100549E+03  0.00000000000E+00 0.  1.
         11    1    1    2    0    0 -0.36267096568E+02 -0.30843698890E+01  0.22005434720E+02  0.42532984709E+02  0.00000000000E+00 0. -1.
</event>
<event>
 7    1  0.2651429E-009  0.1229933E+03  0.7561462E-02  0.1238239E+00
         -1   -1    0    0    0  501 -0.00000000000E+00  0.00000000000E+00  0.25076677223E+02  0.25076677223E+02  0.00000000000E+00 0.  1.
          1   -1    0    0  501    0  0.00000000000E+00 -0.00000000000E+00 -0.75138134521E+03  0.75138134521E+03  0.00000000000E+00 0. -1.
         25    2    1    2    0    0  0.61197876895E+01  0.80436350172E+02 -0.30379874128E+03  0.33830344096E+03  0.12509230484E+03 0.  0.
          5    1    3    3  502    0 -0.34652021026E+02 -0.13230861132E+02 -0.36879874954E+02  0.52473000906E+02  0.41800000000E+01 0. -1.
         -5    1    3    3    0  502  0.40771808716E+02  0.93667211304E+02 -0.26691886633E+03  0.28583044005E+03  0.41800000000E+01 0. -1.
        -11    1    1    2    0    0 -0.36424088850E+02 -0.58855475381E+02 -0.34869222287E+03  0.35549535513E+03  0.00000000000E+00 0. -1.
         11    1    1    2    0    0  0.30304301161E+02 -0.21580874791E+02 -0.73813703837E+02  0.82659226344E+02  0.00000000000E+00 0.  1.
</event>
<event>
 7    1  0.2651429E-009  0.9981804E+02  0.7561462E-02  0.1280679E+00
          3   -1    0    0  501    0  0.00000000000E+00  0.00000000000E+00  0.17714444173E+02  0.17714444173E+02  0.00000000000E+00 0. -1.
         -3   -1    0    0    0  501 -0.00000000000E+00 -0.00000000000E+00 -0.61151910685E+03  0.61151910685E+03  0.00000000000E+00 0.  1.
         25    2    1    2    0    0 -0.58519410718E+01  0.46258716575E+02 -0.34657611511E+03  0.37139807925E+03  0.12508963039E+03 0.  0.
          5    1    3    3  502    0 -0.27045536444E+02 -0.33872836299E+02 -0.68224524302E+02  0.80937557393E+02  0.41800000000E+01 0. -1.
         -5    1    3    3    0  502  0.21193595373E+02  0.80131552874E+02 -0.27835159081E+03  0.29046052186E+03  0.41800000000E+01 0. -1.
        -11    1    1    2    0    0 -0.37063556767E+01  0.12771408727E+02 -0.50264207875E+02  0.51993620249E+02  0.00000000000E+00 0.  1.
         11    1    1    2    0    0  0.95582967485E+01 -0.59030125302E+02 -0.19696433969E+03  0.20584185152E+03  0.00000000000E+00 0. -1.
</event>
<event>
 7    1  0.2651429E-009  0.3112141E+03  0.7561462E-02  0.1079765E+00
         -2   -1    0    0    0  501 -0.00000000000E+00  0.00000000000E+00  0.83900433608E+03  0.83900433608E+03  0.00000000000E+00 0.  1.
          2   -1    0    0  501    0  0.00000000000E+00 -0.00000000000E+00 -0.12434689893E+03  0.12434689893E+03  0.00000000000E+00 0. -1.
         25    2    1    2    0    0 -0.29230431659E+03  0.23350501224E+02  0.48300702497E+03  0.57873143796E+03  0.12508889522E+03 0.  0.
          5    1    3    3  502    0 -0.12287647567E+03 -0.47538980842E+02  0.24341896800E+03  0.27681916363E+03  0.41800000000E+01 0. -1.
         -5    1    3    3    0  502 -0.16942784092E+03  0.70889482066E+02  0.23958805697E+03  0.30191227433E+03  0.41800000000E+01 0. -1.
        -11    1    1    2    0    0  0.14719938643E+03 -0.57164085670E+02  0.12484314520E+03  0.20129879026E+03  0.00000000000E+00 0.  1.
         11    1    1    2    0    0  0.14510493016E+03  0.33813584446E+02  0.10680726698E+03  0.18332100679E+03  0.00000000000E+00 0. -1.
</event>
<event>
 7    1  0.2774774E-009  0.7579278E+02  0.7561462E-02  0.1341433E+00
         -1   -1    0    0    0  501 -0.00000000000E+00  0.00000000000E+00  0.31801368645E+02  0.31801368645E+02  0.00000000000E+00 0.  1.
          1   -1    0    0  501    0  0.00000000000E+00 -0.00000000000E+00 -0.74882805937E+03  0.74882805937E+03  0.00000000000E+00 0. -1.
         25    2    1    2    0    0  0.38991327593E+02  0.17459066490E+02 -0.64386392607E+03  0.65729259965E+03  0.12509062167E+03 0.  0.
          5    1    3    3  502    0 -0.26169327551E+02  0.18718113851E+02 -0.48464154854E+02  0.58321935807E+02  0.41800000000E+01 0. -1.
         -5    1    3    3    0  502  0.65160655144E+02 -0.12590473608E+01 -0.59539977122E+03  0.59897066384E+03  0.41800000000E+01 0. -1.
        -11    1    1    2    0    0 -0.14052843697E+02 -0.24214301103E+02  0.14793067184E+02  0.31664643226E+02  0.00000000000E+00 0.  1.
         11    1    1    2    0    0 -0.24938483896E+02  0.67552346126E+01 -0.87955831838E+02  0.91672185138E+02  0.00000000000E+00 0. -1.
</event>
<event>
 7    1  0.2651429E-009  0.2859259E+03  0.7561462E-02  0.1092496E+00
          2   -1    0    0  501    0  0.00000000000E+00  0.00000000000E+00  0.14798857652E+04  0.14798857652E+04  0.00000000000E+00 0.  1.
         -2   -1    0    0    0  501 -0.00000000000E+00 -0.00000000000E+00 -0.66355347732E+02  0.66355347732E+02  0.00000000000E+00 0. -1.
         25    2    1    2    0    0 -0.20707519325E+03 -0.16839266006E+03  0.10225325507E+04  0.10641707250E+04  0.12510112333E+03 0.  0.
          5    1    3    3  502    0 -0.33774867782E+02  0.17307889396E+02  0.18762630712E+03  0.19147169048E+03  0.41800000000E+01 0. -1.
         -5    1    3    3    0  502 -0.17330032547E+03 -0.18570054945E+03  0.83490624358E+03  0.87269903451E+03  0.41800000000E+01 0. -1.
        -11    1    1    2    0    0  0.14085358748E+02 -0.96394574975E+01  0.41975302649E+02  0.45312719014E+02  0.00000000000E+00 0.  1.
         11    1    1    2    0    0  0.19298983450E+03  0.17803211755E+03  0.34902256409E+03  0.43675766890E+03  0.00000000000E+00 0. -1.
</event>
<event>
 7    1  0.2651429E-009  0.9793453E+02  0.7561462E-02  0.1284700E+00
          3   -1    0    0  501    0  0.00000000000E+00  0.00000000000E+00  0.48164747398E+03  0.48164747398E+03  0.00000000000E+00 0. -1.
         -3   -1    0    0    0  501 -0.00000000000E+00 -0.00000000000E+00 -0.24749419934E+02  0.24749419934E+02  0.00000000000E+00 0.  1.
         25    2    1    2    0    0  0.28683215461E+02  0.27460043747E-01  0.27729647360E+03  0.30555374145E+03  0.12508807712E+03 0.  0.
          5    1    3    3  502    0  0.31208266401E+02  0.50296330088E+02  0.22563035886E+03  0.23330282457E+03  0.41800000000E+01 0. -1.
         -5    1    3    3    0  502 -0.25250509402E+01 -0.50268870045E+02  0.51666114744E+02  0.72250916884E+02  0.41800000000E+01 0. -1.
        -11    1    1    2    0    0 -0.56362477666E+02  0.86373901305E+01  0.88881541734E+02  0.10559953531E+03  0.00000000000E+00 0.  1.
         11    1    1    2    0    0  0.27679262205E+02 -0.86648501742E+01  0.90720038709E+02  0.95243617152E+02  0.00000000000E+00 0. -1.
</event>
<event>
 7    1  0.2651429E-009  0.1972166E+03  0.7561462E-02  0.1152109E+00
          2   -1    0    0  501    0  0.00000000000E+00  0.00000000000E+00  0.42601971222E+03  0.42601971222E+03  0.00000000000E+00 0. -1.
         -2   -1    0    0    0  501 -0.00000000000E+00 -0.00000000000E+00 -0.11303451576E+03  0.11303451576E+03  0.00000000000E+00 0.  1.
         25    2    1    2    0    0  0.14991914779E+03 -0.69305358033E+02  0.27811595606E+03  0.34680534131E+03  0.12508587538E+03 0.  0.
          5    1    3    3  502    0  0.12376127719E+03 -0.10524405875E+03  0.22036268014E+03  0.27380713802E+03  0.41800000000E+01 0.  1.
         -5    1    3    3    0  502  0.26157870601E+02  0.35938700716E+02  0.57753275924E+02  0.72998203290E+02  0.41800000000E+01 0.  1.
        -11    1    1    2    0    0  0.74233925547E+01  0.21627078628E+02  0.13246169428E+02  0.26425334275E+02  0.00000000000E+00 0. -1.
         11    1    1    2    0    0 -0.15734254035E+03  0.47678279405E+02  0.21623070970E+02  0.16582355239E+03  0.00000000000E+00 0.  1.
</event>
<event>
 6    1  0.2651429E-009  0.1543136E+03  0.7561462E-02  0.1195270E+00
         -3   -1    0    0    0  501 -0.00000000000E+00  0.00000000000E+00  0.10141750025E+04  0.10141750025E+04  0.00000000000E+00 0.  1.
          3   -1    0    0  501    0  0.00000000000E+00 -0.00000000000E+00 -0.35057659170E+02  0.35057659170E+02  0.00000000000E+00 0. -1.
          5    1    1    2  502    0  0.17345486843E+02 -0.66009155817E+01  0.14150002243E+02  0.23709343386E+02  0.41800000000E+01 0. -1.
         -5    1    1    2    0  502  0.16790181128E+02  0.13352997424E+03  0.72512872172E+03  0.73752376210E+03  0.41800000000E+01 0. -1.
        -11    1    1    2    0    0 -0.49004695326E+02 -0.13072726119E+03  0.23199877821E+03  0.27076652318E+03  0.00000000000E+00 0.  1.
         11    1    1    2    0    0  0.14869027356E+02  0.37982025399E+01  0.78398411532E+01  0.17233032999E+02  0.00000000000E+00 0. -1.
</event>
<event>
 7    1  0.2651429E-009  0.1036824E+03  0.7561462E-02  0.1272738E+00
         -4   -1    0    0    0  501 -0.00000000000E+00  0.00000000000E+00  0.32681910819E+03  0.32681910819E+03  0.00000000000E+00 0.  1.
          4   -1    0    0  501    0  0.00000000000E+00 -0.00000000000E+00 -0.53915049068E+02  0.53915049068E+02  0.00000000000E+00 0. -1.
         25    2    1    2    0    0 -0.36096430958E+02 -0.55294606941E+02  0.96838714098E+02  0.17142394580E+03  0.12509191325E+03 0.  0.
          5    1    3    3  502    0 -0.71084453120E+01 -0.66129663945E+02 -0.31060695507E+01  0.66714185270E+02  0.41800000000E+01 0.  1.
         -5    1    3    3    0  502 -0.28987985646E+02  0.10835057003E+02  0.99944783648E+02  0.10470976053E+03  0.41800000000E+01 0.  1.
        -11    1    1    2    0    0  0.32338898591E+02  0.79068508500E+02  0.15647962529E+03  0.17827929361E+03  0.00000000000E+00 0.  1.
         11    1    1    2    0    0  0.37575323669E+01 -0.23773901559E+02  0.19585719727E+02  0.31030917841E+02  0.00000000000E+00 0. -1.
</event>
<event>
 7    1  0.2651429E-009  0.1582075E+03  0.7561462E-02  0.1190735E+00
          1   -1    0    0  501    0  0.00000000000E+00  0.00000000000E+00  0.97257779988E+03  0.97257779988E+03  0.00000000000E+00 0. -1.
         -1   -1    0    0    0  501 -0.00000000000E+00 -0.00000000000E+00 -0.34078709535E+02  0.34078709535E+02  0.00000000000E+00 0.  1.
         25    2    1    2    0    0  0.37428978831E+02 -0.11565559635E+03  0.70891077538E+03  0.73005411443E+03  0.12508947646E+03 0.  0.
          5    1    3    3  502    0  0.39907504163E+02  0.65708017770E+01  0.31429762041E+03  0.31691678864E+03  0.41800000000E+01 0.  1.
         -5    1    3    3    0  502 -0.24785253319E+01 -0.12222639813E+03  0.39461315496E+03  0.41313732579E+03  0.41800000000E+01 0.  1.
        -11    1    1    2    0    0  0.16859947107E+02  0.93148937597E+02  0.15533017791E+03  0.18190229949E+03  0.00000000000E+00 0.  1.
         11    1    1    2    0    0 -0.54288925938E+02  0.22506658752E+02  0.74258137061E+02  0.94700095498E+02  0.00000000000E+00 0. -1.
</event>
<event>
 7    1  0.2651429E-009  0.2874754E+03  0.7561462E-02  0.1091675E+00
         -2   -1    0    0    0  501 -0.00000000000E+00  0.00000000000E+00  0.12217527872E+03  0.12217527872E+03  0.00000000000E+00 0. -1.
          2   -1    0    0  501    0  0.00000000000E+00 -0.00000000000E+00 -0.76320816648E+03  0.76320816648E+03  0.00000000000E+00 0.  1.
         25    2    1    2    0    0  0.26053053965E+02 -0.27695857009E+03 -0.41802889602E+03  0.51747540421E+03  0.12509126621E+03 0.  0.
          5    1    3    3  502    0  0.38839450068E+02 -0.27542716721E+03 -0.34490654413E+03  0.44311017129E+03  0.41800000000E+01 0.  1.
         -5    1    3    3    0  502 -0.12786396103E+02 -0.15314028770E+01 -0.73122351890E+02  0.74365232912E+02  0.41800000000E+01 0.  1.
        -11    1    1    2    0    0 -0.14594427379E+02  0.26871791708E+03 -0.22822593095E+03  0.35285888373E+03  0.00000000000E+00 0.  1.
         11    1    1    2    0    0 -0.11458626586E+02  0.82406530105E+01  0.52219392026E+01  0.15049157263E+02  0.00000000000E+00 0. -1.
</event>
<event>
 7    1  0.2651429E-009  0.1140641E+03  0.7561462E-02  0.1253224E+00
         -2   -1    0    0    0  501 -0.00000000000E+00  0.00000000000E+00  0.14321242435E+03  0.14321242435E+03  0.00000000000E+00 0. -1.
          2   -1    0    0  501    0  0.00000000000E+00 -0.00000000000E+00 -0.18075045265E+03  0.18075045265E+03  0.00000000000E+00 0.  1.
         25    2    1    2    0    0 -0.56992121754E+02 -0.77672973247E+02 -0.89315006764E+02  0.18139998342E+03  0.12509033070E+03 0.  0.
          5    1    3    3  502    0 -0.42239775329E+02 -0.57687528635E+02 -0.12119118628E+03  0.14077224730E+03  0.41800000000E+01 0.  1.
         -5    1    3    3    0  502 -0.14752346425E+02 -0.19985444612E+02  0.31876179512E+02  0.40627736113E+02  0.41800000000E+01 0.  1.
        -11    1    1    2    0    0  0.58700880142E+02  0.53164208148E+01  0.12635939264E+02  0.60280383383E+02  0.00000000000E+00 0.  1.
         11    1    1    2    0    0 -0.17087583882E+01  0.72356552432E+02  0.39141039195E+02  0.82282510197E+02  0.00000000000E+00 0. -1.
</event>
<event>
 7    1  0.2651429E-009  0.9480839E+02  0.7561462E-02  0.1291608E+00
          2   -1    0    0  501    0  0.00000000000E+00  0.00000000000E+00  0.55452406292E+03  0.55452406292E+03  0.00000000000E+00 0. -1.
         -2   -1    0    0    0  501 -0.00000000000E+00 -0.00000000000E+00 -0.27211554807E+02  0.27211554807E+02  0.00000000000E+00 0.  1.
         25    2    1    2    0    0  0.12096483752E+01 -0.26539412222E+02  0.41501822592E+03  0.43427124487E+03  0.12508230340E+03 0.  0.
          5    1    3    3  502    0 -0.45777658373E+02 -0.11237717827E+02  0.63085232440E+02  0.78861265904E+02  0.41800000000E+01 0. -1.
         -5    1    3    3    0  502  0.46987306748E+02 -0.15301694396E+02  0.35193299349E+03  0.35540997897E+03  0.41800000000E+01 0. -1.
        -11    1    1    2    0    0  0.43795843377E+02  0.14095896541E+02  0.73715041400E+02  0.86894634616E+02  0.00000000000E+00 0.  1.
         11    1    1    2    0    0 -0.45005491752E+02  0.12443515681E+02  0.38579240784E+02  0.60569738235E+02  0.00000000000E+00 0. -1.
</event>
<event>
 7    1  0.2651429E-009  0.1115410E+03  0.7561462E-02  0.1257743E+00
         -1   -1    0    0    0  501 -0.00000000000E+00  0.00000000000E+00  0.11069420183E+03  0.11069420183E+03  0.00000000000E+00 0.  1.
          1   -1    0    0  501    0  0.00000000000E+00 -0.00000000000E+00 -0.20530567437E+03  0.20530567437E+03  0.00000000000E+00 0. -1.
         25    2    1    2    0    0  0.69816222378E+02 -0.74200469967E+02 -0.36681028125E+02  0.16545052389E+03  0.12509341862E+03 0.  0.
          5    1    3    3  502    0  0.51680727796E+02 -0.74175339285E+02 -0.78420228033E+02  0.11975008621E+03  0.41800000000E+01 0.  1.
         -5    1    3    3    0  502  0.18135494582E+02 -0.25130681953E-01  0.41739199908E+02  0.45700437681E+02  0.41800000000E+01 0.  1.
        -11    1    1    2    0    0 -0.16607119508E+00  0.33094417072E+02  0.19642516525E+02  0.38485016258E+02  0.00000000000E+00 0.  1.
         11    1    1    2    0    0 -0.69650151183E+02  0.41106052895E+02 -0.77572960943E+02  0.11206433605E+03  0.00000000000E+00 0. -1.
</event>
<event>
 7    1  0.2651429E-009  0.2005742E+03  0.7561462E-02  0.1149255E+00
          2   -1    0    0  501    0  0.00000000000E+00  0.00000000000E+00  0.10534016897E+04  0.10534016897E+04  0.00000000000E+00 0. -1.
         -2   -1    0    0    0  501 -0.00000000000E+00 -0.00000000000E+00 -0.12941095291E+03  0.12941095291E+03  0.00000000000E+00 0.  1.
         25    2    1    2    0    0  0.19395333387E+03  0.21718721038E+02 -0.25577228016E+01  0.23182619632E+03  0.12508894753E+03 0.  0.
          5    1    3    3  502    0  0.12298369679E+03  0.27232117378E+02 -0.60636842890E+02  0.13986020524E+03  0.41800000000E+01 0. -1.
         -5    1    3    3    0  502  0.70969637080E+02 -0.55133963392E+01  0.58079120089E+02  0.91965991088E+02  0.41800000000E+01 0. -1.
        -11    1    1    2    0    0 -0.11025217078E+03 -0.41499020568E+02  0.67340111049E+03  0.68362765120E+03  0.00000000000E+00 0.  1.
         11    1    1    2    0    0 -0.83701163096E+02  0.19780299529E+02  0.25314734915E+03  0.26735879513E+03  0.00000000000E+00 0. -1.
</event>
<event>
 7    1  0.2651429E-009  0.1310498E+03  0.7561462E-02  0.1225906E+00
          1   -1    0    0  501    0  0.00000000000E+00  0.00000000000E+00  0.53291346516E+03  0.53291346516E+03  0.00000000000E+00 0. -1.
         -1   -1    0    0    0  501 -0.00000000000E+00 -0.00000000000E+00 -0.37422746781E+02  0.37422746781E+02  0.00000000000E+00 0.  1.
         25    2    1    2    0    0  0.28489739921E+02 -0.70357322865E+02  0.17344454985E+03  0.22691933913E+03  0.12509019321E+03 0.  0.
          5    1    3    3  502    0 -0.11598756611E+02  0.33072901345E+02  0.40371851346E+02  0.53625616448E+02  0.41800000000E+01 0. -1.
         -5    1    3    3    0  502  0.40088496532E+02 -0.10343022421E+03  0.13307269851E+03  0.17329372269E+03  0.41800000000E+01 0. -1.
        -11    1    1    2    0    0  0.17217449928E+02  0.67872743511E+02  0.23299819727E+03  0.24329264236E+03  0.00000000000E+00 0. -1.
         11    1    1    2    0    0 -0.45707189849E+02  0.24845793548E+01  0.89047971255E+02  0.10012423045E+03  0.00000000000E+00 0.  1.
</event>
<event>
 7    1  0.2651429E-009  0.2319453E+03  0.7561462E-02  0.1125278E+00
          2   -1    0    0  501    0  0.00000000000E+00  0.00000000000E+00  0.57868920596E+03  0.57868920596E+03  0.00000000000E+00 0. -1.
         -2   -1    0    0    0  501 -0.00000000000E+00 -0.00000000000E+00 -0.10542881577E+03  0.10542881577E+03  0.00000000000E+00 0.  1.
         25    2    1    2    0    0 -0.18506045177E+03  0.11801689355E+03  0.28534041020E+03  0.38110684492E+03  0.12509164471E+03 0.  0.
          5    1    3    3  502    0 -0.18864469952E+03  0.85264933756E+02  0.27876178610E+03  0.34724996382E+03  0.41800000000E+01 0.  1.
         -5    1    3    3    0  502  0.35842477506E+01  0.32751959799E+02  0.65786241074E+01  0.33856881099E+02  0.41800000000E+01 0.  1.
        -11    1    1    2    0    0  0.12205104221E+03 -0.52948977331E+02  0.59202602694E+02  0.14561936434E+03  0.00000000000E+00 0.  1.
         11    1    1    2    0    0  0.63009409563E+02 -0.65067916224E+02  0.12871737729E+03  0.15739181247E+03  0.00000000000E+00 0. -1.
</event>
<event>
 7    1  0.2651429E-009  0.1822532E+03  0.7561462E-02  0.1165640E+00
          1   -1    0    0  501    0  0.00000000000E+00  0.00000000000E+00  0.20233690862E+03  0.20233690862E+03  0.00000000000E+00 0. -1.
         -1   -1    0    0    0  501 -0.00000000000E+00 -0.00000000000E+00 -0.18725623013E+03  0.18725623013E+03  0.00000000000E+00 0.  1.
         25    2    1    2    0    0 -0.12022904017E+03 -0.63018260867E+02 -0.41491022737E+02  0.18919676716E+03  0.12509032110E+03 0.  0.
          5    1    3    3  502    0 -0.10984280260E+03  0.10020205869E+02 -0.30310155973E+02  0.11446407194E+03  0.41800000000E+01 0.  1.
         -5    1    3    3    0  502 -0.10386237569E+02 -0.73038466735E+02 -0.11180866764E+02  0.74732695224E+02  0.41800000000E+01 0.  1.
        -11    1    1    2    0    0 -0.21036072276E+02  0.27412021554E+02  0.41400380600E+02  0.53925196118E+02  0.00000000000E+00 0.  1.
         11    1    1    2    0    0  0.14126511245E+03  0.35606239313E+02  0.15171320631E+02  0.14647117547E+03  0.00000000000E+00 0. -1.
</event>
<event>
 7    1  0.2651429E-009  0.1223232E+03  0.7561462E-02  0.1239313E+00
         -1   -1    0    0    0  501 -0.00000000000E+00  0.00000000000E+00  0.23055605970E+03  0.23055605970E+03  0.00000000000E+00 0.  1.
          1   -1    0    0  501    0  0.00000000000E+00 -0.00000000000E+00 -0.85283786785E+02  0.85283786785E+02  0.00000000000E+00 0. -1.
         25    2    1    2    0    0  0.68421019039E+01  0.62969806403E+02  0.10435233509E+02  0.14060033654E+03  0.12509016612E+03 0.  0.
          5    1    3    3  502    0 -0.47323436314E+02 -0.28206240185E+01 -0.17674917318E+02  0.50767495965E+02  0.41800000000E+01 0.  1.
         -5    1    3    3    0  502  0.54165538218E+02  0.65790430421E+02  0.28110150827E+02  0.89832840570E+02  0.41800000000E+01 0.  1.
        -11    1    1    2    0    0  0.33637930327E+02  0.35918217593E+01  0.45661798626E+02  0.56827910343E+02  0.00000000000E+00 0. -1.
         11    1    1    2    0    0 -0.40480032231E+02 -0.66561628162E+02  0.89175240780E+02  0.11841159961E+03  0.00000000000E+00 0.  1.
</event>
<event>
 7    1  0.2651429E-009  0.1070922E+03  0.7561462E-02  0.1266051E+00
          2   -1    0    0  501    0  0.00000000000E+00  0.00000000000E+00  0.82761353819E+02  0.82761353819E+02  0.00000000000E+00 0. -1.
         -2   -1    0    0    0  501 -0.00000000000E+00 -0.00000000000E+00 -0.21382154408E+03  0.21382154408E+03  0.00000000000E+00 0.  1.
         25    2    1    2    0    0 -0.63621276573E+02 -0.29895220197E+02 -0.10693380328E+03  0.17895307985E+03  0.12509186816E+03 0.  0.
          5    1    3    3  502    0  0.89691108324E+01  0.38109736900E+02 -0.11440055119E+02  0.41001759192E+02  0.41800000000E+01 0. -1.
         -5    1    3    3    0  502 -0.72590387405E+02 -0.68004957097E+02 -0.95493748162E+02  0.13795132066E+03  0.41800000000E+01 0. -1.
        -11    1    1    2    0    0  0.28301041610E+02 -0.10141196874E+01  0.33136901797E+02  0.43589352549E+02  0.00000000000E+00 0. -1.
         11    1    1    2    0    0  0.35320234963E+02  0.30909339885E+02 -0.57263288780E+02  0.74040465503E+02  0.00000000000E+00 0.  1.
</event>
<event>
 7    1  0.2651429E-009  0.1570606E+03  0.7561462E-02  0.1192056E+00
          2   -1    0    0  501    0  0.00000000000E+00  0.00000000000E+00  0.33978349131E+02  0.33978349131E+02  0.00000000000E+00 0. -1.
         -2   -1    0    0    0  501 -0.00000000000E+00 -0.00000000000E+00 -0.93029389109E+03  0.93029389109E+03  0.00000000000E+00 0.  1.
         25    2    1    2    0    0 -0.51988270182E+01  0.12215729079E+03 -0.28673530465E+03  0.33587602948E+03  0.12508453442E+03 0.  0.
          5    1    3    3  502    0  0.51878087042E+02  0.51707600984E+02 -0.18775433962E+03  0.20157920617E+03  0.41800000000E+01 0.  1.
         -5    1    3    3    0  502 -0.57076914060E+02  0.70449689807E+02 -0.98980965031E+02  0.13429682331E+03  0.41800000000E+01 0.  1.
        -11    1    1    2    0    0  0.26093261539E+02 -0.12606187625E+03 -0.55697822895E+03  0.57166179028E+03  0.00000000000E+00 0.  1.
         11    1    1    2    0    0 -0.20894434520E+02  0.39045854617E+01 -0.52602008371E+02  0.56734420471E+02  0.00000000000E+00 0. -1.
</event>
<event>
 7    1  0.2651429E-009  0.1198539E+03  0.7561462E-02  0.1243338E+00
          2   -1    0    0  501    0  0.00000000000E+00  0.00000000000E+00  0.11360135403E+04  0.11360135403E+04  0.00000000000E+00 0. -1.
         -2   -1    0    0    0  501 -0.00000000000E+00 -0.00000000000E+00 -0.12828486467E+02  0.12828486467E+02  0.00000000000E+00 0.  1.
         25    2    1    2    0    0 -0.36474284485E+02  0.39252840465E+02  0.60973676038E+03  0.62473716157E+03  0.12508575127E+03 0.  0.
          5    1    3    3  502    0 -0.61598540388E+02 -0.25230200390E+02  0.30761297203E+03  0.31476047425E+03  0.41800000000E+01 0. -1.
         -5    1    3    3    0  502  0.25124255903E+02  0.64483040855E+02  0.30212378835E+03  0.30997668731E+03  0.41800000000E+01 0. -1.
        -11    1    1    2    0    0  0.17540914810E+02 -0.67462816091E+02  0.38381585888E+03  0.39009425627E+03  0.00000000000E+00 0. -1.
         11    1    1    2    0    0  0.18933369675E+02  0.28209975626E+02  0.12963243455E+03  0.13401060891E+03  0.00000000000E+00 0.  1.
</event>
<event>
 7    1  0.2651429E-009  0.1055969E+03  0.7561462E-02  0.1268948E+00
         -2   -1    0    0    0  501 -0.00000000000E+00  0.00000000000E+00  0.19426064216E+02  0.19426064216E+02  0.00000000000E+00 0.  1.
          2   -1    0    0  501    0  0.00000000000E+00 -0.00000000000E+00 -0.67588849964E+03  0.67588849964E+03  0.00000000000E+00 0. -1.
         25    2    1    2    0    0 -0.20459384057E+02  0.29237555014E+02 -0.34078612174E+03  0.36476876996E+03  0.12509058216E+03 0.  0.
          5    1    3    3  502    0 -0.25711235623E+02 -0.38494284077E+02 -0.23073980928E+03  0.23537461531E+03  0.41800000000E+01 0.  1.
         -5    1    3    3    0  502  0.52518515669E+01  0.67731839091E+02 -0.11004631246E+03  0.12939415465E+03  0.41800000000E+01 0.  1.
        -11    1    1    2    0    0 -0.15065333626E+02  0.26541796634E+02 -0.12699957525E+03  0.13061517278E+03  0.00000000000E+00 0. -1.
         11    1    1    2    0    0  0.35524717682E+02 -0.55779351648E+02 -0.18867673843E+03  0.19993062112E+03  0.00000000000E+00 0.  1.
</event>
<event>
 7    1  0.2651429E-009  0.1243124E+03  0.7561462E-02  0.1236148E+00
         -3   -1    0    0    0  501 -0.00000000000E+00  0.00000000000E+00  0.61759906990E+03  0.61759906990E+03  0.00000000000E+00 0.  1.
          3   -1    0    0  501    0  0.00000000000E+00 -0.00000000000E+00 -0.28574155008E+02  0.28574155008E+02  0.00000000000E+00 0. -1.
         25    2    1    2    0    0 -0.52813550352E+02 -0.55763408929E+02  0.31972935017E+03  0.35181340965E+03  0.12508792497E+03 0.  0.
          5    1    3    3  502    0 -0.22545536423E+02 -0.88060755226E+02  0.27090140629E+03  0.28577620991E+03  0.41800000000E+01 0. -1.
         -5    1    3    3    0  502 -0.30268013930E+02  0.32297346297E+02  0.48827943880E+02  0.66037199733E+02  0.41800000000E+01 0. -1.
        -11    1    1    2    0    0  0.26853026588E+02 -0.19738304461E+02  0.12589280648E+03  0.13022935316E+03  0.00000000000E+00 0. -1.
         11    1    1    2    0    0  0.25960523765E+02  0.75501713390E+02  0.14340275824E+03  0.16413046211E+03  0.00000000000E+00 0.  1.
</event>
<event>
 7    1  0.2651429E-009  0.1039230E+03  0.7561462E-02  0.1272256E+00
          2   -1    0    0  501    0  0.00000000000E+00  0.00000000000E+00  0.38784016212E+03  0.38784016212E+03  0.00000000000E+00 0. -1.
         -2   -1    0    0    0  501 -0.00000000000E+00 -0.00000000000E+00 -0.32975488311E+02  0.32975488311E+02  0.00000000000E+00 0.  1.
         25    2    1    2    0    0 -0.11291702935E+02  0.30165387494E+02  0.20631365540E+03  0.24341529493E+03  0.12509287847E+03 0.  0.
          5    1    3    3  502    0  0.19552419520E+01 -0.39683412091E+02  0.14180720006E+03  0.14732735847E+03  0.41800000000E+01 0.  1.
         -5    1    3    3    0  502 -0.13246944887E+02  0.69848799585E+02  0.64506455342E+02  0.96087936460E+02  0.41800000000E+01 0.  1.
        -11    1    1    2    0    0  0.50906697145E+02 -0.87748189145E+01  0.86216799136E+02  0.10050783907E+03  0.00000000000E+00 0.  1.
         11    1    1    2    0    0 -0.39614994211E+02 -0.21390568580E+02  0.62334219278E+02  0.76892516433E+02  0.00000000000E+00 0. -1.
</event>
<event>
 7    1  0.2651429E-009  0.1402538E+03  0.7561462E-02  0.1212988E+00
         -1   -1    0    0    0  501 -0.00000000000E+00  0.00000000000E+00  0.31523155281E+03  0.31523155281E+03  0.00000000000E+00 0.  1.
          1   -1    0    0  501    0  0.00000000000E+00 -0.00000000000E+00 -0.70279023853E+02  0.70279023853E+02  0.00000000000E+00 0. -1.
         25    2    1    2    0    0  0.24146789558E+02  0.94311240196E+02  0.11237769726E+03  0.19430369574E+03  0.12508997507E+03 0.  0.
          5    1    3    3  502    0 -0.45906149821E+02  0.56845541103E+02  0.28060403126E+02  0.78381431208E+02  0.41800000000E+01 0. -1.
         -5    1    3    3    0  502  0.70052939379E+02  0.37465699093E+02  0.84317294130E+02  0.11592226453E+03  0.41800000000E+01 0. -1.
        -11    1    1    2    0    0 -0.47000834312E+02 -0.21930062299E+02  0.20331086975E+02  0.55707801572E+02  0.00000000000E+00 0.  1.
         11    1    1    2    0    0  0.22854044754E+02 -0.72381177897E+02  0.11224374472E+03  0.13549907935E+03  0.00000000000E+00 0. -1.
</event>
<event>
 7    1  0.2651429E-009  0.1120151E+03  0.7561462E-02  0.1256883E+00
          1   -1    0    0  501    0  0.00000000000E+00  0.00000000000E+00  0.52723014949E+03  0.52723014949E+03  0.00000000000E+00 0. -1.
         -1   -1    0    0    0  501 -0.00000000000E+00 -0.00000000000E+00 -0.42564683866E+02  0.42564683866E+02  0.00000000000E+00 0.  1.
         25    2    1    2    0    0 -0.76394138932E+01  0.44062533290E+02  0.86285044424E+02  0.15840656588E+03  0.12509062210E+03 0.  0.
          5    1    3    3  502    0 -0.96015721961E+01  0.82266752601E+02  0.86625602300E+02  0.11992279244E+03  0.41800000000E+01 0.  1.
         -5    1    3    3    0  502  0.19621583029E+01 -0.38204219311E+02 -0.34055787543E+00  0.38483773438E+02  0.41800000000E+01 0.  1.
        -11    1    1    2    0    0 -0.41370699546E+02 -0.31569627911E+02  0.19855423761E+03  0.20526071582E+03  0.00000000000E+00 0.  1.
         11    1    1    2    0    0  0.49010113439E+02 -0.12492905379E+02  0.19982618359E+03  0.20612755166E+03  0.00000000000E+00 0. -1.
</event>
<event>
 7    1  0.2651429E-009  0.1159894E+03  0.7561462E-02  0.1249864E+00
          2   -1    0    0  501    0  0.00000000000E+00  0.00000000000E+00  0.30903167955E+02  0.30903167955E+02  0.00000000000E+00 0. -1.
         -2   -1    0    0    0  501 -0.00000000000E+00 -0.00000000000E+00 -0.60424133031E+03  0.60424133031E+03  0.00000000000E+00 0.  1.
         25    2    1    2    0    0  0.62874616768E+02 -0.21411552241E+02 -0.43246140015E+03  0.45506229570E+03  0.12508860200E+03 0.  0.
          5    1    3    3  502    0  0.39924477993E+02 -0.73667883653E+02 -0.23790426791E+03  0.25226342207E+03  0.41800000000E+01 0.  1.
         -5    1    3    3    0  502  0.22950138776E+02  0.52256331411E+02 -0.19455713224E+03  0.20279887363E+03  0.41800000000E+01 0.  1.
        -11    1    1    2    0    0 -0.71682740073E+02  0.45422656495E+01 -0.50696286155E+02  0.87915646113E+02  0.00000000000E+00 0. -1.
         11    1    1    2    0    0  0.88081233047E+01  0.16869286592E+02 -0.90180476053E+02  0.92166556448E+02  0.00000000000E+00 0.  1.
</event>
<event>
 7    1  0.2651429E-009  0.1047046E+03  0.7561462E-02  0.1270703E+00
          3   -1    0    0  501    0  0.00000000000E+00  0.00000000000E+00  0.12517473669E+03  0.12517473669E+03  0.00000000000E+00 0. -1.
         -3   -1    0    0    0  501 -0.00000000000E+00 -0.00000000000E+00 -0.12336813268E+03  0.12336813268E+03  0.00000000000E+00 0.  1.
         25    2    1    2    0    0  0.41337169155E+02  0.41243181140E+01 -0.42831739955E+02  0.13859103969E+03  0.12508855576E+03 0.  0.
          5    1    3    3  502    0  0.60751920890E+02 -0.45273928722E+02 -0.38725852956E+02  0.85192068885E+02  0.41800000000E+01 0. -1.
         -5    1    3    3    0  502 -0.19414751734E+02  0.49398246836E+02 -0.41058869990E+01  0.53398970808E+02  0.41800000000E+01 0. -1.
        -11    1    1    2    0    0 -0.95242116897E+00  0.28410858212E+02 -0.13986148527E+02  0.31681166662E+02  0.00000000000E+00 0.  1.
         11    1    1    2    0    0 -0.40384747986E+02 -0.32535176326E+02  0.58624492492E+02  0.78270663013E+02  0.00000000000E+00 0. -1.
</event>
<event>
 7    1  0.2651429E-009  0.2380439E+03  0.7561462E-02  0.1121103E+00
         -2   -1    0    0    0  501 -0.00000000000E+00  0.00000000000E+00  0.29003363200E+03  0.29003363200E+03  0.00000000000E+00 0.  1.
          2   -1    0    0  501    0  0.00000000000E+00 -0.00000000000E+00 -0.28015262080E+03  0.28015262080E+03  0.00000000000E+00 0. -1.
         25    2    1    2    0    0 -0.14496869819E+03  0.17402190302E+03  0.13901777390E+03  0.29372303374E+03  0.12509089856E+03 0.  0.
          5    1    3    3  502    0 -0.13559952125E+03  0.12597665562E+03  0.49544752631E+02  0.19164942692E+03  0.41800000000E+01 0.  1.
         -5    1    3    3    0  502 -0.93691769403E+01  0.48045247407E+02  0.89473021270E+02  0.10207360682E+03  0.41800000000E+01 0.  1.
        -11    1    1    2    0    0  0.88663725722E+02 -0.41616632998E+02 -0.32722490857E+02  0.10326646023E+03  0.00000000000E+00 0.  1.
         11    1    1    2    0    0  0.56304972470E+02 -0.13240527003E+03 -0.96414271841E+02  0.17319675883E+03  0.00000000000E+00 0. -1.
</event>
<event>
 6    1  0.2651429E-009  0.1625313E+03  0.7561462E-02  0.1185868E+00
          1   -1    0    0  501    0  0.00000000000E+00  0.00000000000E+00  0.59879146368E+03  0.59879146368E+03  0.00000000000E+00 0. -1.
         -1   -1    0    0    0  501 -0.00000000000E+00 -0.00000000000E+00 -0.47846293553E+02  0.47846293553E+02  0.00000000000E+00 0.  1.
          5    1    1    2  502    0 -0.25464127787E+02 -0.42404147334E+02  0.16479204105E+03  0.17210584739E+03  0.41800000000E+01 0. -1.
         -5    1    1    2    0  502 -0.98156835175E+02  0.63640569909E+02  0.16854496520E+03  0.20520663762E+03  0.41800000000E+01 0. -1.
        -11    1    1    2    0    0  0.95211252747E+02  0.29961923562E+02  0.12873013353E+03  0.16289366713E+03  0.00000000000E+00 0. -1.
         11    1    1    2    0    0  0.28409710215E+02 -0.51198346138E+02  0.88878030349E+02  0.10643160508E+03  0.00000000000E+00 0.  1.
</event>
<event>
 7    1  0.2651429E-009  0.1803792E+03  0.7561462E-02  0.1167437E+00
          1   -1    0    0  501    0  0.00000000000E+00  0.00000000000E+00  0.69281996232E+03  0.69281996232E+03  0.00000000000E+00 0. -1.
         -1   -1    0    0    0  501 -0.00000000000E+00 -0.00000000000E+00 -0.75905745806E+02  0.75905745806E+02  0.00000000000E+00 0.  1.
         25    2    1    2    0    0  0.11601766103E+03  0.95273854859E+02  0.54673281332E+03  0.58060442089E+03  0.12509004481E+03 0.  0.
          5    1    3    3  502    0  0.49840981718E+02 -0.20055651520E+02  0.90072601105E+02  0.10496141427E+03  0.41800000000E+01 0. -1.
         -5    1    3    3    0  502  0.66176679313E+02  0.11532950638E+03  0.45666021221E+03  0.47564300662E+03  0.41800000000E+01 0. -1.
        -11    1    1    2    0    0 -0.87150392510E+01 -0.60378631920E+02  0.32757058802E+02  0.69242732492E+02  0.00000000000E+00 0.  1.
         11    1    1    2    0    0 -0.10730262178E+03 -0.34895222939E+02  0.37424344397E+02  0.11887855475E+03  0.00000000000E+00 0. -1.
</event>
<event>
 7    1  0.2651429E-009  0.1835450E+03  0.7561462E-02  0.1164416E+00
         -2   -1    0    0    0  501 -0.00000000000E+00  0.00000000000E+00  0.34026214212E+02  0.34026214212E+02  0.00000000000E+00 0.  1.
          2   -1    0    0  501    0  0.00000000000E+00 -0.00000000000E+00 -0.11388791489E+04  0.11388791489E+04  0.00000000000E+00 0. -1.
         25    2    1    2    0    0  0.15242234506E+03 -0.41997833787E+02 -0.71391661605E+03  0.74183016728E+03  0.12505468048E+03 0.  0.
          5    1    3    3  502    0  0.79725655986E+02  0.30075578403E+02 -0.19422465470E+03  0.21213535663E+03  0.41800000000E+01 0.  1.
         -5    1    3    3    0  502  0.72696689072E+02 -0.72073412190E+02 -0.51969196134E+03  0.52969481065E+03  0.41800000000E+01 0.  1.
        -11    1    1    2    0    0 -0.72895609454E+02 -0.23188324660E+02 -0.20147259319E+03  0.21550562426E+03  0.00000000000E+00 0. -1.
         11    1    1    2    0    0 -0.79526735604E+02  0.65186158448E+02 -0.18946372549E+03  0.21556957161E+03  0.00000000000E+00 0.  1.
</event>
<event>
 7    1  0.2651429E-009  0.6576054E+02  0.7561462E-02  0.1375133E+00
         -1   -1    0    0    0  501 -0.00000000000E+00  0.00000000000E+00  0.53473060898E+02  0.53473060898E+02  0.00000000000E+00 0.  1.
          1   -1    0    0  501    0  0.00000000000E+00 -0.00000000000E+00 -0.49520310934E+03  0.49520310934E+03  0.00000000000E+00 0. -1.
         25    2    1    2    0    0  0.13330720127E+02 -0.37129693353E+02 -0.43463245122E+03  0.45399047614E+03  0.12508262289E+03 0.  0.
          5    1    3    3  502    0  0.48443746644E+02 -0.22557250772E+02 -0.74204944774E+02  0.91539458051E+02  0.41800000000E+01 0.  1.
         -5    1    3    3    0  502 -0.35113026518E+02 -0.14572442581E+02 -0.36042750645E+03  0.36245101809E+03  0.41800000000E+01 0.  1.
        -11    1    1    2    0    0 -0.44721621848E+01  0.18676520008E+02  0.39427983328E+02  0.43856339377E+02  0.00000000000E+00 0.  1.
         11    1    1    2    0    0 -0.88585579419E+01  0.18453173345E+02 -0.46525580556E+02  0.50829354721E+02  0.00000000000E+00 0. -1.
</event>
<event>
 7    1  0.2651429E-009  0.1174021E+03  0.7561462E-02  0.1247445E+00
          1   -1    0    0  501    0  0.00000000000E+00  0.00000000000E+00  0.76015911631E+03  0.76015911631E+03  0.00000000000E+00 0. -1.
         -1   -1    0    0    0  501 -0.00000000000E+00 -0.00000000000E+00 -0.27498311676E+02  0.27498311676E+02  0.00000000000E+00 0.  1.
         25    2    1    2    0    0  0.27428552075E+02  0.56202179499E+02  0.59635150424E+03  0.61253115335E+03  0.12509311237E+03 0.  0.
          5    1    3    3  502    0  0.67085184298E+02  0.17466853847E+02  0.18807918574E+03  0.20049131015E+03  0.41800000000E+01 0.  1.
         -5    1    3    3    0  502 -0.39656632222E+02  0.38735325653E+02  0.40827231849E+03  0.41203984320E+03  0.41800000000E+01 0.  1.
        -11    1    1    2    0    0  0.26429695840E+02 -0.48667679380E+02  0.63680742816E+02  0.84393772543E+02  0.00000000000E+00 0.  1.
         11    1    1    2    0    0 -0.53858247915E+02 -0.75345001190E+01  0.72628557575E+02  0.90732502092E+02  0.00000000000E+00 0. -1.
</event>
<event>
 7    1  0.3249558E-009  0.1072781E+03  0.7561462E-02  0.1265695E+00
          2   -1    0    0  501    0  0.00000000000E+00  0.00000000000E+00  0.31303086649E+03  0.31303086649E+03  0.00000000000E+00 0. -1.
         -2   -1    0    0    0  501 -0.00000000000E+00 -0.00000000000E+00 -0.47730233401E+02  0.47730233401E+02  0.00000000000E+00 0.  1.
         25    2    1    2    0    0  0.30452374583E+02  0.20475493622E+02  0.86418318673E+02  0.15640422316E+03  0.12509021649E+03 0.  0.
          5    1    3    3  502    0  0.10226733647E+02  0.65621313341E+02  0.83361270661E+02  0.10666450530E+03  0.41800000000E+01 0.  1.
         -5    1    3    3    0  502  0.20225640936E+02 -0.45145819719E+02  0.30570480122E+01  0.49739717851E+02  0.41800000000E+01 0.  1.
        -11    1    1    2    0    0 -0.19772605577E+02  0.35901434535E+02  0.65154732756E+02  0.76974074424E+02  0.00000000000E+00 0.  1.
         11    1    1    2    0    0 -0.10679769006E+02 -0.56376928157E+02  0.11372758166E+03  0.12738280231E+03  0.00000000000E+00 0. -1.
</event>
<event>
 7    1  0.2651429E-009  0.1323702E+03  0.7561462E-02  0.1223981E+00
         -2   -1    0    0    0  501 -0.00000000000E+00  0.00000000000E+00  0.51046186835E+03  0.51046186835E+03  0.00000000000E+00 0.  1.
          2   -1    0    0  501    0  0.00000000000E+00 -0.00000000000E+00 -0.36658441960E+02  0.36658441960E+02  0.00000000000E+00 0. -1.
         25    2    1    2    0    0 -0.72918251827E+02 -0.39560952345E+02  0.27651767504E+03  0.31462958801E+03  0.12509041786E+03 0.  0.
          5    1    3    3  502    0 -0.62426089988E+02 -0.82433319718E+02  0.16683519387E+03  0.19632555418E+03  0.41800000000E+01 0.  1.
         -5    1    3    3    0  502 -0.10492161838E+02  0.42872367373E+02  0.10968248117E+03  0.11830403382E+03  0.41800000000E+01 0.  1.
        -11    1    1    2    0    0 -0.12379283478E+02 -0.12005145557E+02  0.90036123875E+01  0.19453411405E+02  0.00000000000E+00 0. -1.
         11    1    1    2    0    0  0.85297535304E+02  0.51566097901E+02  0.18828213896E+03  0.21303731089E+03  0.00000000000E+00 0.  1.
</event>
<event>
 7    1  0.3059549E-009  0.9370591E+02  0.7561462E-02  0.1294118E+00
         -2   -1    0    0    0  501 -0.00000000000E+00  0.00000000000E+00  0.37643195421E+02  0.37643195421E+02  0.00000000000E+00 0.  1.
          2   -1    0    0  501    0  0.00000000000E+00 -0.00000000000E+00 -0.57704564390E+03  0.57704564390E+03  0.00000000000E+00 0. -1.
         25    2    1    2    0    0  0.65987544295E+02 -0.58269042743E+02 -0.39024036916E+03  0.41914757731E+03  0.12509000158E+03 0.  0.
          5    1    3    3  502    0  0.15816722695E+02 -0.43448731017E+02 -0.34986728215E+03  0.35293419849E+03  0.41800000000E+01 0.  1.
         -5    1    3    3    0  502  0.50170821601E+02 -0.14820311725E+02 -0.40373087006E+02  0.66213378815E+02  0.41800000000E+01 0.  1.
        -11    1    1    2    0    0 -0.14713746067E+02  0.18367412616E+02 -0.12344172354E+03  0.12566509173E+03  0.00000000000E+00 0. -1.
         11    1    1    2    0    0 -0.51273798228E+02  0.39901630126E+02 -0.25720355778E+02  0.69876170279E+02  0.00000000000E+00 0.  1.
</event>
<event>
 7    1  0.2651429E-009  0.2448232E+03  0.7561462E-02  0.1116621E+00
          4   -1    0    0  501    0  0.00000000000E+00  0.00000000000E+00  0.55201140306E+02  0.55201140306E+02  0.00000000000E+00 0.  1.
         -4   -1    0    0    0  501 -0.00000000000E+00 -0.00000000000E+00 -0.11620941352E+04  0.11620941352E+04  0.00000000000E+00 0. -1.
         25    2    1    2    0    0 -0.22461612732E+03 -0.37147098990E+02 -0.52130181742E+03  0.58243894237E+03  0.12508886891E+03 0.  0.
          5    1    3    3  502    0 -0.11073501920E+03  0.36704697783E+02 -0.17397572917E+03  0.20951015741E+03  0.41800000000E+01 0.  1.
         -5    1    3    3    0  502 -0.11388110812E+03 -0.73851796772E+02 -0.34732608825E+03  0.37292878496E+03  0.41800000000E+01 0.  1.
        -11    1    1    2    0    0  0.67848003552E+02 -0.19227363778E+02 -0.10746257767E+03  0.12853500964E+03  0.00000000000E+00 0.  1.
         11    1    1    2    0    0  0.15676812376E+03  0.56374462768E+02 -0.47812859986E+03  0.50632132355E+03  0.00000000000E+00 0. -1.
</event>
<event>
 7    1  0.2651429E-009  0.1332119E+03  0.7561462E-02  0.1222766E+00
         -2   -1    0    0    0  501 -0.00000000000E+00  0.00000000000E+00  0.38192144714E+02  0.38192144714E+02  0.00000000000E+00 0.  1.
          2   -1    0    0  501    0  0.00000000000E+00 -0.00000000000E+00 -0.52929883489E+03  0.52929883489E+03  0.00000000000E+00 0. -1.
         25    2    1    2    0    0 -0.80036840047E+02 -0.28044522968E+02 -0.34360504675E+03  0.37537193695E+03  0.12508905574E+03 0.  0.
          5    1    3    3  502    0  0.31028775373E+02 -0.76999292471E+01 -0.12746574114E+03  0.13148026991E+03  0.41800000000E+01 0.  1.
         -5    1    3    3    0  502 -0.11106561542E+03 -0.20344593721E+02 -0.21613930562E+03  0.24389166705E+03  0.41800000000E+01 0.  1.
        -11    1    1    2    0    0  0.37927355510E+02  0.58150694708E+02 -0.67501371947E+02  0.96831930713E+02  0.00000000000E+00 0. -1.
         11    1    1    2    0    0  0.42109484537E+02 -0.30106171739E+02 -0.80000271472E+02  0.95287111932E+02  0.00000000000E+00 0.  1.
</event>
<event>
 7    1  0.2651429E-009  0.7247878E+02  0.7561462E-02  0.1351861E+00
          1   -1    0    0  501    0  0.00000000000E+00  0.00000000000E+00  0.48827432036E+03  0.48827432036E+03  0.00000000000E+00 0. -1.
         -1   -1    0    0    0  501 -0.00000000000E+00 -0.00000000000E+00 -0.76294100701E+02  0.76294100701E+02  0.00000000000E+00 0.  1.
         25    2    1    2    0    0 -0.20128730520E+02  0.69088082911E+01  0.44679149501E+03  0.46445974873E+03  0.12508925116E+03 0.  0.
          5    1    3    3  502    0 -0.10987407510E+02  0.34138161248E+02  0.30802862868E+02  0.47459729646E+02  0.41800000000E+01 0. -1.
         -5    1    3    3    0  502 -0.91413230098E+01 -0.27229352957E+02  0.41598863214E+03  0.41700001909E+03  0.41800000000E+01 0. -1.
        -11    1    1    2    0    0  0.14054246795E+02  0.34876676046E+02 -0.42973933972E+02  0.57102218749E+02  0.00000000000E+00 0.  1.
         11    1    1    2    0    0  0.60744837247E+01 -0.41785484337E+02  0.81626586243E+01  0.43006453581E+02  0.00000000000E+00 0. -1.
</event>
<event>
 7    1  0.2651429E-009  0.2914695E+03  0.7561462E-02  0.1089584E+00
          1   -1    0    0  501    0  0.00000000000E+00  0.00000000000E+00  0.26766098137E+03  0.26766098137E+03  0.00000000000E+00 0. -1.
         -1   -1    0    0    0  501 -0.00000000000E+00 -0.00000000000E+00 -0.36091395370E+03  0.36091395370E+03  0.00000000000E+00 0.  1.
         25    2    1    2    0    0 -0.85474851197E+02 -0.27091131684E+03  0.15109634005E+02  0.31076429298E+03  0.12508898022E+03 0.  0.
          5    1    3    3  502    0 -0.84065333009E+02 -0.12639900478E+03 -0.38334847596E+02  0.15662286411E+03  0.41800000000E+01 0. -1.
         -5    1    3    3    0  502 -0.14095181883E+01 -0.14451231207E+03  0.53444481601E+02  0.15414142887E+03  0.41800000000E+01 0. -1.
        -11    1    1    2    0    0  0.28407648118E+02  0.15166155023E+03 -0.13083692324E+02  0.15485284400E+03  0.00000000000E+00 0.  1.
         11    1    1    2    0    0  0.57067203079E+02  0.11924976662E+03 -0.95278914008E+02  0.16295779809E+03  0.00000000000E+00 0. -1.
</event>
<event>
 7    1  0.2651429E-009  0.1331890E+03  0.7561462E-02  0.1222799E+00
          2   -1    0    0  501    0  0.00000000000E+00  0.00000000000E+00  0.13735450055E+03  0.13735450055E+03  0.00000000000E+00 0. -1.
         -2   -1    0    0    0  501 -0.00000000000E+00 -0.00000000000E+00 -0.16870714926E+03  0.16870714926E+03  0.00000000000E+00 0.  1.
         25    2    1    2    0    0 -0.69917517425E+02 -0.48472014213E+02 -0.81603989405E+02  0.17188952571E+03  0.12509517400E+03 0.  0.
          5    1    3    3  502    0 -0.53032777236E+01 -0.78903449512E+02 -0.50156205052E+02  0.93738980178E+02  0.41800000000E+01 0.  1.
         -5    1    3    3    0  502 -0.64614239701E+02  0.30431435299E+02 -0.31447784353E+02  0.78150545534E+02  0.41800000000E+01 0.  1.
        -11    1    1    2    0    0  0.34110722120E+02 -0.19154712222E+02 -0.54857303983E+01  0.39503640362E+02  0.00000000000E+00 0.  1.
         11    1    1    2    0    0  0.35806795305E+02  0.67626726435E+02  0.55737071093E+02  0.94668483734E+02  0.00000000000E+00 0. -1.
</event>
<event>
 7    1  0.2651429E-009  0.1010118E+03  0.7561462E-02  0.1278183E+00
         -2   -1    0    0    0  501 -0.00000000000E+00  0.00000000000E+00  0.29017674359E+02  0.29017674359E+02  0.00000000000E+00 0.  1.
          2   -1    0    0  501    0  0.00000000000E+00 -0.00000000000E+00 -0.59738540669E+03  0.59738540669E+03  0.00000000000E+00 0. -1.
         25    2    1    2    0    0  0.34531506637E+02 -0.35497585502E+01 -0.47193937770E+03  0.48947142751E+03  0.12510186407E+03 0.  0.
          5    1    3    3  502    0 -0.41399760647E+02 -0.25627092390E+01 -0.79886572586E+02  0.90110180001E+02  0.41800000000E+01 0.  1.
         -5    1    3    3    0  502  0.75931267284E+02 -0.98704931118E+00 -0.39205280511E+03  0.39936124751E+03  0.41800000000E+01 0.  1.
        -11    1    1    2    0    0 -0.42470610329E+02  0.32997460188E+02 -0.25090180695E+02  0.59347302280E+02  0.00000000000E+00 0.  1.
         11    1    1    2    0    0  0.79391036919E+01 -0.29447701638E+02 -0.71338173937E+02  0.77584351257E+02  0.00000000000E+00 0. -1.
</event>
<event>
 7    1  0.2651429E-009  0.1064165E+03  0.7561462E-02  0.1267354E+00
          1   -1    0    0  501    0  0.00000000000E+00  0.00000000000E+00  0.41056613551E+03  0.41056613551E+03  0.00000000000E+00 0. -1.
         -1   -1    0    0    0  501 -0.00000000000E+00 -0.00000000000E+00 -0.59556614306E+02  0.59556614306E+02  0.00000000000E+00 0.  1.
         25    2    1    2    0    0  0.71161711037E+01 -0.43456953226E+02  0.34291068203E+03  0.36765965045E+03  0.12508691397E+03 0.  0.
          5    1    3    3  502    0 -0.47728943258E+02  0.38231676938E+01  0.21783727984E+03  0.22307671668E+03  0.41800000000E+01 0. -1.
         -5    1    3    3    0  502  0.54845114361E+02 -0.47280120920E+02  0.12507340219E+03  0.14458293377E+03  0.41800000000E+01 0. -1.
        -11    1    1    2    0    0 -0.36709396832E+02  0.49902447055E+02 -0.15741324105E+02  0.63918880797E+02  0.00000000000E+00 0.  1.
         11    1    1    2    0    0  0.29593225728E+02 -0.64454938286E+01  0.23840163279E+02  0.38544218566E+02  0.00000000000E+00 0. -1.
</event>
<event>
 7    1  0.2651429E-009  0.1017447E+03  0.7561462E-02  0.1276669E+00
          2   -1    0    0  501    0  0.00000000000E+00  0.00000000000E+00  0.50998916091E+03  0.50998916091E+03  0.00000000000E+00 0. -1.
         -2   -1    0    0    0  501 -0.00000000000E+00 -0.00000000000E+00 -0.23624637260E+02  0.23624637260E+02  0.00000000000E+00 0.  1.
         25    2    1    2    0    0  0.12950924011E+02  0.23063394934E+02  0.28513181120E+03  0.31247893331E+03  0.12507312815E+03 0.  0.
          5    1    3    3  502    0 -0.49222750724E+02  0.33348769930E+02  0.18234687696E+03  0.19184075579E+03  0.41800000000E+01 0.  1.
         -5    1    3    3    0  502  0.62173674735E+02 -0.10285374995E+02  0.10278493424E+03  0.12063817752E+03  0.41800000000E+01 0.  1.
        -11    1    1    2    0    0 -0.41018643372E+02 -0.31166109811E+02  0.71329578503E+02  0.87987296096E+02  0.00000000000E+00 0.  1.
         11    1    1    2    0    0  0.28067719361E+02  0.81027148770E+01  0.12990313394E+03  0.13314756876E+03  0.00000000000E+00 0. -1.
</event>
<event>
 7    1  0.2651429E-009  0.1347984E+03  0.7561462E-02  0.1220505E+00
          2   -1    0    0  501    0  0.00000000000E+00  0.00000000000E+00  0.39807267787E+03  0.39807267787E+03  0.00000000000E+00 0. -1.
         -2   -1    0    0    0  501 -0.00000000000E+00 -0.00000000000E+00 -0.59547707378E+02  0.59547707378E+02  0.00000000000E+00 0.  1.
         25    2    1    2    0    0  0.34938700269E+02  0.10056875072E+03  0.21578687210E+03  0.27119561365E+03  0.12509316647E+03 0.  0.
          5    1    3    3  502    0  0.15905262348E+02 -0.87826805150E+01 -0.88200955882E+01  0.20624726267E+02  0.41800000000E+01 0. -1.
         -5    1    3    3    0  502  0.19033437921E+02  0.10935143123E+03  0.22460696769E+03  0.25057088739E+03  0.41800000000E+01 0. -1.
        -11    1    1    2    0    0  0.29930785364E+02 -0.47139515269E+02  0.56303237579E+02  0.79297164982E+02  0.00000000000E+00 0.  1.
         11    1    1    2    0    0 -0.64869485633E+02 -0.53429235450E+02  0.66434860813E+02  0.10712760661E+03  0.00000000000E+00 0. -1.
</event>
<event>
 7    1  0.2651429E-009  0.1248850E+03  0.7561462E-02  0.1235249E+00
          2   -1    0    0  501    0  0.00000000000E+00  0.00000000000E+00  0.32512591437E+03  0.32512591437E+03  0.00000000000E+00 0. -1.
         -2   -1    0    0    0  501 -0.00000000000E+00 -0.00000000000E+00 -0.58521497185E+02  0.58521497185E+02  0.00000000000E+00 0.  1.
         25    2    1    2    0    0  0.67424435297E+02 -0.27635683429E+02  0.21097604769E+03  0.25586700999E+03  0.12508896286E+03 0.  0.
          5    1    3    3  502    0  0.71196165609E+02  0.35164916780E+02  0.95248221440E+02  0.12407723988E+03  0.41800000000E+01 0. -1.
         -5    1    3    3    0  502 -0.37717303120E+01 -0.62800600208E+02  0.11572782625E+03  0.13178977011E+03  0.41800000000E+01 0. -1.
        -11    1    1    2    0    0 -0.47013093819E+02 -0.23195887218E+02  0.50455491049E+02  0.72760131605E+02  0.00000000000E+00 0. -1.
         11    1    1    2    0    0 -0.20411341478E+02  0.50831570647E+02  0.51728784472E+01  0.55020269962E+02  0.00000000000E+00 0.  1.
</event>
<event>
 7    1  0.2651429E-009  0.2146149E+03  0.7561462E-02  0.1137963E+00
         -2   -1    0    0    0  501 -0.00000000000E+00  0.00000000000E+00  0.24773100504E+03  0.24773100504E+03  0.00000000000E+00 0.  1.
          2   -1    0    0  501    0  0.00000000000E+00 -0.00000000000E+00 -0.19145494544E+03  0.19145494544E+03  0.00000000000E+00 0. -1.
         25    2    1    2    0    0 -0.12422075986E+03  0.13903406745E+03  0.63001478653E+02  0.23319049254E+03  0.12508936967E+03 0.  0.
          5    1    3    3  502    0  0.24419037263E+02  0.32174839810E+02  0.39855924685E+01  0.40802782319E+02  0.41800000000E+01 0. -1.
         -5    1    3    3    0  502 -0.14863979712E+03  0.10685922765E+03  0.59015886185E+02  0.19238771022E+03  0.41800000000E+01 0. -1.
        -11    1    1    2    0    0  0.24666046697E+02 -0.92286055416E+02 -0.93329517321E+01  0.95980382745E+02  0.00000000000E+00 0.  1.
         11    1    1    2    0    0  0.99554713165E+02 -0.46748012039E+02  0.26075326774E+01  0.11001507519E+03  0.00000000000E+00 0. -1.
</event>
<event>
 7    1  0.2651429E-009  0.1029681E+03  0.7561462E-02  0.1274176E+00
          3   -1    0    0  501    0  0.00000000000E+00  0.00000000000E+00  0.13015197045E+03  0.13015197045E+03  0.00000000000E+00 0. -1.
         -3   -1    0    0    0  501 -0.00000000000E+00 -0.00000000000E+00 -0.16625401972E+03  0.16625401972E+03  0.00000000000E+00 0.  1.
         25    2    1    2    0    0 -0.23862322600E+02  0.93151598888E+02 -0.43879468136E+02  0.16376678083E+03  0.12509004743E+03 0.  0.
          5    1    3    3  502    0  0.27324521749E+00  0.36591570353E+02 -0.82971727587E+02  0.90778839289E+02  0.41800000000E+01 0. -1.
         -5    1    3    3    0  502 -0.24135567818E+02  0.56560028535E+02  0.39092259451E+02  0.72987941543E+02  0.41800000000E+01 0. -1.
        -11    1    1    2    0    0 -0.75378514146E+01 -0.64571364683E+02 -0.33749485067E+02  0.73248263346E+02  0.00000000000E+00 0.  1.
         11    1    1    2    0    0  0.31400174015E+02 -0.28580234205E+02  0.41526903930E+02  0.59390945988E+02  0.00000000000E+00 0. -1.
</event>
<event>
 7    1  0.2651429E-009  0.8769516E+02  0.7561462E-02  0.1308531E+00
         -1   -1    0    0    0  501 -0.00000000000E+00  0.00000000000E+00  0.16406163739E+03  0.16406163739E+03  0.00000000000E+00 0.  1.
          1   -1    0    0  501    0  0.00000000000E+00 -0.00000000000E+00 -0.80599101971E+02  0.80599101971E+02  0.00000000000E+00 0. -1.
         25    2    1    2    0    0  0.57194014840E+01 -0.93971379467E+01  0.76224223780E+01  0.12580754734E+03  0.12509364448E+03 0.  0.
          5    1    3    3  502    0 -0.55447536586E+02 -0.25344984996E+02 -0.46296700684E+01  0.61283797392E+02  0.41800000000E+01 0. -1.
         -5    1    3    3    0  502  0.61166938070E+02  0.15947847049E+02  0.12252092446E+02  0.64523749950E+02  0.41800000000E+01 0. -1.
        -11    1    1    2    0    0  0.20345101689E+02 -0.52798908422E+01  0.85007209610E+02  0.87567266120E+02  0.00000000000E+00 0.  1.
         11    1    1    2    0    0 -0.26064503173E+02  0.14677028789E+02 -0.91670965695E+01  0.31285925897E+02  0.00000000000E+00 0. -1.
</event>
<event>
 7    1  0.2651429E-009  0.9411255E+02  0.7561462E-02  0.1293187E+00
         -2   -1    0    0    0  501 -0.00000000000E+00  0.00000000000E+00  0.19738444593E+03  0.19738444593E+03  0.00000000000E+00 0.  1.
          2   -1    0    0  501    0  0.00000000000E+00 -0.00000000000E+00 -0.68642878500E+02  0.68642878500E+02  0.00000000000E+00 0. -1.
         25    2    1    2    0    0 -0.14625075145E+01 -0.40251287135E+02  0.67260588063E+02  0.14763423680E+03  0.12509826587E+03 0.  0.
          5    1    3    3  502    0 -0.33562126552E+02 -0.68446386465E+02  0.11413825255E+02  0.77195025525E+02  0.41800000000E+01 0.  1.
         -5    1    3    3    0  502  0.32099619038E+02  0.28195099330E+02  0.55846762807E+02  0.70439211272E+02  0.41800000000E+01 0.  1.
        -11    1    1    2    0    0  0.28706751313E+02  0.19502033635E+02 -0.12486528876E+02  0.36882520118E+02  0.00000000000E+00 0. -1.
         11    1    1    2    0    0 -0.27244243798E+02  0.20749253499E+02  0.73967508246E+02  0.81510567517E+02  0.00000000000E+00 0.  1.
</event>
<event>
 7    1  0.2651429E-009  0.1141588E+03  0.7561462E-02  0.1253057E+00
          2   -1    0    0  501    0  0.00000000000E+00  0.00000000000E+00  0.30146109081E+03  0.30146109081E+03  0.00000000000E+00 0. -1.
         -2   -1    0    0    0  501 -0.00000000000E+00 -0.00000000000E+00 -0.48914780378E+02  0.48914780378E+02  0.00000000000E+00 0.  1.
         25    2    1    2    0    0 -0.40294588536E+02 -0.32025702925E+02  0.16965214465E+03  0.21698070837E+03  0.12509787411E+03 0.  0.
          5    1    3    3  502    0  0.70778964498E+01  0.38187749011E+02  0.99599219764E+02  0.10698540915E+03  0.41800000000E+01 0. -1.
         -5    1    3    3    0  502 -0.47372484986E+02 -0.70213451936E+02  0.70052924887E+02  0.10999529923E+03  0.41800000000E+01 0. -1.
        -11    1    1    2    0    0  0.60764434006E+02  0.48842060113E+02  0.59878662636E+02  0.98302174519E+02  0.00000000000E+00 0. -1.
         11    1    1    2    0    0 -0.20469845470E+02 -0.16816357188E+02  0.23015503149E+02  0.35092988300E+02  0.00000000000E+00 0.  1.
</event>
<event>
 7    1  0.2651429E-009  0.7091012E+02  0.7561462E-02  0.1357025E+00
          2   -1    0    0  501    0  0.00000000000E+00  0.00000000000E+00  0.68133033408E+03  0.68133033408E+03  0.00000000000E+00 0.  1.
         -2   -1    0    0    0  501 -0.00000000000E+00 -0.00000000000E+00 -0.20874782150E+02  0.20874782150E+02  0.00000000000E+00 0. -1.
         25    2    1    2    0    0  0.42287041324E+02 -0.23272982540E+02  0.34821586372E+03  0.37313751733E+03  0.12508994169E+03 0.  0.
          5    1    3    3  502    0  0.52662252090E+02 -0.49806844966E+01  0.34766318388E+03  0.35168918356E+03  0.41800000000E+01 0. -1.
         -5    1    3    3    0  502 -0.10375210766E+02 -0.18292298044E+02  0.55267984018E+00  0.21448333762E+02  0.41800000000E+01 0. -1.
        -11    1    1    2    0    0  0.31813263293E+01 -0.10310780238E+02 -0.93647241054E+00  0.10830974421E+02  0.00000000000E+00 0. -1.
         11    1    1    2    0    0 -0.45468367653E+02  0.33583762778E+02  0.31317616063E+03  0.31823662449E+03  0.00000000000E+00 0.  1.
</event>
<event>
 7    1  0.2651429E-009  0.1404361E+03  0.7561462E-02  0.1212743E+00
          1   -1    0    0  501    0  0.00000000000E+00  0.00000000000E+00  0.53028973330E+03  0.53028973330E+03  0.00000000000E+00 0. -1.
         -1   -1    0    0    0  501 -0.00000000000E+00 -0.00000000000E+00 -0.48357662134E+02  0.48357662134E+02  0.00000000000E+00 0.  1.
         25    2    1    2    0    0  0.10810375912E+03  0.23048995623E+02  0.18562124429E+03  0.24964014621E+03  0.12508907761E+03 0.  0.
          5    1    3    3  502    0  0.12470271661E+03  0.13937448375E+02  0.19184475404E+03  0.22927473051E+03  0.41800000000E+01 0. -1.
         -5    1    3    3    0  502 -0.16598957495E+02  0.91115472476E+01 -0.62235097536E+01  0.20365415705E+02  0.41800000000E+01 0. -1.
        -11    1    1    2    0    0 -0.73310292470E+02  0.24247731637E+02  0.21698774689E+03  0.23031724593E+03  0.00000000000E+00 0. -1.
         11    1    1    2    0    0 -0.34793466645E+02 -0.47296727260E+02  0.79323079985E+02  0.98690003288E+02  0.00000000000E+00 0.  1.
</event>
<event>
 7    1  0.2651429E-009  0.9612823E+02  0.7561462E-02  0.1288655E+00
          2   -1    0    0  501    0  0.00000000000E+00  0.00000000000E+00  0.59834425531E+02  0.59834425531E+02  0.00000000000E+00 0.  1.
         -2   -1    0    0    0  501 -0.00000000000E+00 -0.00000000000E+00 -0.37418251332E+03  0.37418251332E+03  0.00000000000E+00 0. -1.
         25    2    1    2    0    0  0.31706924625E+02 -0.63426452339E+02 -0.62026966342E+02  0.15659214063E+03  0.12508201321E+03 0.  0.
          5    1    3    3  502    0  0.50835020758E+02 -0.49478813186E+02  0.17772117352E+02  0.73250753204E+02  0.41800000000E+01 0.  1.
         -5    1    3    3    0  502 -0.19128096133E+02 -0.13947639153E+02 -0.79799083695E+02  0.83341387426E+02  0.41800000000E+01 0.  1.
        -11    1    1    2    0    0  0.75218010024E+01  0.56890323888E+02 -0.68546899456E+02  0.89396665863E+02  0.00000000000E+00 0.  1.
         11    1    1    2    0    0 -0.39228725627E+02  0.65361284501E+01 -0.18377422200E+03  0.18802813236E+03  0.00000000000E+00 0. -1.
</event>
<event>
 7    1  0.2651429E-009  0.1349160E+03  0.7561462E-02  0.1220338E+00
          1   -1    0    0  501    0  0.00000000000E+00  0.00000000000E+00  0.18689170817E+03  0.18689170817E+03  0.00000000000E+00 0. -1.
         -1   -1    0    0    0  501 -0.00000000000E+00 -0.00000000000E+00 -0.10980679345E+03  0.10980679345E+03  0.00000000000E+00 0.  1.
         25    2    1    2    0    0  0.82070252278E+02 -0.40360646673E+02  0.35929884392E+02  0.15906858045E+03  0.12508936239E+03 0.  0.
          5    1    3    3  502    0  0.42730740256E+02  0.44100927744E+02  0.17612338567E+02  0.64019331928E+02  0.41800000000E+01 0. -1.
         -5    1    3    3    0  502  0.39339512022E+02 -0.84461574417E+02  0.18317545825E+02  0.95049248519E+02  0.41800000000E+01 0. -1.
        -11    1    1    2    0    0 -0.94590810755E+02  0.31581259781E+02  0.57608587909E+02  0.11516747305E+03  0.00000000000E+00 0.  1.
         11    1    1    2    0    0  0.12520558477E+02  0.87793868922E+01 -0.16453557572E+02  0.22462448120E+02  0.00000000000E+00 0. -1.
</event>
<event>
 7    1  0.2651429E-009  0.1280247E+03  0.7561462E-02  0.1230417E+00
         -3   -1    0    0    0  501 -0.00000000000E+00  0.00000000000E+00  0.12515793362E+03  0.12515793362E+03  0.00000000000E+00 0.  1.
          3   -1    0    0  501    0  0.00000000000E+00 -0.00000000000E+00 -0.18691575640E+03  0.18691575640E+03  0.00000000000E+00 0. -1.
         25    2    1    2    0    0  0.20910450701E+02  0.88931603003E+02  0.24648328558E+02  0.15684936502E+03  0.12509239084E+03 0.  0.
          5    1    3    3  502    0 -0.44433070156E+02  0.76004485055E+02  0.15297908177E+02  0.89456569723E+02  0.41800000000E+01 0. -1.
         -5    1    3    3    0  502  0.65343520858E+02  0.12927117948E+02  0.93504203803E+01  0.67392795296E+02  0.41800000000E+01 0. -1.
        -11    1    1    2    0    0  0.86830840421E+01 -0.56904716199E+02 -0.94713331832E+02  0.11083392035E+03  0.00000000000E+00 0. -1.
         11    1    1    2    0    0 -0.29593534743E+02 -0.32026886803E+02  0.83071804873E+01  0.44390404645E+02  0.00000000000E+00 0.  1.
</event>
<event>
 7    1  0.2651429E-009  0.1680493E+03  0.7561462E-02  0.1179897E+00
          1   -1    0    0  501    0  0.00000000000E+00  0.00000000000E+00  0.64701720575E+03  0.64701720575E+03  0.00000000000E+00 0. -1.
         -1   -1    0    0    0  501 -0.00000000000E+00 -0.00000000000E+00 -0.59663210970E+02  0.59663210970E+02  0.00000000000E+00 0.  1.
         25    2    1    2    0    0  0.10553229604E+03  0.60769353437E+02  0.43825206641E+03  0.47174348118E+03  0.12508820288E+03 0.  0.
          5    1    3    3  502    0  0.93132299295E+02  0.92759751832E+02  0.39535553375E+03  0.41665509381E+03  0.41800000000E+01 0.  1.
         -5    1    3    3    0  502  0.12399996741E+02 -0.31990398395E+02  0.42896532663E+02  0.55088387371E+02  0.41800000000E+01 0.  1.
        -11    1    1    2    0    0 -0.12463191636E+03 -0.21661234954E+02  0.14310809842E+03  0.19100327618E+03  0.00000000000E+00 0. -1.
         11    1    1    2    0    0  0.19099620326E+02 -0.39108118483E+02  0.59938299497E+01  0.43933659366E+02  0.00000000000E+00 0.  1.
</event>
<event>
 7    1  0.2651429E-009  0.1062974E+03  0.7561462E-02  0.1267584E+00
         -1   -1    0    0    0  501 -0.00000000000E+00  0.00000000000E+00  0.78643420742E+02  0.78643420742E+02  0.00000000000E+00 0. -1.
          1   -1    0    0  501    0  0.00000000000E+00 -0.00000000000E+00 -0.18089379378E+03  0.18089379378E+03  0.00000000000E+00 0.  1.
         25    2    1    2    0    0 -0.79591313753E+01 -0.30385604832E+02 -0.99114503862E+02  0.16266297540E+03  0.12509566714E+03 0.  0.
          5    1    3    3  502    0  0.43810776316E+02  0.26837211044E+02 -0.35802586067E+02  0.62760796578E+02  0.41800000000E+01 0.  1.
         -5    1    3    3    0  502 -0.51769907692E+02 -0.57222815875E+02 -0.63311917795E+02  0.99902178825E+02  0.41800000000E+01 0.  1.
        -11    1    1    2    0    0  0.30784217261E+02 -0.14030698910E+02  0.22609449140E+02  0.40690487029E+02  0.00000000000E+00 0. -1.
         11    1    1    2    0    0 -0.22825085886E+02  0.44416303741E+02 -0.25745318318E+02  0.56183752091E+02  0.00000000000E+00 0.  1.
</event>
<event>
 7    1  0.2651429E-009  0.1277955E+03  0.7561462E-02  0.1230764E+00
         -2   -1    0    0    0  501 -0.00000000000E+00  0.00000000000E+00  0.23812679898E+03  0.23812679898E+03  0.00000000000E+00 0.  1.
          2   -1    0    0  501    0  0.00000000000E+00 -0.00000000000E+00 -0.74011127510E+02  0.74011127510E+02  0.00000000000E+00 0. -1.
         25    2    1    2    0    0  0.10643180346E+02 -0.73621532028E+02  0.11383015208E+03  0.18476647584E+03  0.12509172557E+03 0.  0.
          5    1    3    3  502    0 -0.52314095297E+02 -0.88652672872E+01  0.28172882040E+02  0.60220770613E+02  0.41800000000E+01 0. -1.
         -5    1    3    3    0  502  0.62957275643E+02 -0.64756264741E+02  0.85657270043E+02  0.12454570523E+03  0.41800000000E+01 0. -1.
        -11    1    1    2    0    0 -0.27129280951E+02 -0.83152538317E+01  0.30147639770E+02  0.41400742927E+02  0.00000000000E+00 0.  1.
         11    1    1    2    0    0  0.16486100604E+02  0.81936785860E+02  0.20137879613E+02  0.85970707718E+02  0.00000000000E+00 0. -1.
</event>
<event>
 7    1  0.2651429E-009  0.6800052E+02  0.7561462E-02  0.1367027E+00
         -1   -1    0    0    0  501 -0.00000000000E+00  0.00000000000E+00  0.10069683232E+03  0.10069683232E+03  0.00000000000E+00 0.  1.
          1   -1    0    0  501    0  0.00000000000E+00 -0.00000000000E+00 -0.17560632408E+03  0.17560632408E+03  0.00000000000E+00 0. -1.
         25    2    1    2    0    0 -0.47665574496E+01 -0.66740853474E+02 -0.79777795170E+02  0.16275202833E+03  0.12508662810E+03 0.  0.
          5    1    3    3  502    0  0.34362576561E+01 -0.41211987499E+02 -0.11267991907E+03  0.12010192480E+03  0.41800000000E+01 0. -1.
         -5    1    3    3    0  502 -0.82028151057E+01 -0.25528865974E+02  0.32902123897E+02  0.42650103523E+02  0.41800000000E+01 0. -1.
        -11    1    1    2    0    0 -0.25063298637E+00  0.44364233228E+02  0.47591103819E+02  0.65062747940E+02  0.00000000000E+00 0.  1.
         11    1    1    2    0    0  0.50171904360E+01  0.22376620246E+02 -0.42722800404E+02  0.48488380132E+02  0.00000000000E+00 0. -1.
</event>
<event>
 7    1  0.3387211E-009  0.1214219E+03  0.7561462E-02  0.1240770E+00
         -1   -1    0    0    0  501 -0.00000000000E+00  0.00000000000E+00  0.13342549643E+03  0.13342549643E+03  0.00000000000E+00 0.  1.
          1   -1    0    0  501    0  0.00000000000E+00 -0.00000000000E+00 -0.14346316698E+03  0.14346316698E+03  0.00000000000E+00 0. -1.
         25    2    1    2    0    0  0.76327687545E+02  0.26382521899E+02  0.23485119056E+02  0.15073731754E+03  0.12509290441E+03 0.  0.
          5    1    3    3  502    0 -0.22214539392E+02 -0.23666994368E+02 -0.11569502180E+02  0.34712219225E+02  0.41800000000E+01 0. -1.
         -5    1    3    3    0  502  0.98542226937E+02  0.50049516267E+02  0.35054621237E+02  0.11602509831E+03  0.41800000000E+01 0. -1.
        -11    1    1    2    0    0 -0.43253619145E+02  0.15677312353E+02  0.20274182944E+02  0.50276198999E+02  0.00000000000E+00 0.  1.
         11    1    1    2    0    0 -0.33074068400E+02 -0.42059834252E+02 -0.53796972546E+02  0.75875146873E+02  0.00000000000E+00 0. -1.
</event>
<event>
 7    1  0.2651429E-009  0.8869997E+02  0.7561462E-02  0.1306031E+00
         -1   -1    0    0    0  501 -0.00000000000E+00  0.00000000000E+00  0.53284317733E+02  0.53284317733E+02  0.00000000000E+00 0.  1.
          1   -1    0    0  501    0  0.00000000000E+00 -0.00000000000E+00 -0.23150567361E+03  0.23150567361E+03  0.00000000000E+00 0. -1.
         25    2    1    2    0    0 -0.10980803404E+02 -0.15921651621E+02 -0.83152240481E+02  0.15144782818E+03  0.12509225607E+03 0.  0.
          5    1    3    3  502    0  0.42911649848E+02 -0.21512464604E+02 -0.84293626268E+02  0.97093169973E+02  0.41800000000E+01 0.  1.
         -5    1    3    3    0  502 -0.53892453252E+02  0.55908129822E+01  0.11413857871E+01  0.54354658207E+02  0.41800000000E+01 0.  1.
        -11    1    1    2    0    0  0.36220862149E+02 -0.11113645329E+02 -0.87831283567E+02  0.95654578251E+02  0.00000000000E+00 0. -1.
         11    1    1    2    0    0 -0.25240058744E+02  0.27035296950E+02 -0.72378318237E+01  0.37687584907E+02  0.00000000000E+00 0.  1.
</event>
<event>
 7    1  0.2651429E-009  0.1625103E+03  0.7561462E-02  0.1185891E+00
         -1   -1    0    0    0  501 -0.00000000000E+00  0.00000000000E+00  0.10418150683E+03  0.10418150683E+03  0.00000000000E+00 0.  1.
          1   -1    0    0  501    0  0.00000000000E+00 -0.00000000000E+00 -0.40668968539E+03  0.40668968539E+03  0.00000000000E+00 0. -1.
         25    2    1    2    0    0  0.23970586747E+02 -0.12071860598E+03 -0.43211368022E+01  0.17553941961E+03  0.12509134565E+03 0.  0.
          5    1    3    3  502    0 -0.27945405319E+02 -0.11876711364E+03 -0.12733335745E+02  0.12274438154E+03  0.41800000000E+01 0. -1.
         -5    1    3    3    0  502  0.51915992066E+02 -0.19514923436E+01  0.84121989423E+01  0.52795038077E+02  0.41800000000E+01 0. -1.
        -11    1    1    2    0    0 -0.50552115823E+02  0.36089884290E+02 -0.15385904681E+03  0.16592348371E+03  0.00000000000E+00 0.  1.
         11    1    1    2    0    0  0.26581529075E+02  0.84628721689E+02 -0.14432799495E+03  0.16940828890E+03  0.00000000000E+00 0. -1.
</event>
<event>
 7    1  0.4943301E-009  0.1465954E+03  0.7561462E-02  0.1204720E+00
          2   -1    0    0  501    0  0.00000000000E+00  0.00000000000E+00  0.38685358516E+03  0.38685358516E+03  0.00000000000E+00 0. -1.
         -2   -1    0    0    0  501 -0.00000000000E+00 -0.00000000000E+00 -0.10339477445E+03  0.10339477445E+03  0.00000000000E+00 0.  1.
         25    2    1    2    0    0 -0.11828966627E+03  0.20807742044E+01  0.27676261004E+01  0.17218846910E+03  0.12507771332E+03 0.  0.
          5    1    3    3  502    0 -0.27609769027E+02  0.57180527471E+02 -0.12665369515E+02  0.64882941152E+02  0.41800000000E+01 0.  1.
         -5    1    3    3    0  502 -0.90679897241E+02 -0.55099753267E+02  0.15432995615E+02  0.10730552794E+03  0.41800000000E+01 0.  1.
        -11    1    1    2    0    0  0.53717666016E+02  0.16463541792E+02  0.22152430897E+03  0.22853808286E+03  0.00000000000E+00 0. -1.
         11    1    1    2    0    0  0.64572000252E+02 -0.18544315997E+02  0.59166875643E+02  0.89521807654E+02  0.00000000000E+00 0.  1.
</event>
<event>
 7    1  0.2651429E-009  0.1610297E+03  0.7561462E-02  0.1187539E+00
          2   -1    0    0  501    0  0.00000000000E+00  0.00000000000E+00  0.65837264766E+03  0.65837264766E+03  0.00000000000E+00 0. -1.
         -2   -1    0    0    0  501 -0.00000000000E+00 -0.00000000000E+00 -0.43595790261E+02  0.43595790261E+02  0.00000000000E+00 0.  1.
         25    2    1    2    0    0  0.10886585310E+03  0.64683521095E+02  0.31437308371E+03  0.36126796180E+03  0.12509345544E+03 0.  0.
          5    1    3    3  502    0  0.11173552363E+03  0.89116135302E+02  0.30034346579E+03  0.33264122212E+03  0.41800000000E+01 0.  1.
         -5    1    3    3    0  502 -0.28696705307E+01 -0.24432614207E+02  0.14029617919E+02  0.28626739683E+02  0.41800000000E+01 0.  1.
        -11    1    1    2    0    0 -0.74216549647E+02  0.69590625486E+01  0.97370234291E+02  0.12262743298E+03  0.00000000000E+00 0.  1.
         11    1    1    2    0    0 -0.34649303457E+02 -0.71642583644E+02  0.20303353940E+03  0.21807304314E+03  0.00000000000E+00 0. -1.
</event>
<event>
 7    1  0.2651429E-009  0.9746249E+02  0.7561462E-02  0.1285724E+00
         -1   -1    0    0    0  501 -0.00000000000E+00  0.00000000000E+00  0.97370415254E+02  0.97370415254E+02  0.00000000000E+00 0.  1.
          1   -1    0    0  501    0  0.00000000000E+00 -0.00000000000E+00 -0.16709178990E+03  0.16709178990E+03  0.00000000000E+00 0. -1.
         25    2    1    2    0    0  0.23932144955E+02 -0.42369322617E+02 -0.84809833501E+02  0.15876882267E+03  0.12508766579E+03 0.  0.
          5    1    3    3  502    0  0.20648480634E+02 -0.86163589867E+02 -0.45550245454E+02  0.99713696312E+02  0.41800000000E+01 0.  1.
         -5    1    3    3    0  502  0.32836643215E+01  0.43794267250E+02 -0.39259588047E+02  0.59055126356E+02  0.41800000000E+01 0.  1.
        -11    1    1    2    0    0  0.10190139752E+02  0.16061201385E+02  0.47898271950E+02  0.51536837252E+02  0.00000000000E+00 0.  1.
         11    1    1    2    0    0 -0.34122284707E+02  0.26308121232E+02 -0.32809813096E+02  0.54156545235E+02  0.00000000000E+00 0. -1.
</event>
<event>
 7    1  0.2651429E-009  0.2546161E+03  0.7561462E-02  0.1110422E+00
          2   -1    0    0  501    0  0.00000000000E+00  0.00000000000E+00  0.25873125103E+04  0.25873125103E+04  0.00000000000E+00 0. -1.
         -2   -1    0    0    0  501 -0.00000000000E+00 -0.00000000000E+00 -0.29924410394E+02  0.29924410394E+02  0.00000000000E+00 0.  1.
         25    2    1    2    0    0 -0.22502611174E+03  0.11801365431E+03  0.14582007414E+04  0.14854494871E+04  0.12508718197E+03 0.  0.
          5    1    3    3  502    0 -0.60739923320E+02  0.37805690816E+02  0.17228842515E+03  0.18659952407E+03  0.41800000000E+01 0. -1.
         -5    1    3    3    0  502 -0.16428618842E+03  0.80207963496E+02  0.12859123162E+04  0.12988499631E+04  0.41800000000E+01 0. -1.
        -11    1    1    2    0    0  0.53858642399E+02 -0.36876337095E+02  0.14550819987E+03  0.15947806692E+03  0.00000000000E+00 0. -1.
         11    1    1    2    0    0  0.17116746935E+03 -0.81137317217E+02  0.95367915871E+03  0.97230936670E+03  0.00000000000E+00 0.  1.
</event>
<event>
 7    1  0.2651429E-009  0.1362024E+03  0.7561462E-02  0.1218532E+00
         -2   -1    0    0    0  501 -0.00000000000E+00  0.00000000000E+00  0.16194952532E+02  0.16194952532E+02  0.00000000000E+00 0.  1.
          2   -1    0    0  501    0  0.00000000000E+00 -0.00000000000E+00 -0.15795666708E+04  0.15795666708E+04  0.00000000000E+00 0. -1.
         25    2    1    2    0    0  0.47017397904E+02 -0.10846528572E+03 -0.88537966603E+03  0.90195340520E+03  0.12508972067E+03 0.  0.
          5    1    3    3  502    0  0.46666823141E+02 -0.11097443435E+03 -0.88818584618E+03  0.89631729159E+03  0.41800000000E+01 0. -1.
         -5    1    3    3    0  502  0.35057476256E+00  0.25091486302E+01  0.28061801491E+01  0.56361136027E+01  0.41800000000E+01 0. -1.
        -11    1    1    2    0    0  0.26130850663E+02  0.29973340951E+02 -0.16621875705E+03  0.17090903346E+03  0.00000000000E+00 0.  1.
         11    1    1    2    0    0 -0.73148248567E+02  0.78491944767E+02 -0.51177329523E+03  0.52289918472E+03  0.00000000000E+00 0. -1.
</event>
<event>
 7    1  0.2651429E-009  0.2439887E+03  0.7561462E-02  0.1117164E+00
          1   -1    0    0  501    0  0.00000000000E+00  0.00000000000E+00  0.73047625131E+03  0.73047625131E+03  0.00000000000E+00 0. -1.
         -1   -1    0    0    0  501 -0.00000000000E+00 -0.00000000000E+00 -0.10388954902E+03  0.10388954902E+03  0.00000000000E+00 0.  1.
         25    2    1    2    0    0  0.16560398139E+03  0.17468373812E+03  0.20350384847E+03  0.33911831531E+03  0.12509327889E+03 0.  0.
          5    1    3    3  502    0  0.13868878070E+03  0.15182593082E+03  0.21890272881E+03  0.30036905340E+03  0.41800000000E+01 0.  1.
         -5    1    3    3    0  502  0.26915200691E+02  0.22857807300E+02 -0.15398880344E+02  0.38749261911E+02  0.41800000000E+01 0.  1.
        -11    1    1    2    0    0 -0.79180378068E+02 -0.12226206087E+03  0.17710724755E+03  0.22931315037E+03  0.00000000000E+00 0.  1.
         11    1    1    2    0    0 -0.86423603322E+02 -0.52421677245E+02  0.24597560628E+03  0.26593433464E+03  0.00000000000E+00 0. -1.
</event>
<event>
 7    1  0.2651429E-009  0.1176063E+03  0.7561462E-02  0.1247099E+00
          1   -1    0    0  501    0  0.00000000000E+00  0.00000000000E+00  0.37509097282E+03  0.37509097282E+03  0.00000000000E+00 0. -1.
         -1   -1    0    0    0  501 -0.00000000000E+00 -0.00000000000E+00 -0.56363146040E+02  0.56363146040E+02  0.00000000000E+00 0.  1.
         25    2    1    2    0    0 -0.35871784410E+02  0.83239548046E+02  0.11873714315E+03  0.19484146719E+03  0.12509628650E+03 0.  0.
          5    1    3    3  502    0  0.17448779318E+02  0.68475947050E+02  0.83291970185E+01  0.71275964722E+02  0.41800000000E+01 0. -1.
         -5    1    3    3    0  502 -0.53320563728E+02  0.14763600996E+02  0.11040794613E+03  0.12356550247E+03  0.41800000000E+01 0. -1.
        -11    1    1    2    0    0 -0.84614128920E+01 -0.56579234716E+02  0.43719674537E+02  0.72001494782E+02  0.00000000000E+00 0.  1.
         11    1    1    2    0    0  0.44333197302E+02 -0.26660313329E+02  0.15627100909E+03  0.16461115689E+03  0.00000000000E+00 0. -1.
</event>
<event>
 7    1  0.2651429E-009  0.1452150E+03  0.7561462E-02  0.1206479E+00
          1   -1    0    0  501    0  0.00000000000E+00  0.00000000000E+00  0.61800114509E+03  0.61800114509E+03  0.00000000000E+00 0. -1.
         -1   -1    0    0    0  501 -0.00000000000E+00 -0.00000000000E+00 -0.45077681934E+02  0.45077681934E+02  0.00000000000E+00 0.  1.
         25    2    1    2    0    0 -0.92007856117E+02  0.52729036603E+02  0.17179719171E+03  0.23750109012E+03  0.12508675325E+03 0.  0.
          5    1    3    3  502    0 -0.11422340937E+03  0.31038038331E+02  0.86588015613E+02  0.14671504326E+03  0.41800000000E+01 0. -1.
         -5    1    3    3    0  502  0.22215553254E+02  0.21690998271E+02  0.85209176097E+02  0.90786046855E+02  0.41800000000E+01 0. -1.
        -11    1    1    2    0    0 -0.64976714151E+01  0.18168627033E+02  0.36546744482E+02  0.41327754285E+02  0.00000000000E+00 0.  1.
         11    1    1    2    0    0  0.98505527532E+02 -0.70897663636E+02  0.36457952696E+03  0.38424998262E+03  0.00000000000E+00 0. -1.
</event>
<event>
 7    1  0.2651429E-009  0.9365981E+02  0.7561462E-02  0.1294223E+00
         -1   -1    0    0    0  501 -0.00000000000E+00  0.00000000000E+00  0.30858545383E+02  0.30858545383E+02  0.00000000000E+00 0.  1.
          1   -1    0    0  501    0  0.00000000000E+00 -0.00000000000E+00 -0.49775862500E+03  0.49775862500E+03  0.00000000000E+00 0. -1.
         25    2    1    2    0    0 -0.73961492469E+01 -0.19907097464E+02 -0.14538959141E+03  0.19296104581E+03  0.12507932025E+03 0.  0.
          5    1    3    3  502    0 -0.34628342878E+02  0.21696487117E+02 -0.19873507251E+01  0.41125194791E+02  0.41800000000E+01 0.  1.
         -5    1    3    3    0  502  0.27232193631E+02 -0.41603584581E+02 -0.14340224069E+03  0.15183585102E+03  0.41800000000E+01 0.  1.
        -11    1    1    2    0    0 -0.51022066897E+01 -0.37370905399E+02 -0.13227905435E+03  0.13755131880E+03  0.00000000000E+00 0. -1.
         11    1    1    2    0    0  0.12498355937E+02  0.57278002862E+02 -0.18923143385E+03  0.19810480577E+03  0.00000000000E+00 0.  1.
</event>
<event>
 7    1  0.2651429E-009  0.1524553E+03  0.7561462E-02  0.1197488E+00
          2   -1    0    0  501    0  0.00000000000E+00  0.00000000000E+00  0.83917575191E+03  0.83917575191E+03  0.00000000000E+00 0. -1.
         -2   -1    0    0    0  501 -0.00000000000E+00 -0.00000000000E+00 -0.33189075745E+02  0.33189075745E+02  0.00000000000E+00 0.  1.
         25    2    1    2    0    0 -0.46582775897E+02  0.11124558296E+03  0.51176932537E+03  0.54046374376E+03  0.12509069188E+03 0.  0.
          5    1    3    3  502    0  0.18240608219E+02  0.79547222727E+02  0.14322061188E+03  0.16489419789E+03  0.41800000000E+01 0. -1.
         -5    1    3    3    0  502 -0.64823384116E+02  0.31698360238E+02  0.36854871349E+03  0.37556954587E+03  0.41800000000E+01 0. -1.
        -11    1    1    2    0    0 -0.26714360613E+02 -0.17593538100E+02  0.39803280515E+02  0.51063595502E+02  0.00000000000E+00 0.  1.
         11    1    1    2    0    0  0.73297136510E+02 -0.93652044865E+02  0.25441407028E+03  0.28083748839E+03  0.00000000000E+00 0. -1.
</event>
<event>
 7    1  0.2651429E-009  0.1037753E+03  0.7561462E-02  0.1272552E+00
          1   -1    0    0  501    0  0.00000000000E+00  0.00000000000E+00  0.11430170540E+03  0.11430170540E+03  0.00000000000E+00 0. -1.
         -1   -1    0    0    0  501 -0.00000000000E+00 -0.00000000000E+00 -0.18668266613E+03  0.18668266613E+03  0.00000000000E+00 0.  1.
         25    2    1    2    0    0  0.33602970610E+02 -0.14825592182E+02 -0.13264045069E+03  0.18598909172E+03  0.12509794268E+03 0.  0.
          5    1    3    3  502    0  0.78000207043E+02 -0.24843739479E+02 -0.10248560642E+03  0.13123267739E+03  0.41800000000E+01 0. -1.
         -5    1    3    3    0  502 -0.44397236433E+02  0.10018147297E+02 -0.30154844271E+02  0.54756414338E+02  0.41800000000E+01 0. -1.
        -11    1    1    2    0    0 -0.56028794672E+02  0.95043411936E+01  0.73741278510E+01  0.57305637554E+02  0.00000000000E+00 0.  1.
         11    1    1    2    0    0  0.22425824062E+02  0.53212509885E+01  0.52885362119E+02  0.57689642254E+02  0.00000000000E+00 0. -1.
</event>
<event>
 7    1  0.2651429E-009  0.1136904E+03  0.7561462E-02  0.1253885E+00
         -1   -1    0    0    0  501 -0.00000000000E+00  0.00000000000E+00  0.56598195679E+03  0.56598195679E+03  0.00000000000E+00 0.  1.
          1   -1    0    0  501    0  0.00000000000E+00 -0.00000000000E+00 -0.25402797892E+02  0.25402797892E+02  0.00000000000E+00 0. -1.
         25    2    1    2    0    0 -0.15753911605E+02  0.48376771662E+02  0.35375212889E+03  0.37865103297E+03  0.12509012075E+03 0.  0.
          5    1    3    3  502    0 -0.59908047089E+02  0.56942854093E+02  0.16528267529E+03  0.18484398256E+03  0.41800000000E+01 0. -1.
         -5    1    3    3    0  502  0.44154135484E+02 -0.85660824316E+01  0.18846945360E+03  0.19380705041E+03  0.41800000000E+01 0. -1.
        -11    1    1    2    0    0  0.17229332435E+02 -0.72887497830E+02  0.11909242035E+03  0.14068561341E+03  0.00000000000E+00 0. -1.
         11    1    1    2    0    0 -0.14754208303E+01  0.24510726168E+02  0.67734609663E+02  0.72048108304E+02  0.00000000000E+00 0.  1.
</event>
<event>
 7    1  0.2651429E-009  0.1149197E+03  0.7561462E-02  0.1251721E+00
          2   -1    0    0  501    0  0.00000000000E+00  0.00000000000E+00  0.19472113633E+03  0.19472113633E+03  0.00000000000E+00 0. -1.
         -2   -1    0    0    0  501 -0.00000000000E+00 -0.00000000000E+00 -0.82039663338E+02  0.82039663338E+02  0.00000000000E+00 0.  1.
         25    2    1    2    0    0 -0.24950099795E+01  0.65789245937E+02  0.42933678939E+02  0.14773273904E+03  0.12508881421E+03 0.  0.
          5    1    3    3  502    0  0.40960327555E+02  0.83682820680E+02  0.20497993220E+02  0.95489282311E+02  0.41800000000E+01 0.  1.
         -5    1    3    3    0  502 -0.43455337534E+02 -0.17893574743E+02  0.22435685720E+02  0.52243456729E+02  0.41800000000E+01 0.  1.
        -11    1    1    2    0    0 -0.28411474498E+02 -0.22689354846E+02 -0.57008957727E+01  0.36803789467E+02  0.00000000000E+00 0.  1.
         11    1    1    2    0    0  0.30906484478E+02 -0.43099891091E+02  0.75448689827E+02  0.92224271163E+02  0.00000000000E+00 0. -1.
</event>
<event>
 7    1  0.3114785E-009  0.1213701E+03  0.7561462E-02  0.1240854E+00
          2   -1    0    0  501    0  0.00000000000E+00  0.00000000000E+00  0.85800387314E+03  0.85800387314E+03  0.00000000000E+00 0. -1.
         -2   -1    0    0    0  501 -0.00000000000E+00 -0.00000000000E+00 -0.20698287090E+02  0.20698287090E+02  0.00000000000E+00 0.  1.
         25    2    1    2    0    0  0.56119279917E+02 -0.52620225419E+02  0.45603012452E+03  0.47909809727E+03  0.12511295152E+03 0.  0.
          5    1    3    3  502    0  0.56663156390E+02  0.21951722655E+02  0.11663917974E+03  0.13158556938E+03  0.41800000000E+01 0. -1.
         -5    1    3    3    0  502 -0.54387647257E+00 -0.74571948074E+02  0.33939094478E+03  0.34751252789E+03  0.41800000000E+01 0. -1.
        -11    1    1    2    0    0 -0.37170962402E+02 -0.12579254511E+02  0.63429145000E+02  0.74586691342E+02  0.00000000000E+00 0.  1.
         11    1    1    2    0    0 -0.18948317515E+02  0.65199479930E+02  0.31784631653E+03  0.32501737161E+03  0.00000000000E+00 0. -1.
</event>
<event>
 7    1  0.2651429E-009  0.1592988E+03  0.7561462E-02  0.1189491E+00
          2   -1    0    0  501    0  0.00000000000E+00  0.00000000000E+00  0.80832482506E+03  0.80832482506E+03  0.00000000000E+00 0. -1.
         -2   -1    0    0    0  501 -0.00000000000E+00 -0.00000000000E+00 -0.34971429007E+02  0.34971429007E+02  0.00000000000E+00 0.  1.
         25    2    1    2    0    0 -0.91075851875E+02  0.88783087534E+02  0.46454382798E+03  0.49762025334E+03  0.12509077105E+03 0.  0.
          5    1    3    3  502    0  0.21882567663E+02 -0.18835258431E+01  0.14554501103E+03  0.14725222264E+03  0.41800000000E+01 0.  1.
         -5    1    3    3    0  502 -0.11295841954E+03  0.90666613377E+02  0.31899881694E+03  0.35036803070E+03  0.41800000000E+01 0.  1.
        -11    1    1    2    0    0  0.10655404432E+03 -0.81912070066E+02  0.24266536344E+03  0.27739832407E+03  0.00000000000E+00 0.  1.
         11    1    1    2    0    0 -0.15478192440E+02 -0.68710174684E+01  0.66144204640E+02  0.68277676657E+02  0.00000000000E+00 0. -1.
</event>
<event>
 7    1  0.2651429E-009  0.1284358E+03  0.7561462E-02  0.1229795E+00
          2   -1    0    0  501    0  0.00000000000E+00  0.00000000000E+00  0.36536249524E+03  0.36536249524E+03  0.00000000000E+00 0. -1.
         -2   -1    0    0    0  501 -0.00000000000E+00 -0.00000000000E+00 -0.96611198183E+02  0.96611198183E+02  0.00000000000E+00 0.  1.
         25    2    1    2    0    0  0.65060550928E+02 -0.64609209095E+02  0.29186364981E+03  0.33050988717E+03  0.12508065500E+03 0.  0.
          5    1    3    3  502    0 -0.26277258342E+02  0.12952263498E+02  0.99788169897E+02  0.10408365235E+03  0.41800000000E+01 0. -1.
         -5    1    3    3    0  502  0.91337809270E+02 -0.77561472593E+02  0.19207547991E+03  0.22642623482E+03  0.41800000000E+01 0. -1.
        -11    1    1    2    0    0 -0.74995211109E+02  0.51693949063E+02 -0.47040062160E+02  0.10251494285E+03  0.00000000000E+00 0.  1.
         11    1    1    2    0    0  0.99346601812E+01  0.12915260032E+02  0.23927709410E+02  0.28948863401E+02  0.00000000000E+00 0. -1.
</event>
<event>
 7    1  0.2651429E-009  0.1555115E+03  0.7561462E-02  0.1193859E+00
         -1   -1    0    0    0  501 -0.00000000000E+00  0.00000000000E+00  0.79047719821E+02  0.79047719821E+02  0.00000000000E+00 0.  1.
          1   -1    0    0  501    0  0.00000000000E+00 -0.00000000000E+00 -0.42444238593E+03  0.42444238593E+03  0.00000000000E+00 0. -1.
         25    2    1    2    0    0 -0.12669433570E+03 -0.64112007385E+02 -0.17642644682E+03  0.25872008465E+03  0.12509191371E+03 0.  0.
          5    1    3    3  502    0 -0.12924987226E+03 -0.61897774383E+02 -0.19349727911E+03  0.24082261807E+03  0.41800000000E+01 0. -1.
         -5    1    3    3    0  502  0.25555365590E+01 -0.22142330024E+01  0.17070832289E+02  0.17897466579E+02  0.41800000000E+01 0. -1.
        -11    1    1    2    0    0  0.95964100986E+02  0.55268910095E+01 -0.14587946890E+03  0.17470110088E+03  0.00000000000E+00 0. -1.
         11    1    1    2    0    0  0.30730234718E+02  0.58585116375E+02 -0.23088750398E+02  0.70068920225E+02  0.00000000000E+00 0.  1.
</event>
<event>
 6    1  0.2651429E-009  0.9177211E+02  0.7561462E-02  0.1298616E+00
          1   -1    0    0  501    0  0.00000000000E+00  0.00000000000E+00  0.11928996482E+03  0.11928996482E+03  0.00000000000E+00 0. -1.
         -1   -1    0    0    0  501 -0.00000000000E+00 -0.00000000000E+00 -0.12348977218E+03  0.12348977218E+03  0.00000000000E+00 0.  1.
          5    1    1    2  502    0  0.55818474250E+02 -0.50999603232E+02  0.46794275791E+02  0.89015943764E+02  0.41800000000E+01 0.  1.
         -5    1    1    2    0  502 -0.10931020638E+02  0.25825083068E+02 -0.36875695634E+02  0.46515711928E+02  0.41800000000E+01 0.  1.
        -11    1    1    2    0    0 -0.52211963935E+02  0.38083186057E+02 -0.41005371782E+02  0.76536649739E+02  0.00000000000E+00 0. -1.
         11    1    1    2    0    0  0.73245103231E+01 -0.12908665893E+02  0.26886984261E+02  0.30711431573E+02  0.00000000000E+00 0.  1.
</event>
<event>
 7    1  0.2651429E-009  0.7785603E+02  0.7561462E-02  0.1335248E+00
         -1   -1    0    0    0  501 -0.00000000000E+00  0.00000000000E+00  0.16227581303E+02  0.16227581303E+02  0.00000000000E+00 0.  1.
          1   -1    0    0  501    0  0.00000000000E+00 -0.00000000000E+00 -0.82060925376E+03  0.82060925376E+03  0.00000000000E+00 0. -1.
         25    2    1    2    0    0 -0.11543945310E+02 -0.34757062361E+02 -0.49914713725E+03  0.51587738761E+03  0.12506117848E+03 0.  0.
          5    1    3    3  502    0 -0.33782648325E+02 -0.83361683253E+01 -0.32064595426E+02  0.47501260089E+02  0.41800000000E+01 0.  1.
         -5    1    3    3    0  502  0.22238703015E+02 -0.26420894036E+02 -0.46708254182E+03  0.46837612752E+03  0.41800000000E+01 0.  1.
        -11    1    1    2    0    0 -0.28599375671E+02 -0.53930963644E+01 -0.38572867070E+02  0.48320553092E+02  0.00000000000E+00 0.  1.
         11    1    1    2    0    0  0.40143320981E+02  0.40150158726E+02 -0.26666166814E+03  0.27263889436E+03  0.00000000000E+00 0. -1.
</event>
<event>
 7    1  0.2651429E-009  0.1390918E+03  0.7561462E-02  0.1214556E+00
         -3   -1    0    0    0  501 -0.00000000000E+00  0.00000000000E+00  0.88604829283E+02  0.88604829283E+02  0.00000000000E+00 0.  1.
          3   -1    0    0  501    0  0.00000000000E+00 -0.00000000000E+00 -0.23665424161E+03  0.23665424161E+03  0.00000000000E+00 0. -1.
         25    2    1    2    0    0 -0.22876600472E+02  0.88127176951E+02 -0.50630133745E+02  0.16278957883E+03  0.12508916167E+03 0.  0.
          5    1    3    3  502    0 -0.60399740461E+02  0.99004324505E+01  0.17201348084E+01  0.61372456968E+02  0.41800000000E+01 0. -1.
         -5    1    3    3    0  502  0.37523139990E+02  0.78226744501E+02 -0.52350268553E+02  0.10141712187E+03  0.41800000000E+01 0. -1.
        -11    1    1    2    0    0 -0.22790775691E+02  0.75073081307E+01 -0.19728024165E+02  0.31064031764E+02  0.00000000000E+00 0. -1.
         11    1    1    2    0    0  0.45667376163E+02 -0.95634485082E+02 -0.77691254414E+02  0.13140546029E+03  0.00000000000E+00 0.  1.
</event>
<event>
 7    1  0.2651429E-009  0.1007499E+03  0.7561462E-02  0.1278727E+00
         -4   -1    0    0    0  501 -0.00000000000E+00  0.00000000000E+00  0.19254307790E+02  0.19254307790E+02  0.00000000000E+00 0. -1.
          4   -1    0    0  501    0  0.00000000000E+00 -0.00000000000E+00 -0.86772723641E+03  0.86772723641E+03  0.00000000000E+00 0.  1.
         25    2    1    2    0    0 -0.22938153653E+02  0.16532092055E+02 -0.69560665248E+03  0.70732996781E+03  0.12509036509E+03 0.  0.
          5    1    3    3  502    0  0.24036784800E+02  0.46580723869E+02 -0.52862112582E+03  0.53122998590E+03  0.41800000000E+01 0. -1.
         -5    1    3    3    0  502 -0.46974938453E+02 -0.30048631814E+02 -0.16698552666E+03  0.17609998191E+03  0.41800000000E+01 0. -1.
        -11    1    1    2    0    0 -0.33814349469E+02  0.24824757907E+00 -0.70921583137E+02  0.78570623083E+02  0.00000000000E+00 0. -1.
         11    1    1    2    0    0  0.56752503122E+02 -0.16780339634E+02 -0.81944693008E+02  0.10108095331E+03  0.00000000000E+00 0.  1.
</event>
<event>
 7    1  0.2651429E-009  0.1858545E+03  0.7561462E-02  0.1162254E+00
          2   -1    0    0  501    0  0.00000000000E+00  0.00000000000E+00  0.17372818810E+03  0.17372818810E+03  0.00000000000E+00 0. -1.
         -2   -1    0    0    0  501 -0.00000000000E+00 -0.00000000000E+00 -0.21222812858E+03  0.21222812858E+03  0.00000000000E+00 0.  1.
         25    2    1    2    0    0  0.15752839087E+03  0.21219713088E+01 -0.24859192754E+02  0.20269467370E+03  0.12508978611E+03 0.  0.
          5    1    3    3  502    0  0.17273304876E+03  0.23196959249E+02 -0.26433235323E+02  0.17632638312E+03  0.41800000000E+01 0. -1.
         -5    1    3    3    0  502 -0.15204657893E+02 -0.21074987940E+02  0.15740425692E+01  0.26368290584E+02  0.41800000000E+01 0. -1.
        -11    1    1    2    0    0 -0.59722390012E+02  0.31638436068E+02 -0.37197254784E+02  0.77145254352E+02  0.00000000000E+00 0.  1.
         11    1    1    2    0    0 -0.97806000860E+02 -0.33760407377E+02  0.23556507060E+02  0.10611638863E+03  0.00000000000E+00 0. -1.
</event>
<event>
 7    1  0.2651429E-009  0.1147913E+03  0.7561462E-02  0.1251946E+00
          1   -1    0    0  501    0  0.00000000000E+00  0.00000000000E+00  0.52886455439E+02  0.52886455439E+02  0.00000000000E+00 0. -1.
         -1   -1    0    0    0  501 -0.00000000000E+00 -0.00000000000E+00 -0.41701429867E+03  0.41701429867E+03  0.00000000000E+00 0.  1.
         25    2    1    2    0    0  0.67387931258E+02  0.45265077804E+02 -0.10036021539E+03  0.17975052373E+03  0.12509203572E+03 0.  0.
          5    1    3    3  502    0 -0.23988459301E+02 -0.21283025001E+02 -0.70185540588E+01  0.33092987685E+02  0.41800000000E+01 0.  1.
         -5    1    3    3    0  502  0.91376390560E+02  0.66548102805E+02 -0.93341661326E+02  0.14665753604E+03  0.41800000000E+01 0.  1.
        -11    1    1    2    0    0 -0.64599930302E+02 -0.34969491452E+02 -0.26858303168E+03  0.27844723240E+03  0.00000000000E+00 0.  1.
         11    1    1    2    0    0 -0.27880009562E+01 -0.10295586352E+02  0.48154038313E+01  0.11702997980E+02  0.00000000000E+00 0. -1.
</event>
<event>
 7    1  0.2651429E-009  0.1196997E+03  0.7561462E-02  0.1243593E+00
         -2   -1    0    0    0  501 -0.00000000000E+00  0.00000000000E+00  0.10478295120E+03  0.10478295120E+03  0.00000000000E+00 0.  1.
          2   -1    0    0  501    0  0.00000000000E+00 -0.00000000000E+00 -0.24519947146E+03  0.24519947146E+03  0.00000000000E+00 0. -1.
         25    2    1    2    0    0 -0.32088837779E+02 -0.81234952573E+02 -0.11441625961E+03  0.19070171304E+03  0.12508897579E+03 0.  0.
          5    1    3    3  502    0 -0.57985071004E+02 -0.83880359833E+02 -0.36404929494E+02  0.10835577749E+03  0.41800000000E+01 0.  1.
         -5    1    3    3    0  502  0.25896233225E+02  0.26454072596E+01 -0.78011330114E+02  0.82345935547E+02  0.41800000000E+01 0.  1.
        -11    1    1    2    0    0 -0.19859382332E+02  0.39980639345E+02 -0.67577750797E+02  0.80991351339E+02  0.00000000000E+00 0. -1.
         11    1    1    2    0    0  0.51948220111E+02  0.41254313228E+02  0.41577490148E+02  0.78289358278E+02  0.00000000000E+00 0.  1.
</event>
<event>
 7    1  0.2651429E-009  0.1050203E+03  0.7561462E-02  0.1270080E+00
         -2   -1    0    0    0  501 -0.00000000000E+00  0.00000000000E+00  0.48291972839E+02  0.48291972839E+02  0.00000000000E+00 0.  1.
          2   -1    0    0  501    0  0.00000000000E+00 -0.00000000000E+00 -0.46138344164E+03  0.46138344164E+03  0.00000000000E+00 0. -1.
         25    2    1    2    0    0  0.98597444379E+02  0.12703622580E+02 -0.21445886307E+03  0.26743737447E+03  0.12508919716E+03 0.  0.
          5    1    3    3  502    0  0.56547830131E+02  0.74836751499E+01 -0.93466694205E+01  0.57952524669E+02  0.41800000000E+01 0.  1.
         -5    1    3    3    0  502  0.42049614248E+02  0.52199474305E+01 -0.20511219365E+03  0.20948484980E+03  0.41800000000E+01 0.  1.
        -11    1    1    2    0    0 -0.39883945140E+02 -0.29026976508E+02 -0.19533782427E+02  0.53055283441E+02  0.00000000000E+00 0. -1.
         11    1    1    2    0    0 -0.58713499238E+02  0.16323353927E+02 -0.17909882330E+03  0.18918275657E+03  0.00000000000E+00 0.  1.
</event>
<event>
 7    1  0.2651429E-009  0.1227070E+03  0.7561462E-02  0.1238697E+00
         -2   -1    0    0    0  501 -0.00000000000E+00  0.00000000000E+00  0.37992158194E+03  0.37992158194E+03  0.00000000000E+00 0.  1.
          2   -1    0    0  501    0  0.00000000000E+00 -0.00000000000E+00 -0.63547051300E+02  0.63547051300E+02  0.00000000000E+00 0. -1.
         25    2    1    2    0    0  0.96240213363E+01 -0.11063684744E+03  0.18121813631E+03  0.24661996149E+03  0.12509300011E+03 0.  0.
          5    1    3    3  502    0  0.20883539051E+02 -0.51820689602E+02  0.17788291089E+03  0.18649747575E+03  0.41800000000E+01 0. -1.
         -5    1    3    3    0  502 -0.11259517715E+02 -0.58816157841E+02  0.33352254205E+01  0.60122485735E+02  0.41800000000E+01 0. -1.
        -11    1    1    2    0    0  0.11106962244E+02  0.10787274350E+03  0.13824962514E+03  0.17570672227E+03  0.00000000000E+00 0.  1.
         11    1    1    2    0    0 -0.20730983580E+02  0.27641039422E+01 -0.30932308147E+01  0.21141949477E+02  0.00000000000E+00 0. -1.
</event>
<event>
 7    1  0.2651429E-009  0.1286973E+03  0.7561462E-02  0.1229402E+00
          2   -1    0    0  501    0  0.00000000000E+00  0.00000000000E+00  0.16759281020E+03  0.16759281020E+03  0.00000000000E+00 0. -1.
         -2   -1    0    0    0  501 -0.00000000000E+00 -0.00000000000E+00 -0.17077884035E+03  0.17077884035E+03  0.00000000000E+00 0.  1.
         25    2    1    2    0    0  0.10143820568E+03 -0.84262864009E+01  0.77756325572E+02  0.17903642252E+03  0.12508909845E+03 0.  0.
          5    1    3    3  502    0  0.96942847152E+02  0.31745339954E+02  0.90516881514E+02  0.13644215061E+03  0.41800000000E+01 0. -1.
         -5    1    3    3    0  502  0.44953585244E+01 -0.40171626355E+02 -0.12760555942E+02  0.42594271918E+02  0.41800000000E+01 0. -1.
        -11    1    1    2    0    0 -0.89201991236E+02  0.26303304485E+02 -0.95448072082E+02  0.13326362419E+03  0.00000000000E+00 0.  1.
         11    1    1    2    0    0 -0.12236214440E+02 -0.17877018084E+02  0.14505716367E+02  0.26071603839E+02  0.00000000000E+00 0. -1.
</event>
<event>
 7    1  0.2651429E-009  0.1349212E+03  0.7561462E-02  0.1220331E+00
          3   -1    0    0  501    0  0.00000000000E+00  0.00000000000E+00  0.66503036293E+03  0.66503036293E+03  0.00000000000E+00 0. -1.
         -3   -1    0    0    0  501 -0.00000000000E+00 -0.00000000000E+00 -0.34383137541E+02  0.34383137541E+02  0.00000000000E+00 0.  1.
         25    2    1    2    0    0  0.55176717893E+02  0.69392477273E+02  0.21177523828E+03  0.26144919886E+03  0.12508855239E+03 0.  0.
          5    1    3    3  502    0 -0.38401861459E+02  0.18390345313E+02  0.36324117250E+02  0.56123271984E+02  0.41800000000E+01 0.  1.
         -5    1    3    3    0  502  0.93578579351E+02  0.51002131961E+02  0.17545112103E+03  0.20532592688E+03  0.41800000000E+01 0.  1.
        -11    1    1    2    0    0 -0.31634261604E+02 -0.85972552366E+02  0.37061829316E+03  0.38177208579E+03  0.00000000000E+00 0. -1.
         11    1    1    2    0    0 -0.23542456289E+02  0.16580075092E+02  0.48253693948E+02  0.56192215812E+02  0.00000000000E+00 0.  1.
</event>
<event>
 7    1  0.2651429E-009  0.8351483E+02  0.7561462E-02  0.1319363E+00
          1   -1    0    0  501    0  0.00000000000E+00  0.00000000000E+00  0.91697895750E+02  0.91697895750E+02  0.00000000000E+00 0. -1.
         -1   -1    0    0    0  501 -0.00000000000E+00 -0.00000000000E+00 -0.15540140019E+03  0.15540140019E+03  0.00000000000E+00 0.  1.
         25    2    1    2    0    0  0.28380766262E+02 -0.37773645543E+02 -0.57062028380E+02  0.14539839379E+03  0.12510915890E+03 0.  0.
          5    1    3    3  502    0 -0.33236382283E+02 -0.42596721626E+02 -0.63079165340E+02  0.83160034275E+02  0.41800000000E+01 0.  1.
         -5    1    3    3    0  502  0.61617148544E+02  0.48230760836E+01  0.60171369601E+01  0.62238359513E+02  0.41800000000E+01 0.  1.
        -11    1    1    2    0    0 -0.15098691060E+02  0.33815230967E+02 -0.46532838130E+02  0.59470541796E+02  0.00000000000E+00 0.  1.
         11    1    1    2    0    0 -0.13282075202E+02  0.39584145763E+01  0.39891362072E+02  0.42230360354E+02  0.00000000000E+00 0. -1.
</event>
<event>
 7    1  0.2651429E-009  0.3439491E+03  0.7561462E-02  0.1065126E+00
          2   -1    0    0  501    0  0.00000000000E+00  0.00000000000E+00  0.29804989775E+04  0.29804989775E+04  0.00000000000E+00 0. -1.
         -2   -1    0    0    0  501 -0.00000000000E+00 -0.00000000000E+00 -0.43720058535E+02  0.43720058535E+02  0.00000000000E+00 0.  1.
         25    2    1    2    0    0  0.24936516272E+03  0.23558216413E+03  0.16092518146E+04  0.16501579382E+04  0.12509147679E+03 0.  0.
          5    1    3    3  502    0  0.85754594712E+02  0.67752350816E+02  0.80638793995E+03  0.81377098354E+03  0.41800000000E+01 0.  1.
         -5    1    3    3    0  502  0.16361056801E+03  0.16782981331E+03  0.80286387468E+03  0.83638695462E+03  0.41800000000E+01 0.  1.
        -11    1    1    2    0    0 -0.11638679094E+03 -0.12852202404E+03  0.50300708879E+03  0.53205256050E+03  0.00000000000E+00 0. -1.
         11    1    1    2    0    0 -0.13297837178E+03 -0.10706014009E+03  0.82452001552E+03  0.84200853734E+03  0.00000000000E+00 0.  1.
</event>
<event>
 7    1  0.2651429E-009  0.1017795E+03  0.7561462E-02  0.1276598E+00
         -2   -1    0    0    0  501 -0.00000000000E+00  0.00000000000E+00  0.22566847494E+02  0.22566847494E+02  0.00000000000E+00 0. -1.
          2   -1    0    0  501    0  0.00000000000E+00 -0.00000000000E+00 -0.57384374847E+03  0.57384374847E+03  0.00000000000E+00 0.  1.
         25    2    1    2    0    0 -0.16047888677E+02  0.27820218161E+01 -0.38546052312E+03  0.40557620150E+03  0.12508783300E+03 0.  0.
          5    1    3    3  502    0  0.25146794370E+02  0.48382958469E+02 -0.26148594966E+03  0.26714349366E+03  0.41800000000E+01 0.  1.
         -5    1    3    3    0  502 -0.41194683046E+02 -0.45600936653E+02 -0.12397457346E+03  0.13843270784E+03  0.41800000000E+01 0.  1.
        -11    1    1    2    0    0  0.44991915483E+02  0.21154411439E+02 -0.12896204116E+03  0.13821356534E+03  0.00000000000E+00 0.  1.
         11    1    1    2    0    0 -0.28944026807E+02 -0.23936433255E+02 -0.36854336695E+02  0.52620829127E+02  0.00000000000E+00 0. -1.
</event>
<event>
 7    1  0.2651429E-009  0.1769180E+03  0.7561462E-02  0.1170820E+00
         -1   -1    0    0    0  501 -0.00000000000E+00  0.00000000000E+00  0.26583308824E+03  0.26583308824E+03  0.00000000000E+00 0.  1.
          1   -1    0    0  501    0  0.00000000000E+00 -0.00000000000E+00 -0.14856648155E+03  0.14856648155E+03  0.00000000000E+00 0. -1.
         25    2    1    2    0    0  0.85446977814E+01 -0.15842424472E+03  0.11303568054E+03  0.23150807176E+03  0.12509064329E+03 0.  0.
          5    1    3    3  502    0 -0.38593193391E+01 -0.16004110293E+03  0.50972012851E+02  0.16805852394E+03  0.41800000000E+01 0. -1.
         -5    1    3    3    0  502  0.12404017120E+02  0.16168582165E+01  0.62063667690E+02  0.63449547818E+02  0.41800000000E+01 0. -1.
        -11    1    1    2    0    0  0.38898459256E+02  0.76983527547E+02 -0.12538010606E+02  0.87159367575E+02  0.00000000000E+00 0. -1.
         11    1    1    2    0    0 -0.47443157037E+02  0.81440717170E+02  0.16768936754E+02  0.95732130461E+02  0.00000000000E+00 0.  1.
</event>
<event>
 7    1  0.2651429E-009  0.1449251E+03  0.7561462E-02  0.1206851E+00
          1   -1    0    0  501    0  0.00000000000E+00  0.00000000000E+00  0.36030805670E+03  0.36030805670E+03  0.00000000000E+00 0. -1.
         -1   -1    0    0    0  501 -0.00000000000E+00 -0.00000000000E+00 -0.74906344285E+02  0.74906344285E+02  0.00000000000E+00 0.  1.
         25    2    1    2    0    0  0.72523805500E+01  0.10062022142E+03  0.58102816499E+02  0.17088083287E+03  0.12508915131E+03 0.  0.
          5    1    3    3  502    0  0.50734339021E+02  0.52555585714E+01  0.43093984258E+00  0.51178629924E+02  0.41800000000E+01 0.  1.
         -5    1    3    3    0  502 -0.43481958471E+02  0.95364662847E+02  0.57671876656E+02  0.11970220294E+03  0.41800000000E+01 0.  1.
        -11    1    1    2    0    0 -0.47239919105E+02 -0.64091547200E+02  0.15185257431E+03  0.17146002655E+03  0.00000000000E+00 0.  1.
         11    1    1    2    0    0  0.39987538554E+02 -0.36528674219E+02  0.75446321606E+02  0.92873541570E+02  0.00000000000E+00 0. -1.
</event>
<event>
 7    1  0.2651429E-009  0.1066809E+03  0.7561462E-02  0.1266843E+00
          1   -1    0    0  501    0  0.00000000000E+00  0.00000000000E+00  0.19484508690E+03  0.19484508690E+03  0.00000000000E+00 0. -1.
         -1   -1    0    0    0  501 -0.00000000000E+00 -0.00000000000E+00 -0.94259603673E+02  0.94259603673E+02  0.00000000000E+00 0.  1.
         25    2    1    2    0    0  0.28468359781E+02  0.61755177852E+02  0.10116606530E+03  0.17464378951E+03  0.12506690588E+03 0.  0.
          5    1    3    3  502    0  0.28267402333E+02  0.95175071275E+02  0.44850106047E+02  0.10902451394E+03  0.41800000000E+01 0. -1.
         -5    1    3    3    0  502  0.20095744799E+00 -0.33419893424E+02  0.56315959250E+02  0.65619275572E+02  0.41800000000E+01 0. -1.
        -11    1    1    2    0    0 -0.11410482575E+02  0.42187078526E+01  0.35378499584E+02  0.37411693911E+02  0.00000000000E+00 0. -1.
         11    1    1    2    0    0 -0.17057877205E+02 -0.65973885704E+02 -0.35959081653E+02  0.77049207153E+02  0.00000000000E+00 0.  1.
</event>
<event>
 7    1  0.2651429E-009  0.1034385E+03  0.7561462E-02  0.1273227E+00
         -3   -1    0    0    0  501 -0.00000000000E+00  0.00000000000E+00  0.62355969029E+02  0.62355969029E+02  0.00000000000E+00 0.  1.
          3   -1    0    0  501    0  0.00000000000E+00 -0.00000000000E+00 -0.25145300387E+03  0.25145300387E+03  0.00000000000E+00 0. -1.
         25    2    1    2    0    0 -0.47648188009E+02 -0.19690572533E+02 -0.14969515726E+03  0.20178305005E+03  0.12509872387E+03 0.  0.
          5    1    3    3  502    0 -0.20125642028E+02  0.41267784523E+02 -0.10482253325E+02  0.47280244725E+02  0.41800000000E+01 0.  1.
         -5    1    3    3    0  502 -0.27522545981E+02 -0.60958357056E+02 -0.13921290393E+03  0.15450280533E+03  0.41800000000E+01 0.  1.
        -11    1    1    2    0    0  0.68620540075E+02  0.63729610654E+01 -0.49869974788E+02  0.85067076700E+02  0.00000000000E+00 0. -1.
         11    1    1    2    0    0 -0.20972352066E+02  0.13317611468E+02  0.10468097207E+02  0.26958846146E+02  0.00000000000E+00 0.  1.
</event>
<event>
 7    1  0.2651429E-009  0.1766715E+03  0.7561462E-02  0.1171064E+00
          2   -1    0    0  501    0  0.00000000000E+00  0.00000000000E+00  0.89397697515E+03  0.89397697515E+03  0.00000000000E+00 0. -1.
         -2   -1    0    0    0  501 -0.00000000000E+00 -0.00000000000E+00 -0.55512341771E+02  0.55512341771E+02  0.00000000000E+00 0.  1.
         25    2    1    2    0    0  0.12407738758E+03  0.11902148445E+03  0.24354926926E+03  0.32330295956E+03  0.12508894927E+03 0.  0.
          5    1    3    3  502    0  0.69787588191E+02  0.10099604214E+03  0.71910767961E+02  0.14233460205E+03  0.41800000000E+01 0.  1.
         -5    1    3    3    0  502  0.54289799391E+02  0.18025442316E+02  0.17163850130E+03  0.18096835750E+03  0.41800000000E+01 0.  1.
        -11    1    1    2    0    0 -0.23610609061E+02 -0.12451740631E+02  0.21245698360E+02  0.34115779396E+02  0.00000000000E+00 0.  1.
         11    1    1    2    0    0 -0.10046677852E+03 -0.10656974382E+03  0.57366966576E+03  0.59207057797E+03  0.00000000000E+00 0. -1.
</event>
<event>
 7    1  0.2651429E-009  0.1090939E+03  0.7561462E-02  0.1262257E+00
          4   -1    0    0  501    0  0.00000000000E+00  0.00000000000E+00  0.72473109536E+02  0.72473109536E+02  0.00000000000E+00 0. -1.
         -4   -1    0    0    0  501 -0.00000000000E+00 -0.00000000000E+00 -0.31288582195E+03  0.31288582195E+03  0.00000000000E+00 0.  1.
         25    2    1    2    0    0 -0.80308997867E+02 -0.61707054819E+02 -0.10525241820E+03  0.19230969302E+03  0.12509057014E+03 0.  0.
          5    1    3    3  502    0 -0.69278248956E+02 -0.26237311595E+02 -0.12843332017E+03  0.14832552858E+03  0.41800000000E+01 0. -1.
         -5    1    3    3    0  502 -0.11030748911E+02 -0.35469743224E+02  0.23180901965E+02  0.43984164444E+02  0.41800000000E+01 0. -1.
        -11    1    1    2    0    0  0.20483774699E+02  0.36159028465E+02 -0.11896041784E+03  0.12601048123E+03  0.00000000000E+00 0.  1.
         11    1    1    2    0    0  0.59825223168E+02  0.25548026355E+02 -0.16199876366E+02  0.67038757238E+02  0.00000000000E+00 0. -1.
</event>
<event>
 7    1  0.2651429E-009  0.1356250E+03  0.7561462E-02  0.1219340E+00
          1   -1    0    0  501    0  0.00000000000E+00  0.00000000000E+00  0.13890256876E+03  0.13890256876E+03  0.00000000000E+00 0. -1.
         -1   -1    0    0    0  501 -0.00000000000E+00 -0.00000000000E+00 -0.21952235294E+03  0.21952235294E+03  0.00000000000E+00 0.  1.
         25    2    1    2    0    0 -0.77213841732E+02  0.81980593632E+02 -0.12156948378E+03  0.20762569116E+03  0.12508594307E+03 0.  0.
          5    1    3    3  502    0 -0.49814284074E+02  0.12642246195E+02  0.13489337676E+02  0.53298441981E+02  0.41800000000E+01 0.  1.
         -5    1    3    3    0  502 -0.27399557658E+02  0.69338347436E+02 -0.13505882146E+03  0.15432724918E+03  0.41800000000E+01 0.  1.
        -11    1    1    2    0    0  0.71431932567E+02 -0.92204292390E+01  0.23387717271E+02  0.75726630882E+02  0.00000000000E+00 0. -1.
         11    1    1    2    0    0  0.57819091647E+01 -0.72760164393E+02  0.17561982338E+02  0.75072599660E+02  0.00000000000E+00 0.  1.
</event>
<event>
 7    1  0.2651429E-009  0.4965569E+03  0.7561462E-02  0.1014682E+00
          3   -1    0    0  501    0  0.00000000000E+00  0.00000000000E+00  0.15217791972E+03  0.15217791972E+03  0.00000000000E+00 0. -1.
         -3   -1    0    0    0  501 -0.00000000000E+00 -0.00000000000E+00 -0.16988797245E+04  0.16988797245E+04  0.00000000000E+00 0.  1.
         25    2    1    2    0    0 -0.30392067449E+03  0.38060935575E+03 -0.60216914970E+03  0.78453000186E+03  0.12509348870E+03 0.  0.
          5    1    3    3  502    0 -0.24875765183E+03  0.22515710382E+03 -0.43812539680E+03  0.55185815792E+03  0.41800000000E+01 0. -1.
         -5    1    3    3    0  502 -0.55163022657E+02  0.15545225193E+03 -0.16404375289E+03  0.23267184394E+03  0.41800000000E+01 0. -1.
        -11    1    1    2    0    0  0.43951761939E+02 -0.10428542907E+03 -0.17247427756E+03  0.20628762569E+03  0.00000000000E+00 0. -1.
         11    1    1    2    0    0  0.25996891255E+03 -0.27632392668E+03 -0.77205837752E+03  0.86024001665E+03  0.00000000000E+00 0.  1.
</event>
<event>
 7    1  0.2651429E-009  0.1355679E+03  0.7561462E-02  0.1219420E+00
          1   -1    0    0  501    0  0.00000000000E+00  0.00000000000E+00  0.89532419763E+02  0.89532419763E+02  0.00000000000E+00 0. -1.
         -1   -1    0    0    0  501 -0.00000000000E+00 -0.00000000000E+00 -0.43868786549E+03  0.43868786549E+03  0.00000000000E+00 0.  1.
         25    2    1    2    0    0 -0.71434151703E+02  0.58777646175E+02  0.71345484693E+00  0.15558943797E+03  0.12509961819E+03 0.  0.
          5    1    3    3  502    0 -0.85195943503E+02  0.25632262071E+01 -0.29344295839E+02  0.90241226810E+02  0.41800000000E+01 0. -1.
         -5    1    3    3    0  502  0.13761791800E+02  0.56214419968E+02  0.30057750686E+02  0.65348211163E+02  0.41800000000E+01 0. -1.
        -11    1    1    2    0    0  0.64564240998E+02  0.39367252151E+01 -0.19297536529E+03  0.20352771465E+03  0.00000000000E+00 0.  1.
         11    1    1    2    0    0  0.68699107053E+01 -0.62714371391E+02 -0.15689353528E+03  0.16910313263E+03  0.00000000000E+00 0. -1.
</event>
<event>
 7    1  0.2651429E-009  0.1083208E+03  0.7561462E-02  0.1263711E+00
         -2   -1    0    0    0  501 -0.00000000000E+00  0.00000000000E+00  0.34267905133E+02  0.34267905133E+02  0.00000000000E+00 0.  1.
          2   -1    0    0  501    0  0.00000000000E+00 -0.00000000000E+00 -0.60018268767E+03  0.60018268767E+03  0.00000000000E+00 0. -1.
         25    2    1    2    0    0  0.36693010855E+02 -0.85583015022E+02 -0.31548856357E+03  0.35191657417E+03  0.12506563049E+03 0.  0.
          5    1    3    3  502    0  0.41784900172E+02 -0.78400195940E+01 -0.23853464522E+03  0.24232971992E+03  0.41800000000E+01 0.  1.
         -5    1    3    3    0  502 -0.50918893176E+01 -0.77742995428E+02 -0.76953918351E+02  0.10958685425E+03  0.41800000000E+01 0.  1.
        -11    1    1    2    0    0 -0.12234674166E+02  0.56924466678E+02 -0.23451622196E+03  0.24163596694E+03  0.00000000000E+00 0. -1.
         11    1    1    2    0    0 -0.24458336689E+02  0.28658548345E+02 -0.15909997010E+02  0.40898051685E+02  0.00000000000E+00 0.  1.
</event>
<event>
 7    1  0.2651429E-009  0.1054889E+03  0.7561462E-02  0.1269159E+00
          2   -1    0    0  501    0  0.00000000000E+00  0.00000000000E+00  0.30499118354E+03  0.30499118354E+03  0.00000000000E+00 0. -1.
         -2   -1    0    0    0  501 -0.00000000000E+00 -0.00000000000E+00 -0.51656631224E+02  0.51656631224E+02  0.00000000000E+00 0.  1.
         25    2    1    2    0    0 -0.17385176796E+02 -0.57500720471E+02  0.17117485432E+03  0.22035799471E+03  0.12509291687E+03 0.  0.
          5    1    3    3  502    0  0.73011115416E+01 -0.77400651509E+02  0.44433588467E+02  0.89643645998E+02  0.41800000000E+01 0.  1.
         -5    1    3    3    0  502 -0.24686288338E+02  0.19899931038E+02  0.12674126586E+03  0.13071434871E+03  0.41800000000E+01 0.  1.
        -11    1    1    2    0    0  0.26968578714E+02  0.75814832621E+02  0.41182792178E+02  0.90394775595E+02  0.00000000000E+00 0.  1.
         11    1    1    2    0    0 -0.95834019179E+01 -0.18314112150E+02  0.40976905816E+02  0.45895044464E+02  0.00000000000E+00 0. -1.
</event>
